 Entering Gaussian System, Link 0=g16
 Input=simple-grid-175-225-b3lyp_d3bj-631gd-gas-singlepoint-DFT-juldz2-gas.gjf
 Output=simple-grid-175-225-b3lyp_d3bj-631gd-gas-singlepoint-DFT-juldz2-gas.out
 Initial command:
 /n/sw/g16_nehalem/g16/l1.exe "/scratch/Gau-323936.inp" -scrdir="/scratch/"
 Entering Link 1 = /n/sw/g16_nehalem/g16/l1.exe PID=    323940.
  
 Copyright (c) 1988,1990,1992,1993,1995,1998,2003,2009,2016,
            Gaussian, Inc.  All Rights Reserved.
  
 This is part of the Gaussian(R) 16 program.  It is based on
 the Gaussian(R) 09 system (copyright 2009, Gaussian, Inc.),
 the Gaussian(R) 03 system (copyright 2003, Gaussian, Inc.),
 the Gaussian(R) 98 system (copyright 1998, Gaussian, Inc.),
 the Gaussian(R) 94 system (copyright 1995, Gaussian, Inc.),
 the Gaussian 92(TM) system (copyright 1992, Gaussian, Inc.),
 the Gaussian 90(TM) system (copyright 1990, Gaussian, Inc.),
 the Gaussian 88(TM) system (copyright 1988, Gaussian, Inc.),
 the Gaussian 86(TM) system (copyright 1986, Carnegie Mellon
 University), and the Gaussian 82(TM) system (copyright 1983,
 Carnegie Mellon University). Gaussian is a federally registered
 trademark of Gaussian, Inc.
  
 This software contains proprietary and confidential information,
 including trade secrets, belonging to Gaussian, Inc.
  
 This software is provided under written license and may be
 used, copied, transmitted, or stored only in accord with that
 written license.
  
 The following legend is applicable only to US Government
 contracts under FAR:
  
                    RESTRICTED RIGHTS LEGEND
  
 Use, reproduction and disclosure by the US Government is
 subject to restrictions as set forth in subparagraphs (a)
 and (c) of the Commercial Computer Software - Restricted
 Rights clause in FAR 52.227-19.
  
 Gaussian, Inc.
 340 Quinnipiac St., Bldg. 40, Wallingford CT 06492
  
  
 ---------------------------------------------------------------
 Warning -- This program may not be used in any manner that
 competes with the business of Gaussian, Inc. or will provide
 assistance to any competitor of Gaussian, Inc.  The licensee
 of this program is prohibited from giving any competitor of
 Gaussian, Inc. access to this program.  By using this program,
 the user acknowledges that Gaussian, Inc. is engaged in the
 business of creating and licensing software in the field of
 computational chemistry and represents and warrants to the
 licensee that it is not a competitor of Gaussian, Inc. and that
 it will not use this program in any manner prohibited above.
 ---------------------------------------------------------------
  

 Cite this work as:
 Gaussian 16, Revision A.03,
 M. J. Frisch, G. W. Trucks, H. B. Schlegel, G. E. Scuseria, 
 M. A. Robb, J. R. Cheeseman, G. Scalmani, V. Barone, 
 G. A. Petersson, H. Nakatsuji, X. Li, M. Caricato, A. V. Marenich, 
 J. Bloino, B. G. Janesko, R. Gomperts, B. Mennucci, H. P. Hratchian, 
 J. V. Ortiz, A. F. Izmaylov, J. L. Sonnenberg, D. Williams-Young, 
 F. Ding, F. Lipparini, F. Egidi, J. Goings, B. Peng, A. Petrone, 
 T. Henderson, D. Ranasinghe, V. G. Zakrzewski, J. Gao, N. Rega, 
 G. Zheng, W. Liang, M. Hada, M. Ehara, K. Toyota, R. Fukuda, 
 J. Hasegawa, M. Ishida, T. Nakajima, Y. Honda, O. Kitao, H. Nakai, 
 T. Vreven, K. Throssell, J. A. Montgomery, Jr., J. E. Peralta, 
 F. Ogliaro, M. J. Bearpark, J. J. Heyd, E. N. Brothers, K. N. Kudin, 
 V. N. Staroverov, T. A. Keith, R. Kobayashi, J. Normand, 
 K. Raghavachari, A. P. Rendell, J. C. Burant, S. S. Iyengar, 
 J. Tomasi, M. Cossi, J. M. Millam, M. Klene, C. Adamo, R. Cammi, 
 J. W. Ochterski, R. L. Martin, K. Morokuma, O. Farkas, 
 J. B. Foresman, and D. J. Fox, Gaussian, Inc., Wallingford CT, 2016.
 
 ******************************************
 Gaussian 16:  ES64L-G16RevA.03 25-Dec-2016
                11-Feb-2020 
 ******************************************
 %chk=checkpoint.chk
 %mem=3GB
 %nprocshared=4
 Will use up to    4 processors via shared memory.
 --------------------------------
 #t pop=none jul-cc-pvdz upbe1pbe
 --------------------------------
 ------------------------
 theory_abbreviation pbe0
 ------------------------
 Symbolic Z-matrix:
 Charge =  0 Multiplicity = 6
 O                    -0.33491  -0.27544  -0.61261 
 C                    -1.40161  -1.19002  -0.43845 
 C                    -2.77394  -0.14943  -0.12801 
 C                    -2.05078   1.13349  -0.24761 
 C                    -1.94246   1.81598  -1.55179 
 Fe                    1.37447   0.03487   0.02505 
 Cl                    1.73754   2.07987  -0.78095 
 C                    -1.57032   1.85277   0.94667 
 Cl                    2.69014  -1.57089  -0.68679 
 Cl                    1.24026   0.10205   2.25036 
 H                    -3.44061  -0.27985  -0.98408 
 H                    -2.45173   2.35665   1.37944 
 H                    -1.18125   1.17734   1.71247 
 H                    -0.81765   2.60339   0.69981 
 H                    -2.60838   2.69453  -1.51187 
 H                    -0.92234   2.19319  -1.68891 
 H                    -2.24073   1.18547  -2.38963 
 C                    -3.50976  -0.41384   1.17973 
 H                    -4.32591   0.30416   1.32235 
 H                    -3.95272  -1.41306   1.1568 
 H                    -2.85373  -0.36063   2.05112 
 C                    -1.15476  -2.13574   0.72088 
 H                    -1.98731  -2.83067   0.86491 
 H                    -0.25792  -2.72052   0.48199 
 H                    -0.95484  -1.60132   1.65104 
 C                    -1.65152  -1.92445  -1.74492 
 H                    -0.75728  -2.51009  -1.98594 
 H                    -2.50937  -2.60129  -1.66867 
 H                    -1.81927  -1.22021  -2.5648 
 
                    Distance matrix (angstroms):
                    1          2          3          4          5
     1  O    0.000000
     2  C    1.415845   0.000000
     3  C    2.489894   1.750000   0.000000
     4  C    2.250008   2.420034   1.477552   0.000000
     5  C    2.800060   3.250863   2.565420   1.475948   0.000000
     6  Fe   1.850649   3.069492   4.155324   3.607450   4.081772
     7  Cl   3.141801   4.545739   5.074409   3.941004   3.769120
     8  C    2.913225   3.347477   2.571471   1.474622   2.526294
     9  Cl   3.291601   4.116931   5.673532   5.475667   5.803459
    10  Cl   3.289415   3.984793   4.672652   4.258483   5.246296
    11  H    3.127840   2.298626   1.092844   2.114600   2.638041
    12  H    3.921364   4.121450   2.942221   2.074647   3.023873
    13  H    2.869297   3.206152   2.772070   2.144747   3.412146
    14  H    3.200490   4.003320   3.477120   2.139814   2.637217
    15  H    3.846828   4.206934   3.167115   2.084733   1.103130
    16  H    2.756375   3.638602   3.369377   2.115109   1.096238
    17  H    2.987338   3.186562   2.679775   2.151050   1.090172
    18  C    3.648468   2.768629   1.523657   2.561279   3.858724
    19  H    4.473036   3.726196   2.172070   2.885957   4.028290
    20  H    4.184917   3.017081   2.153370   3.474859   4.669509
    21  H    3.667036   2.999086   2.190790   2.856791   4.306854
    22  C    2.431269   1.516369   2.699590   3.525440   4.626192
    23  H    3.382697   2.175664   2.965417   4.117801   5.237730
    24  H    2.680014   2.120767   3.648690   4.312780   5.249171
    25  H    2.695622   2.175946   2.929526   3.505020   4.786595
    26  C    2.394745   1.519439   2.650451   3.428171   3.756700
    27  H    2.656704   2.133650   3.618222   4.239180   4.506446
    28  H    3.354563   2.175377   2.907792   4.022231   4.455040
    29  H    2.628105   2.167192   2.827704   3.311024   3.203094
                    6          7          8          9         10
     6  Fe   0.000000
     7  Cl   2.227894   0.000000
     8  C    3.581334   3.738746   0.000000
     9  Cl   2.194576   3.774169   5.704488   0.000000
    10  Cl   2.230359   3.653480   3.558649   3.678006   0.000000
    11  H    4.929749   5.694105   3.431301   6.272267   5.702452
    12  H    4.675990   4.721648   1.103663   6.792183   4.412768
    13  H    3.268687   3.943486   1.092722   5.319480   2.703564
    14  H    3.443544   2.999293   1.091271   5.625998   3.591084
    15  H    5.029819   4.449620   2.798310   6.851929   5.973888
    16  H    3.587664   2.812860   2.735331   5.312484   4.956559
    17  H    4.497137   4.383427   3.467797   5.900055   5.900892
    18  C    5.038885   6.131647   2.992201   6.577348   4.896437
    19  H    5.852334   6.659015   3.183174   7.535078   5.646615
    20  H    5.635275   6.952306   4.047916   6.895752   5.518920
    21  H    4.705215   5.920850   2.786768   6.300430   4.124868
    22  C    3.404810   5.328445   4.016454   4.133265   3.617059
    23  H    4.496463   6.379400   4.702675   5.086583   4.575747
    24  H    3.235062   5.349824   4.780511   3.373242   3.652195
    25  H    3.278205   5.168625   3.578505   4.330390   2.842376
    26  C    4.016012   5.333815   4.638818   4.482708   5.332101
    27  H    3.881398   5.361330   5.319379   3.801917   5.362800
    28  H    4.990213   6.382599   5.249810   5.390797   6.060241
    29  H    4.299131   5.169480   4.672858   4.897414   5.856177
                   11         12         13         14         15
    11  H    0.000000
    12  H    3.676300   0.000000
    13  H    3.807819   1.765168   0.000000
    14  H    4.245988   1.786897   1.786421   0.000000
    15  H    3.133385   2.915195   3.838614   2.847197   0.000000
    16  H    3.599221   3.432280   3.559265   2.425942   1.767893
    17  H    2.358484   3.952474   4.236719   3.685139   1.784070
    18  C    2.169053   2.972354   2.870128   4.072029   4.209412
    19  H    2.538582   2.780016   3.286872   4.240502   4.086142
    20  H    2.475836   4.063643   3.834056   5.115595   5.079500
    21  H    3.092465   2.827777   2.297220   3.841486   4.699898
    22  C    3.402405   4.722012   3.458388   4.751149   5.516317
    23  H    3.469516   5.233418   4.175188   5.560960   6.046705
    24  H    4.270338   5.603199   4.190452   5.357676   6.230805
    25  H    3.856060   4.240278   2.788542   4.313144   5.585028
    26  C    2.546460   5.360013   4.668595   5.212805   4.722809
    27  H    3.630154   6.154844   5.239763   5.776204   5.544317
    28  H    2.593264   5.820265   5.241572   5.963245   5.299074
    29  H    2.451885   5.361991   4.944731   5.126478   4.129960
                   16         17         18         19         20
    16  H    0.000000
    17  H    1.801293   0.000000
    18  C    4.660518   4.112000   0.000000
    19  H    4.921421   4.347809   1.096334   0.000000
    20  H    5.503296   4.718093   1.093242   1.765078   0.000000
    21  H    4.923416   4.741981   1.092026   1.772101   1.764990
    22  C    4.959911   4.678146   2.953226   4.046116   2.922481
    23  H    5.735436   5.175479   2.873685   3.937696   2.440838
    24  H    5.412830   5.237793   4.047482   5.138424   3.976984
    25  H    5.055154   5.074121   2.856552   3.886257   3.044179
    26  C    4.182079   3.230238   3.780023   4.639736   3.738582
    27  H    4.715536   4.002595   4.689555   5.621378   4.614235
    28  H    5.050357   3.864134   3.728157   4.548371   3.387989
    29  H    3.636333   2.448591   4.186829   4.869997   4.294082
                   21         22         23         24         25
    21  H    0.000000
    22  C    2.794113   0.000000
    23  H    2.873828   1.093981   0.000000
    24  H    3.843109   1.096976   1.774694   0.000000
    25  H    2.303297   1.091224   1.787536   1.762094   0.000000
    26  C    4.277933   2.524197   2.783012   2.744990   3.481708
    27  H    5.031216   2.761342   3.121389   2.526722   3.753999
    28  H    4.356144   2.785975   2.596956   3.115859   3.799602
    29  H    4.807878   3.474982   3.792721   3.737874   4.320394
                   26         27         28         29
    26  C    0.000000
    27  H    1.095783   0.000000
    28  H    1.095364   1.782916   0.000000
    29  H    1.093762   1.768250   1.785130   0.000000
 Framework group  C1[X(C8H16Cl3FeO)]
 Deg. of freedom    81
                         Standard orientation:                         
 ---------------------------------------------------------------------
 Center     Atomic      Atomic             Coordinates (Angstroms)
 Number     Number       Type             X           Y           Z
 ---------------------------------------------------------------------
      1          8           0       -0.334913   -0.275443   -0.612611
      2          6           0       -1.401605   -1.190021   -0.438451
      3          6           0       -2.773941   -0.149434   -0.128010
      4          6           0       -2.050784    1.133492   -0.247609
      5          6           0       -1.942461    1.815983   -1.551792
      6         26           0        1.374471    0.034865    0.025054
      7         17           0        1.737544    2.079869   -0.780953
      8          6           0       -1.570320    1.852770    0.946671
      9         17           0        2.690141   -1.570890   -0.686793
     10         17           0        1.240259    0.102047    2.250357
     11          1           0       -3.440614   -0.279846   -0.984075
     12          1           0       -2.451734    2.356646    1.379442
     13          1           0       -1.181247    1.177336    1.712473
     14          1           0       -0.817652    2.603385    0.699811
     15          1           0       -2.608382    2.694534   -1.511865
     16          1           0       -0.922336    2.193185   -1.688907
     17          1           0       -2.240729    1.185471   -2.389626
     18          6           0       -3.509764   -0.413838    1.179731
     19          1           0       -4.325908    0.304158    1.322349
     20          1           0       -3.952724   -1.413057    1.156799
     21          1           0       -2.853733   -0.360627    2.051116
     22          6           0       -1.154761   -2.135743    0.720882
     23          1           0       -1.987306   -2.830668    0.864908
     24          1           0       -0.257919   -2.720518    0.481992
     25          1           0       -0.954840   -1.601321    1.651040
     26          6           0       -1.651523   -1.924452   -1.744915
     27          1           0       -0.757278   -2.510091   -1.985939
     28          1           0       -2.509366   -2.601294   -1.668671
     29          1           0       -1.819268   -1.220206   -2.564802
 ---------------------------------------------------------------------
 Rotational constants (GHZ):           0.5733986           0.3591748           0.3243099
   427 basis functions,  1056 primitive gaussians,   461 cartesian basis functions
    77 alpha electrons       72 beta electrons
       nuclear repulsion energy      1658.0165871441 Hartrees.
 NAtoms=   29 NActive=   29 NUniq=   29 SFac= 1.00D+00 NAtFMM=   60 NAOKFM=F Big=F
 ExpMin= 1.40D-02 ExpMax= 4.32D+06 ExpMxC= 4.91D+03 IAcc=3 IRadAn=         5 AccDes= 0.00D+00
 Harris functional with IExCor= 1009 and IRadAn=       5 diagonalized for initial guess.
 HarFok:  IExCor= 1009 AccDes= 0.00D+00 IRadAn=         5 IDoV= 1 UseB2=F ITyADJ=14
 ICtDFT=  3500011 ScaDFX=  1.000000  1.000000  1.000000  1.000000
 FoFCou: FMM=F IPFlag=           0 FMFlag=      100000 FMFlg1=           0
         NFxFlg=           0 DoJE=T BraDBF=F KetDBF=T FulRan=T
         wScrn=  0.000000 ICntrl=       500 IOpCl=  0 I1Cent=   200000004 NGrid=           0
         NMat0=    1 NMatS0=      1 NMatT0=    0 NMatD0=    1 NMtDS0=    0 NMtDT0=    0
 Petite list used in FoFCou.
 Initial guess <Sx>= 0.0000 <Sy>= 0.0000 <Sz>= 2.5000 <S**2>= 8.7500 S= 2.5000
 EnCoef did     6 forward-backward iterations
 SCF Done:  E(UPBE1PBE) =  -3033.10668776     A.U. after   20 cycles
            NFock= 20  Conv=0.64D-08     -V/T= 2.0022
 <Sx>= 0.0000 <Sy>= 0.0000 <Sz>= 2.5000 <S**2>= 8.7626 S= 2.5021
 <L.S>= 0.000000000000E+00
 Annihilation of the first spin contaminant:
 S**2 before annihilation     8.7626,   after     8.7501
 1\1\GINC-HOLY7C04510\SP\UPBE1PBE\Jul-CC-pVDZ\C8H16Cl3Fe1O1(6)\EKWAN\11
 -Feb-2020\0\\#t pop=none jul-cc-pvdz upbe1pbe\\theory_abbreviation pbe
 0\\0,6\O,0,-0.334913,-0.275443,-0.612611\C,0,-1.401605,-1.190021,-0.43
 8451\C,0,-2.773941,-0.149434,-0.12801\C,0,-2.050784,1.133492,-0.247609
 \C,0,-1.942461,1.815983,-1.551792\Fe,0,1.374471,0.034865,0.025054\Cl,0
 ,1.737544,2.079869,-0.780953\C,0,-1.57032,1.85277,0.946671\Cl,0,2.6901
 41,-1.57089,-0.686793\Cl,0,1.240259,0.102047,2.250357\H,0,-3.440614,-0
 .279845,-0.984075\H,0,-2.451734,2.356646,1.379442\H,0,-1.181247,1.1773
 36,1.712473\H,0,-0.817652,2.603385,0.699811\H,0,-2.608382,2.694534,-1.
 511865\H,0,-0.922336,2.193185,-1.688907\H,0,-2.240729,1.185471,-2.3896
 26\C,0,-3.509764,-0.413837,1.179731\H,0,-4.325908,0.304159,1.322349\H,
 0,-3.952724,-1.413056,1.156799\H,0,-2.853733,-0.360627,2.051116\C,0,-1
 .154761,-2.135743,0.720882\H,0,-1.987306,-2.830668,0.864908\H,0,-0.257
 919,-2.720518,0.481992\H,0,-0.95484,-1.601321,1.65104\C,0,-1.651523,-1
 .924452,-1.744915\H,0,-0.757278,-2.510091,-1.985939\H,0,-2.509366,-2.6
 01294,-1.668671\H,0,-1.819268,-1.220206,-2.564802\\Version=ES64L-G16Re
 vA.03\HF=-3033.1066878\S2=8.762634\S2-1=0.\S2A=8.75005\RMSD=6.375e-09\
 PG=C01 [X(C8H16Cl3Fe1O1)]\\@


 ON INDUCTION, OR "WHY DO YOU BELIEVE THE SUN WILL RISE TOMORROW?":

 ... THE FARMER WHO HAS FED THE CHICKEN EVERY DAY THROUGHOUT ITS
 LIFE AT LAST WRINGS ITS NECK INSTEAD, SHOWING THAT MORE REFINED VIEWS
 AS TO THE UNIFORMITY OF NATURE WOULD HAVE BEEN USEFUL TO THE CHICKEN.

                               -- BERTRAND RUSSELL
 Job cpu time:       0 days  1 hours 29 minutes 30.7 seconds.
 Elapsed time:       0 days  0 hours 22 minutes 30.8 seconds.
 File lengths (MBytes):  RWF=    173 Int=      0 D2E=      0 Chk=     13 Scr=      1
 Normal termination of Gaussian 16 at Tue Feb 11 13:57:49 2020.
 Initial command:
 /n/sw/g16_nehalem/g16/l1.exe "/scratch/Gau-323936.inp" -scrdir="/scratch/"
 Entering Link 1 = /n/sw/g16_nehalem/g16/l1.exe PID=    326562.
  
 Copyright (c) 1988,1990,1992,1993,1995,1998,2003,2009,2016,
            Gaussian, Inc.  All Rights Reserved.
  
 This is part of the Gaussian(R) 16 program.  It is based on
 the Gaussian(R) 09 system (copyright 2009, Gaussian, Inc.),
 the Gaussian(R) 03 system (copyright 2003, Gaussian, Inc.),
 the Gaussian(R) 98 system (copyright 1998, Gaussian, Inc.),
 the Gaussian(R) 94 system (copyright 1995, Gaussian, Inc.),
 the Gaussian 92(TM) system (copyright 1992, Gaussian, Inc.),
 the Gaussian 90(TM) system (copyright 1990, Gaussian, Inc.),
 the Gaussian 88(TM) system (copyright 1988, Gaussian, Inc.),
 the Gaussian 86(TM) system (copyright 1986, Carnegie Mellon
 University), and the Gaussian 82(TM) system (copyright 1983,
 Carnegie Mellon University). Gaussian is a federally registered
 trademark of Gaussian, Inc.
  
 This software contains proprietary and confidential information,
 including trade secrets, belonging to Gaussian, Inc.
  
 This software is provided under written license and may be
 used, copied, transmitted, or stored only in accord with that
 written license.
  
 The following legend is applicable only to US Government
 contracts under FAR:
  
                    RESTRICTED RIGHTS LEGEND
  
 Use, reproduction and disclosure by the US Government is
 subject to restrictions as set forth in subparagraphs (a)
 and (c) of the Commercial Computer Software - Restricted
 Rights clause in FAR 52.227-19.
  
 Gaussian, Inc.
 340 Quinnipiac St., Bldg. 40, Wallingford CT 06492
  
  
 ---------------------------------------------------------------
 Warning -- This program may not be used in any manner that
 competes with the business of Gaussian, Inc. or will provide
 assistance to any competitor of Gaussian, Inc.  The licensee
 of this program is prohibited from giving any competitor of
 Gaussian, Inc. access to this program.  By using this program,
 the user acknowledges that Gaussian, Inc. is engaged in the
 business of creating and licensing software in the field of
 computational chemistry and represents and warrants to the
 licensee that it is not a competitor of Gaussian, Inc. and that
 it will not use this program in any manner prohibited above.
 ---------------------------------------------------------------
  

 Cite this work as:
 Gaussian 16, Revision A.03,
 M. J. Frisch, G. W. Trucks, H. B. Schlegel, G. E. Scuseria, 
 M. A. Robb, J. R. Cheeseman, G. Scalmani, V. Barone, 
 G. A. Petersson, H. Nakatsuji, X. Li, M. Caricato, A. V. Marenich, 
 J. Bloino, B. G. Janesko, R. Gomperts, B. Mennucci, H. P. Hratchian, 
 J. V. Ortiz, A. F. Izmaylov, J. L. Sonnenberg, D. Williams-Young, 
 F. Ding, F. Lipparini, F. Egidi, J. Goings, B. Peng, A. Petrone, 
 T. Henderson, D. Ranasinghe, V. G. Zakrzewski, J. Gao, N. Rega, 
 G. Zheng, W. Liang, M. Hada, M. Ehara, K. Toyota, R. Fukuda, 
 J. Hasegawa, M. Ishida, T. Nakajima, Y. Honda, O. Kitao, H. Nakai, 
 T. Vreven, K. Throssell, J. A. Montgomery, Jr., J. E. Peralta, 
 F. Ogliaro, M. J. Bearpark, J. J. Heyd, E. N. Brothers, K. N. Kudin, 
 V. N. Staroverov, T. A. Keith, R. Kobayashi, J. Normand, 
 K. Raghavachari, A. P. Rendell, J. C. Burant, S. S. Iyengar, 
 J. Tomasi, M. Cossi, J. M. Millam, M. Klene, C. Adamo, R. Cammi, 
 J. W. Ochterski, R. L. Martin, K. Morokuma, O. Farkas, 
 J. B. Foresman, and D. J. Fox, Gaussian, Inc., Wallingford CT, 2016.
 
 ******************************************
 Gaussian 16:  ES64L-G16RevA.03 25-Dec-2016
                11-Feb-2020 
 ******************************************
 %chk=checkpoint.chk
 %mem=3GB
 %nprocshared=4
 Will use up to    4 processors via shared memory.
 ---------------------------------------------------------------------
 #t pop=none jul-cc-pvdz guess=read upbe1pbe empiricaldispersion=gd3bj
 ---------------------------------------------------------------------
 -----------------------------
 theory_abbreviation pbe0_d3bj
 -----------------------------
 Symbolic Z-matrix:
 Charge =  0 Multiplicity = 6
 O                    -0.33491  -0.27544  -0.61261 
 C                    -1.40161  -1.19002  -0.43845 
 C                    -2.77394  -0.14943  -0.12801 
 C                    -2.05078   1.13349  -0.24761 
 C                    -1.94246   1.81598  -1.55179 
 Fe                    1.37447   0.03487   0.02505 
 Cl                    1.73754   2.07987  -0.78095 
 C                    -1.57032   1.85277   0.94667 
 Cl                    2.69014  -1.57089  -0.68679 
 Cl                    1.24026   0.10205   2.25036 
 H                    -3.44061  -0.27985  -0.98408 
 H                    -2.45173   2.35665   1.37944 
 H                    -1.18125   1.17734   1.71247 
 H                    -0.81765   2.60339   0.69981 
 H                    -2.60838   2.69453  -1.51187 
 H                    -0.92234   2.19319  -1.68891 
 H                    -2.24073   1.18547  -2.38963 
 C                    -3.50976  -0.41384   1.17973 
 H                    -4.32591   0.30416   1.32235 
 H                    -3.95272  -1.41306   1.1568 
 H                    -2.85373  -0.36063   2.05112 
 C                    -1.15476  -2.13574   0.72088 
 H                    -1.98731  -2.83067   0.86491 
 H                    -0.25792  -2.72052   0.48199 
 H                    -0.95484  -1.60132   1.65104 
 C                    -1.65152  -1.92445  -1.74492 
 H                    -0.75728  -2.51009  -1.98594 
 H                    -2.50937  -2.60129  -1.66867 
 H                    -1.81927  -1.22021  -2.5648 
 
                    Distance matrix (angstroms):
                    1          2          3          4          5
     1  O    0.000000
     2  C    1.415845   0.000000
     3  C    2.489894   1.750000   0.000000
     4  C    2.250008   2.420034   1.477552   0.000000
     5  C    2.800060   3.250863   2.565420   1.475948   0.000000
     6  Fe   1.850649   3.069492   4.155324   3.607450   4.081772
     7  Cl   3.141801   4.545739   5.074409   3.941004   3.769120
     8  C    2.913225   3.347477   2.571471   1.474622   2.526294
     9  Cl   3.291601   4.116931   5.673532   5.475667   5.803459
    10  Cl   3.289415   3.984793   4.672652   4.258483   5.246296
    11  H    3.127840   2.298626   1.092844   2.114600   2.638041
    12  H    3.921364   4.121450   2.942221   2.074647   3.023873
    13  H    2.869297   3.206152   2.772070   2.144747   3.412146
    14  H    3.200490   4.003320   3.477120   2.139814   2.637217
    15  H    3.846828   4.206934   3.167115   2.084733   1.103130
    16  H    2.756375   3.638602   3.369377   2.115109   1.096238
    17  H    2.987338   3.186562   2.679775   2.151050   1.090172
    18  C    3.648468   2.768629   1.523657   2.561279   3.858724
    19  H    4.473036   3.726196   2.172070   2.885957   4.028290
    20  H    4.184917   3.017081   2.153370   3.474859   4.669509
    21  H    3.667036   2.999086   2.190790   2.856791   4.306854
    22  C    2.431269   1.516369   2.699590   3.525440   4.626192
    23  H    3.382697   2.175664   2.965417   4.117801   5.237730
    24  H    2.680014   2.120767   3.648690   4.312780   5.249171
    25  H    2.695622   2.175946   2.929526   3.505020   4.786595
    26  C    2.394745   1.519439   2.650451   3.428171   3.756700
    27  H    2.656704   2.133650   3.618222   4.239180   4.506446
    28  H    3.354563   2.175377   2.907792   4.022231   4.455040
    29  H    2.628105   2.167192   2.827704   3.311024   3.203094
                    6          7          8          9         10
     6  Fe   0.000000
     7  Cl   2.227894   0.000000
     8  C    3.581334   3.738746   0.000000
     9  Cl   2.194576   3.774169   5.704488   0.000000
    10  Cl   2.230359   3.653480   3.558649   3.678006   0.000000
    11  H    4.929749   5.694105   3.431301   6.272267   5.702452
    12  H    4.675990   4.721648   1.103663   6.792183   4.412768
    13  H    3.268687   3.943486   1.092722   5.319480   2.703564
    14  H    3.443544   2.999293   1.091271   5.625998   3.591084
    15  H    5.029819   4.449620   2.798310   6.851929   5.973888
    16  H    3.587664   2.812860   2.735331   5.312484   4.956559
    17  H    4.497137   4.383427   3.467797   5.900055   5.900892
    18  C    5.038885   6.131647   2.992201   6.577348   4.896437
    19  H    5.852334   6.659015   3.183174   7.535078   5.646615
    20  H    5.635275   6.952306   4.047916   6.895752   5.518920
    21  H    4.705215   5.920850   2.786768   6.300430   4.124868
    22  C    3.404810   5.328445   4.016454   4.133265   3.617059
    23  H    4.496463   6.379400   4.702675   5.086583   4.575747
    24  H    3.235062   5.349824   4.780511   3.373242   3.652195
    25  H    3.278205   5.168625   3.578505   4.330390   2.842376
    26  C    4.016012   5.333815   4.638818   4.482708   5.332101
    27  H    3.881398   5.361330   5.319379   3.801917   5.362800
    28  H    4.990213   6.382599   5.249810   5.390797   6.060241
    29  H    4.299131   5.169480   4.672858   4.897414   5.856177
                   11         12         13         14         15
    11  H    0.000000
    12  H    3.676300   0.000000
    13  H    3.807819   1.765168   0.000000
    14  H    4.245988   1.786897   1.786421   0.000000
    15  H    3.133385   2.915195   3.838614   2.847197   0.000000
    16  H    3.599221   3.432280   3.559265   2.425942   1.767893
    17  H    2.358484   3.952474   4.236719   3.685139   1.784070
    18  C    2.169053   2.972354   2.870128   4.072029   4.209412
    19  H    2.538582   2.780016   3.286872   4.240502   4.086142
    20  H    2.475836   4.063643   3.834056   5.115595   5.079500
    21  H    3.092465   2.827777   2.297220   3.841486   4.699898
    22  C    3.402405   4.722012   3.458388   4.751149   5.516317
    23  H    3.469516   5.233418   4.175188   5.560960   6.046705
    24  H    4.270338   5.603199   4.190452   5.357676   6.230805
    25  H    3.856060   4.240278   2.788542   4.313144   5.585028
    26  C    2.546460   5.360013   4.668595   5.212805   4.722809
    27  H    3.630154   6.154844   5.239763   5.776204   5.544317
    28  H    2.593264   5.820265   5.241572   5.963245   5.299074
    29  H    2.451885   5.361991   4.944731   5.126478   4.129960
                   16         17         18         19         20
    16  H    0.000000
    17  H    1.801293   0.000000
    18  C    4.660518   4.112000   0.000000
    19  H    4.921421   4.347809   1.096334   0.000000
    20  H    5.503296   4.718093   1.093242   1.765078   0.000000
    21  H    4.923416   4.741981   1.092026   1.772101   1.764990
    22  C    4.959911   4.678146   2.953226   4.046116   2.922481
    23  H    5.735436   5.175479   2.873685   3.937696   2.440838
    24  H    5.412830   5.237793   4.047482   5.138424   3.976984
    25  H    5.055154   5.074121   2.856552   3.886257   3.044179
    26  C    4.182079   3.230238   3.780023   4.639736   3.738582
    27  H    4.715536   4.002595   4.689555   5.621378   4.614235
    28  H    5.050357   3.864134   3.728157   4.548371   3.387989
    29  H    3.636333   2.448591   4.186829   4.869997   4.294082
                   21         22         23         24         25
    21  H    0.000000
    22  C    2.794113   0.000000
    23  H    2.873828   1.093981   0.000000
    24  H    3.843109   1.096976   1.774694   0.000000
    25  H    2.303297   1.091224   1.787536   1.762094   0.000000
    26  C    4.277933   2.524197   2.783012   2.744990   3.481708
    27  H    5.031216   2.761342   3.121389   2.526722   3.753999
    28  H    4.356144   2.785975   2.596956   3.115859   3.799602
    29  H    4.807878   3.474982   3.792721   3.737874   4.320394
                   26         27         28         29
    26  C    0.000000
    27  H    1.095783   0.000000
    28  H    1.095364   1.782916   0.000000
    29  H    1.093762   1.768250   1.785130   0.000000
 Framework group  C1[X(C8H16Cl3FeO)]
 Deg. of freedom    81
                         Standard orientation:                         
 ---------------------------------------------------------------------
 Center     Atomic      Atomic             Coordinates (Angstroms)
 Number     Number       Type             X           Y           Z
 ---------------------------------------------------------------------
      1          8           0       -0.334913   -0.275443   -0.612611
      2          6           0       -1.401605   -1.190021   -0.438451
      3          6           0       -2.773941   -0.149434   -0.128010
      4          6           0       -2.050784    1.133492   -0.247609
      5          6           0       -1.942461    1.815983   -1.551792
      6         26           0        1.374471    0.034865    0.025054
      7         17           0        1.737544    2.079869   -0.780953
      8          6           0       -1.570320    1.852770    0.946671
      9         17           0        2.690141   -1.570890   -0.686793
     10         17           0        1.240259    0.102047    2.250357
     11          1           0       -3.440614   -0.279846   -0.984075
     12          1           0       -2.451734    2.356646    1.379442
     13          1           0       -1.181247    1.177336    1.712473
     14          1           0       -0.817652    2.603385    0.699811
     15          1           0       -2.608382    2.694534   -1.511865
     16          1           0       -0.922336    2.193185   -1.688907
     17          1           0       -2.240729    1.185471   -2.389626
     18          6           0       -3.509764   -0.413838    1.179731
     19          1           0       -4.325908    0.304158    1.322349
     20          1           0       -3.952724   -1.413057    1.156799
     21          1           0       -2.853733   -0.360627    2.051116
     22          6           0       -1.154761   -2.135743    0.720882
     23          1           0       -1.987306   -2.830668    0.864908
     24          1           0       -0.257919   -2.720518    0.481992
     25          1           0       -0.954840   -1.601321    1.651040
     26          6           0       -1.651523   -1.924452   -1.744915
     27          1           0       -0.757278   -2.510091   -1.985939
     28          1           0       -2.509366   -2.601294   -1.668671
     29          1           0       -1.819268   -1.220206   -2.564802
 ---------------------------------------------------------------------
 Rotational constants (GHZ):           0.5733986           0.3591748           0.3243099
   427 basis functions,  1056 primitive gaussians,   461 cartesian basis functions
    77 alpha electrons       72 beta electrons
       nuclear repulsion energy      1658.0165871441 Hartrees.
 NAtoms=   29 NActive=   29 NUniq=   29 SFac= 1.00D+00 NAtFMM=   60 NAOKFM=F Big=F
 Nuclear repulsion after empirical dispersion term =     1657.9795951689 Hartrees.
 Initial guess from the checkpoint file:  "checkpoint.chk"
 B after Tr=     0.000000    0.000000    0.000000
         Rot=    1.000000    0.000000    0.000000    0.000000 Ang=   0.00 deg.
 Initial guess <Sx>= 0.0000 <Sy>= 0.0000 <Sz>= 2.5000 <S**2>= 8.7626 S= 2.5021
 SCF Done:  E(UPBE1PBE) =  -3033.14367973     A.U. after    1 cycles
            NFock=  1  Conv=0.22D-08     -V/T= 2.0022
 <Sx>= 0.0000 <Sy>= 0.0000 <Sz>= 2.5000 <S**2>= 8.7626 S= 2.5021
 <L.S>= 0.000000000000E+00
 Annihilation of the first spin contaminant:
 S**2 before annihilation     8.7626,   after     8.7501
 1\1\GINC-HOLY7C04510\SP\UPBE1PBE\Jul-CC-pVDZ\C8H16Cl3Fe1O1(6)\EKWAN\11
 -Feb-2020\0\\#t pop=none jul-cc-pvdz guess=read upbe1pbe empiricaldisp
 ersion=gd3bj\\theory_abbreviation pbe0_d3bj\\0,6\O,0,-0.334913,-0.2754
 43,-0.612611\C,0,-1.401605,-1.190021,-0.438451\C,0,-2.773941,-0.149434
 ,-0.12801\C,0,-2.050784,1.133492,-0.247609\C,0,-1.942461,1.815983,-1.5
 51792\Fe,0,1.374471,0.034865,0.025054\Cl,0,1.737544,2.079869,-0.780953
 \C,0,-1.57032,1.85277,0.946671\Cl,0,2.690141,-1.57089,-0.686793\Cl,0,1
 .240259,0.102047,2.250357\H,0,-3.440614,-0.279845,-0.984075\H,0,-2.451
 734,2.356646,1.379442\H,0,-1.181247,1.177336,1.712473\H,0,-0.817652,2.
 603385,0.699811\H,0,-2.608382,2.694534,-1.511865\H,0,-0.922336,2.19318
 5,-1.688907\H,0,-2.240729,1.185471,-2.389626\C,0,-3.509764,-0.413837,1
 .179731\H,0,-4.325908,0.304159,1.322349\H,0,-3.952724,-1.413056,1.1567
 99\H,0,-2.853733,-0.360627,2.051116\C,0,-1.154761,-2.135743,0.720882\H
 ,0,-1.987306,-2.830668,0.864908\H,0,-0.257919,-2.720518,0.481992\H,0,-
 0.95484,-1.601321,1.65104\C,0,-1.651523,-1.924452,-1.744915\H,0,-0.757
 278,-2.510091,-1.985939\H,0,-2.509366,-2.601294,-1.668671\H,0,-1.81926
 8,-1.220206,-2.564802\\Version=ES64L-G16RevA.03\HF=-3033.1436797\S2=8.
 762634\S2-1=0.\S2A=8.75005\RMSD=2.231e-09\PG=C01 [X(C8H16Cl3Fe1O1)]\\@


 ALMOST ANYTHING IS EASIER TO GET INTO THAN OUT OF.

                         -- AGNES ALLEN'S LAW FROM
                PAUL DICKSON'S "THE OFFICIAL RULES"
 Job cpu time:       0 days  0 hours  5 minutes  0.8 seconds.
 Elapsed time:       0 days  0 hours  1 minutes 17.1 seconds.
 File lengths (MBytes):  RWF=    170 Int=      0 D2E=      0 Chk=     13 Scr=      1
 Normal termination of Gaussian 16 at Tue Feb 11 13:59:06 2020.
 Initial command:
 /n/sw/g16_nehalem/g16/l1.exe "/scratch/Gau-323936.inp" -scrdir="/scratch/"
 Entering Link 1 = /n/sw/g16_nehalem/g16/l1.exe PID=    326730.
  
 Copyright (c) 1988,1990,1992,1993,1995,1998,2003,2009,2016,
            Gaussian, Inc.  All Rights Reserved.
  
 This is part of the Gaussian(R) 16 program.  It is based on
 the Gaussian(R) 09 system (copyright 2009, Gaussian, Inc.),
 the Gaussian(R) 03 system (copyright 2003, Gaussian, Inc.),
 the Gaussian(R) 98 system (copyright 1998, Gaussian, Inc.),
 the Gaussian(R) 94 system (copyright 1995, Gaussian, Inc.),
 the Gaussian 92(TM) system (copyright 1992, Gaussian, Inc.),
 the Gaussian 90(TM) system (copyright 1990, Gaussian, Inc.),
 the Gaussian 88(TM) system (copyright 1988, Gaussian, Inc.),
 the Gaussian 86(TM) system (copyright 1986, Carnegie Mellon
 University), and the Gaussian 82(TM) system (copyright 1983,
 Carnegie Mellon University). Gaussian is a federally registered
 trademark of Gaussian, Inc.
  
 This software contains proprietary and confidential information,
 including trade secrets, belonging to Gaussian, Inc.
  
 This software is provided under written license and may be
 used, copied, transmitted, or stored only in accord with that
 written license.
  
 The following legend is applicable only to US Government
 contracts under FAR:
  
                    RESTRICTED RIGHTS LEGEND
  
 Use, reproduction and disclosure by the US Government is
 subject to restrictions as set forth in subparagraphs (a)
 and (c) of the Commercial Computer Software - Restricted
 Rights clause in FAR 52.227-19.
  
 Gaussian, Inc.
 340 Quinnipiac St., Bldg. 40, Wallingford CT 06492
  
  
 ---------------------------------------------------------------
 Warning -- This program may not be used in any manner that
 competes with the business of Gaussian, Inc. or will provide
 assistance to any competitor of Gaussian, Inc.  The licensee
 of this program is prohibited from giving any competitor of
 Gaussian, Inc. access to this program.  By using this program,
 the user acknowledges that Gaussian, Inc. is engaged in the
 business of creating and licensing software in the field of
 computational chemistry and represents and warrants to the
 licensee that it is not a competitor of Gaussian, Inc. and that
 it will not use this program in any manner prohibited above.
 ---------------------------------------------------------------
  

 Cite this work as:
 Gaussian 16, Revision A.03,
 M. J. Frisch, G. W. Trucks, H. B. Schlegel, G. E. Scuseria, 
 M. A. Robb, J. R. Cheeseman, G. Scalmani, V. Barone, 
 G. A. Petersson, H. Nakatsuji, X. Li, M. Caricato, A. V. Marenich, 
 J. Bloino, B. G. Janesko, R. Gomperts, B. Mennucci, H. P. Hratchian, 
 J. V. Ortiz, A. F. Izmaylov, J. L. Sonnenberg, D. Williams-Young, 
 F. Ding, F. Lipparini, F. Egidi, J. Goings, B. Peng, A. Petrone, 
 T. Henderson, D. Ranasinghe, V. G. Zakrzewski, J. Gao, N. Rega, 
 G. Zheng, W. Liang, M. Hada, M. Ehara, K. Toyota, R. Fukuda, 
 J. Hasegawa, M. Ishida, T. Nakajima, Y. Honda, O. Kitao, H. Nakai, 
 T. Vreven, K. Throssell, J. A. Montgomery, Jr., J. E. Peralta, 
 F. Ogliaro, M. J. Bearpark, J. J. Heyd, E. N. Brothers, K. N. Kudin, 
 V. N. Staroverov, T. A. Keith, R. Kobayashi, J. Normand, 
 K. Raghavachari, A. P. Rendell, J. C. Burant, S. S. Iyengar, 
 J. Tomasi, M. Cossi, J. M. Millam, M. Klene, C. Adamo, R. Cammi, 
 J. W. Ochterski, R. L. Martin, K. Morokuma, O. Farkas, 
 J. B. Foresman, and D. J. Fox, Gaussian, Inc., Wallingford CT, 2016.
 
 ******************************************
 Gaussian 16:  ES64L-G16RevA.03 25-Dec-2016
                11-Feb-2020 
 ******************************************
 %chk=checkpoint.chk
 %mem=3GB
 %nprocshared=4
 Will use up to    4 processors via shared memory.
 -----------------------------------------
 #t pop=none jul-cc-pvdz guess=read ub3lyp
 -----------------------------------------
 -------------------------
 theory_abbreviation b3lyp
 -------------------------
 Symbolic Z-matrix:
 Charge =  0 Multiplicity = 6
 O                    -0.33491  -0.27544  -0.61261 
 C                    -1.40161  -1.19002  -0.43845 
 C                    -2.77394  -0.14943  -0.12801 
 C                    -2.05078   1.13349  -0.24761 
 C                    -1.94246   1.81598  -1.55179 
 Fe                    1.37447   0.03487   0.02505 
 Cl                    1.73754   2.07987  -0.78095 
 C                    -1.57032   1.85277   0.94667 
 Cl                    2.69014  -1.57089  -0.68679 
 Cl                    1.24026   0.10205   2.25036 
 H                    -3.44061  -0.27985  -0.98408 
 H                    -2.45173   2.35665   1.37944 
 H                    -1.18125   1.17734   1.71247 
 H                    -0.81765   2.60339   0.69981 
 H                    -2.60838   2.69453  -1.51187 
 H                    -0.92234   2.19319  -1.68891 
 H                    -2.24073   1.18547  -2.38963 
 C                    -3.50976  -0.41384   1.17973 
 H                    -4.32591   0.30416   1.32235 
 H                    -3.95272  -1.41306   1.1568 
 H                    -2.85373  -0.36063   2.05112 
 C                    -1.15476  -2.13574   0.72088 
 H                    -1.98731  -2.83067   0.86491 
 H                    -0.25792  -2.72052   0.48199 
 H                    -0.95484  -1.60132   1.65104 
 C                    -1.65152  -1.92445  -1.74492 
 H                    -0.75728  -2.51009  -1.98594 
 H                    -2.50937  -2.60129  -1.66867 
 H                    -1.81927  -1.22021  -2.5648 
 
                    Distance matrix (angstroms):
                    1          2          3          4          5
     1  O    0.000000
     2  C    1.415845   0.000000
     3  C    2.489894   1.750000   0.000000
     4  C    2.250008   2.420034   1.477552   0.000000
     5  C    2.800060   3.250863   2.565420   1.475948   0.000000
     6  Fe   1.850649   3.069492   4.155324   3.607450   4.081772
     7  Cl   3.141801   4.545739   5.074409   3.941004   3.769120
     8  C    2.913225   3.347477   2.571471   1.474622   2.526294
     9  Cl   3.291601   4.116931   5.673532   5.475667   5.803459
    10  Cl   3.289415   3.984793   4.672652   4.258483   5.246296
    11  H    3.127840   2.298626   1.092844   2.114600   2.638041
    12  H    3.921364   4.121450   2.942221   2.074647   3.023873
    13  H    2.869297   3.206152   2.772070   2.144747   3.412146
    14  H    3.200490   4.003320   3.477120   2.139814   2.637217
    15  H    3.846828   4.206934   3.167115   2.084733   1.103130
    16  H    2.756375   3.638602   3.369377   2.115109   1.096238
    17  H    2.987338   3.186562   2.679775   2.151050   1.090172
    18  C    3.648468   2.768629   1.523657   2.561279   3.858724
    19  H    4.473036   3.726196   2.172070   2.885957   4.028290
    20  H    4.184917   3.017081   2.153370   3.474859   4.669509
    21  H    3.667036   2.999086   2.190790   2.856791   4.306854
    22  C    2.431269   1.516369   2.699590   3.525440   4.626192
    23  H    3.382697   2.175664   2.965417   4.117801   5.237730
    24  H    2.680014   2.120767   3.648690   4.312780   5.249171
    25  H    2.695622   2.175946   2.929526   3.505020   4.786595
    26  C    2.394745   1.519439   2.650451   3.428171   3.756700
    27  H    2.656704   2.133650   3.618222   4.239180   4.506446
    28  H    3.354563   2.175377   2.907792   4.022231   4.455040
    29  H    2.628105   2.167192   2.827704   3.311024   3.203094
                    6          7          8          9         10
     6  Fe   0.000000
     7  Cl   2.227894   0.000000
     8  C    3.581334   3.738746   0.000000
     9  Cl   2.194576   3.774169   5.704488   0.000000
    10  Cl   2.230359   3.653480   3.558649   3.678006   0.000000
    11  H    4.929749   5.694105   3.431301   6.272267   5.702452
    12  H    4.675990   4.721648   1.103663   6.792183   4.412768
    13  H    3.268687   3.943486   1.092722   5.319480   2.703564
    14  H    3.443544   2.999293   1.091271   5.625998   3.591084
    15  H    5.029819   4.449620   2.798310   6.851929   5.973888
    16  H    3.587664   2.812860   2.735331   5.312484   4.956559
    17  H    4.497137   4.383427   3.467797   5.900055   5.900892
    18  C    5.038885   6.131647   2.992201   6.577348   4.896437
    19  H    5.852334   6.659015   3.183174   7.535078   5.646615
    20  H    5.635275   6.952306   4.047916   6.895752   5.518920
    21  H    4.705215   5.920850   2.786768   6.300430   4.124868
    22  C    3.404810   5.328445   4.016454   4.133265   3.617059
    23  H    4.496463   6.379400   4.702675   5.086583   4.575747
    24  H    3.235062   5.349824   4.780511   3.373242   3.652195
    25  H    3.278205   5.168625   3.578505   4.330390   2.842376
    26  C    4.016012   5.333815   4.638818   4.482708   5.332101
    27  H    3.881398   5.361330   5.319379   3.801917   5.362800
    28  H    4.990213   6.382599   5.249810   5.390797   6.060241
    29  H    4.299131   5.169480   4.672858   4.897414   5.856177
                   11         12         13         14         15
    11  H    0.000000
    12  H    3.676300   0.000000
    13  H    3.807819   1.765168   0.000000
    14  H    4.245988   1.786897   1.786421   0.000000
    15  H    3.133385   2.915195   3.838614   2.847197   0.000000
    16  H    3.599221   3.432280   3.559265   2.425942   1.767893
    17  H    2.358484   3.952474   4.236719   3.685139   1.784070
    18  C    2.169053   2.972354   2.870128   4.072029   4.209412
    19  H    2.538582   2.780016   3.286872   4.240502   4.086142
    20  H    2.475836   4.063643   3.834056   5.115595   5.079500
    21  H    3.092465   2.827777   2.297220   3.841486   4.699898
    22  C    3.402405   4.722012   3.458388   4.751149   5.516317
    23  H    3.469516   5.233418   4.175188   5.560960   6.046705
    24  H    4.270338   5.603199   4.190452   5.357676   6.230805
    25  H    3.856060   4.240278   2.788542   4.313144   5.585028
    26  C    2.546460   5.360013   4.668595   5.212805   4.722809
    27  H    3.630154   6.154844   5.239763   5.776204   5.544317
    28  H    2.593264   5.820265   5.241572   5.963245   5.299074
    29  H    2.451885   5.361991   4.944731   5.126478   4.129960
                   16         17         18         19         20
    16  H    0.000000
    17  H    1.801293   0.000000
    18  C    4.660518   4.112000   0.000000
    19  H    4.921421   4.347809   1.096334   0.000000
    20  H    5.503296   4.718093   1.093242   1.765078   0.000000
    21  H    4.923416   4.741981   1.092026   1.772101   1.764990
    22  C    4.959911   4.678146   2.953226   4.046116   2.922481
    23  H    5.735436   5.175479   2.873685   3.937696   2.440838
    24  H    5.412830   5.237793   4.047482   5.138424   3.976984
    25  H    5.055154   5.074121   2.856552   3.886257   3.044179
    26  C    4.182079   3.230238   3.780023   4.639736   3.738582
    27  H    4.715536   4.002595   4.689555   5.621378   4.614235
    28  H    5.050357   3.864134   3.728157   4.548371   3.387989
    29  H    3.636333   2.448591   4.186829   4.869997   4.294082
                   21         22         23         24         25
    21  H    0.000000
    22  C    2.794113   0.000000
    23  H    2.873828   1.093981   0.000000
    24  H    3.843109   1.096976   1.774694   0.000000
    25  H    2.303297   1.091224   1.787536   1.762094   0.000000
    26  C    4.277933   2.524197   2.783012   2.744990   3.481708
    27  H    5.031216   2.761342   3.121389   2.526722   3.753999
    28  H    4.356144   2.785975   2.596956   3.115859   3.799602
    29  H    4.807878   3.474982   3.792721   3.737874   4.320394
                   26         27         28         29
    26  C    0.000000
    27  H    1.095783   0.000000
    28  H    1.095364   1.782916   0.000000
    29  H    1.093762   1.768250   1.785130   0.000000
 Framework group  C1[X(C8H16Cl3FeO)]
 Deg. of freedom    81
                         Standard orientation:                         
 ---------------------------------------------------------------------
 Center     Atomic      Atomic             Coordinates (Angstroms)
 Number     Number       Type             X           Y           Z
 ---------------------------------------------------------------------
      1          8           0       -0.334913   -0.275443   -0.612611
      2          6           0       -1.401605   -1.190021   -0.438451
      3          6           0       -2.773941   -0.149434   -0.128010
      4          6           0       -2.050784    1.133492   -0.247609
      5          6           0       -1.942461    1.815983   -1.551792
      6         26           0        1.374471    0.034865    0.025054
      7         17           0        1.737544    2.079869   -0.780953
      8          6           0       -1.570320    1.852770    0.946671
      9         17           0        2.690141   -1.570890   -0.686793
     10         17           0        1.240259    0.102047    2.250357
     11          1           0       -3.440614   -0.279846   -0.984075
     12          1           0       -2.451734    2.356646    1.379442
     13          1           0       -1.181247    1.177336    1.712473
     14          1           0       -0.817652    2.603385    0.699811
     15          1           0       -2.608382    2.694534   -1.511865
     16          1           0       -0.922336    2.193185   -1.688907
     17          1           0       -2.240729    1.185471   -2.389626
     18          6           0       -3.509764   -0.413838    1.179731
     19          1           0       -4.325908    0.304158    1.322349
     20          1           0       -3.952724   -1.413057    1.156799
     21          1           0       -2.853733   -0.360627    2.051116
     22          6           0       -1.154761   -2.135743    0.720882
     23          1           0       -1.987306   -2.830668    0.864908
     24          1           0       -0.257919   -2.720518    0.481992
     25          1           0       -0.954840   -1.601321    1.651040
     26          6           0       -1.651523   -1.924452   -1.744915
     27          1           0       -0.757278   -2.510091   -1.985939
     28          1           0       -2.509366   -2.601294   -1.668671
     29          1           0       -1.819268   -1.220206   -2.564802
 ---------------------------------------------------------------------
 Rotational constants (GHZ):           0.5733986           0.3591748           0.3243099
   427 basis functions,  1056 primitive gaussians,   461 cartesian basis functions
    77 alpha electrons       72 beta electrons
       nuclear repulsion energy      1658.0165871441 Hartrees.
 NAtoms=   29 NActive=   29 NUniq=   29 SFac= 1.00D+00 NAtFMM=   60 NAOKFM=F Big=F
 Initial guess from the checkpoint file:  "checkpoint.chk"
 B after Tr=     0.000000    0.000000    0.000000
         Rot=    1.000000    0.000000    0.000000    0.000000 Ang=   0.00 deg.
 Initial guess <Sx>= 0.0000 <Sy>= 0.0000 <Sz>= 2.5000 <S**2>= 8.7626 S= 2.5021
 SCF Done:  E(UB3LYP) =  -3034.31970892     A.U. after   13 cycles
            NFock= 13  Conv=0.10D-07     -V/T= 2.0025
 <Sx>= 0.0000 <Sy>= 0.0000 <Sz>= 2.5000 <S**2>= 8.7620 S= 2.5020
 <L.S>= 0.000000000000E+00
 Annihilation of the first spin contaminant:
 S**2 before annihilation     8.7620,   after     8.7500
 1\1\GINC-HOLY7C04510\SP\UB3LYP\Jul-CC-pVDZ\C8H16Cl3Fe1O1(6)\EKWAN\11-F
 eb-2020\0\\#t pop=none jul-cc-pvdz guess=read ub3lyp\\theory_abbreviat
 ion b3lyp\\0,6\O,0,-0.334913,-0.275443,-0.612611\C,0,-1.401605,-1.1900
 21,-0.438451\C,0,-2.773941,-0.149434,-0.12801\C,0,-2.050784,1.133492,-
 0.247609\C,0,-1.942461,1.815983,-1.551792\Fe,0,1.374471,0.034865,0.025
 054\Cl,0,1.737544,2.079869,-0.780953\C,0,-1.57032,1.85277,0.946671\Cl,
 0,2.690141,-1.57089,-0.686793\Cl,0,1.240259,0.102047,2.250357\H,0,-3.4
 40614,-0.279845,-0.984075\H,0,-2.451734,2.356646,1.379442\H,0,-1.18124
 7,1.177336,1.712473\H,0,-0.817652,2.603385,0.699811\H,0,-2.608382,2.69
 4534,-1.511865\H,0,-0.922336,2.193185,-1.688907\H,0,-2.240729,1.185471
 ,-2.389626\C,0,-3.509764,-0.413837,1.179731\H,0,-4.325908,0.304159,1.3
 22349\H,0,-3.952724,-1.413056,1.156799\H,0,-2.853733,-0.360627,2.05111
 6\C,0,-1.154761,-2.135743,0.720882\H,0,-1.987306,-2.830668,0.864908\H,
 0,-0.257919,-2.720518,0.481992\H,0,-0.95484,-1.601321,1.65104\C,0,-1.6
 51523,-1.924452,-1.744915\H,0,-0.757278,-2.510091,-1.985939\H,0,-2.509
 366,-2.601294,-1.668671\H,0,-1.819268,-1.220206,-2.564802\\Version=ES6
 4L-G16RevA.03\HF=-3034.3197089\S2=8.761983\S2-1=0.\S2A=8.750045\RMSD=9
 .952e-09\PG=C01 [X(C8H16Cl3Fe1O1)]\\@


 IF YOU GIVE A BOY AND A PIG EVERYTHING THEY WANT,
 YOU'LL GET A BAD BOY AND A GOOD PIG.
 Job cpu time:       0 days  0 hours 56 minutes 50.6 seconds.
 Elapsed time:       0 days  0 hours 14 minutes 16.0 seconds.
 File lengths (MBytes):  RWF=    174 Int=      0 D2E=      0 Chk=     13 Scr=      1
 Normal termination of Gaussian 16 at Tue Feb 11 14:13:23 2020.
 Initial command:
 /n/sw/g16_nehalem/g16/l1.exe "/scratch/Gau-323936.inp" -scrdir="/scratch/"
 Entering Link 1 = /n/sw/g16_nehalem/g16/l1.exe PID=    327808.
  
 Copyright (c) 1988,1990,1992,1993,1995,1998,2003,2009,2016,
            Gaussian, Inc.  All Rights Reserved.
  
 This is part of the Gaussian(R) 16 program.  It is based on
 the Gaussian(R) 09 system (copyright 2009, Gaussian, Inc.),
 the Gaussian(R) 03 system (copyright 2003, Gaussian, Inc.),
 the Gaussian(R) 98 system (copyright 1998, Gaussian, Inc.),
 the Gaussian(R) 94 system (copyright 1995, Gaussian, Inc.),
 the Gaussian 92(TM) system (copyright 1992, Gaussian, Inc.),
 the Gaussian 90(TM) system (copyright 1990, Gaussian, Inc.),
 the Gaussian 88(TM) system (copyright 1988, Gaussian, Inc.),
 the Gaussian 86(TM) system (copyright 1986, Carnegie Mellon
 University), and the Gaussian 82(TM) system (copyright 1983,
 Carnegie Mellon University). Gaussian is a federally registered
 trademark of Gaussian, Inc.
  
 This software contains proprietary and confidential information,
 including trade secrets, belonging to Gaussian, Inc.
  
 This software is provided under written license and may be
 used, copied, transmitted, or stored only in accord with that
 written license.
  
 The following legend is applicable only to US Government
 contracts under FAR:
  
                    RESTRICTED RIGHTS LEGEND
  
 Use, reproduction and disclosure by the US Government is
 subject to restrictions as set forth in subparagraphs (a)
 and (c) of the Commercial Computer Software - Restricted
 Rights clause in FAR 52.227-19.
  
 Gaussian, Inc.
 340 Quinnipiac St., Bldg. 40, Wallingford CT 06492
  
  
 ---------------------------------------------------------------
 Warning -- This program may not be used in any manner that
 competes with the business of Gaussian, Inc. or will provide
 assistance to any competitor of Gaussian, Inc.  The licensee
 of this program is prohibited from giving any competitor of
 Gaussian, Inc. access to this program.  By using this program,
 the user acknowledges that Gaussian, Inc. is engaged in the
 business of creating and licensing software in the field of
 computational chemistry and represents and warrants to the
 licensee that it is not a competitor of Gaussian, Inc. and that
 it will not use this program in any manner prohibited above.
 ---------------------------------------------------------------
  

 Cite this work as:
 Gaussian 16, Revision A.03,
 M. J. Frisch, G. W. Trucks, H. B. Schlegel, G. E. Scuseria, 
 M. A. Robb, J. R. Cheeseman, G. Scalmani, V. Barone, 
 G. A. Petersson, H. Nakatsuji, X. Li, M. Caricato, A. V. Marenich, 
 J. Bloino, B. G. Janesko, R. Gomperts, B. Mennucci, H. P. Hratchian, 
 J. V. Ortiz, A. F. Izmaylov, J. L. Sonnenberg, D. Williams-Young, 
 F. Ding, F. Lipparini, F. Egidi, J. Goings, B. Peng, A. Petrone, 
 T. Henderson, D. Ranasinghe, V. G. Zakrzewski, J. Gao, N. Rega, 
 G. Zheng, W. Liang, M. Hada, M. Ehara, K. Toyota, R. Fukuda, 
 J. Hasegawa, M. Ishida, T. Nakajima, Y. Honda, O. Kitao, H. Nakai, 
 T. Vreven, K. Throssell, J. A. Montgomery, Jr., J. E. Peralta, 
 F. Ogliaro, M. J. Bearpark, J. J. Heyd, E. N. Brothers, K. N. Kudin, 
 V. N. Staroverov, T. A. Keith, R. Kobayashi, J. Normand, 
 K. Raghavachari, A. P. Rendell, J. C. Burant, S. S. Iyengar, 
 J. Tomasi, M. Cossi, J. M. Millam, M. Klene, C. Adamo, R. Cammi, 
 J. W. Ochterski, R. L. Martin, K. Morokuma, O. Farkas, 
 J. B. Foresman, and D. J. Fox, Gaussian, Inc., Wallingford CT, 2016.
 
 ******************************************
 Gaussian 16:  ES64L-G16RevA.03 25-Dec-2016
                11-Feb-2020 
 ******************************************
 %chk=checkpoint.chk
 %mem=3GB
 %nprocshared=4
 Will use up to    4 processors via shared memory.
 -------------------------------------------------------------------
 #t pop=none jul-cc-pvdz guess=read ub3lyp empiricaldispersion=gd3bj
 -------------------------------------------------------------------
 ------------------------------
 theory_abbreviation b3lyp_d3bj
 ------------------------------
 Symbolic Z-matrix:
 Charge =  0 Multiplicity = 6
 O                    -0.33491  -0.27544  -0.61261 
 C                    -1.40161  -1.19002  -0.43845 
 C                    -2.77394  -0.14943  -0.12801 
 C                    -2.05078   1.13349  -0.24761 
 C                    -1.94246   1.81598  -1.55179 
 Fe                    1.37447   0.03487   0.02505 
 Cl                    1.73754   2.07987  -0.78095 
 C                    -1.57032   1.85277   0.94667 
 Cl                    2.69014  -1.57089  -0.68679 
 Cl                    1.24026   0.10205   2.25036 
 H                    -3.44061  -0.27985  -0.98408 
 H                    -2.45173   2.35665   1.37944 
 H                    -1.18125   1.17734   1.71247 
 H                    -0.81765   2.60339   0.69981 
 H                    -2.60838   2.69453  -1.51187 
 H                    -0.92234   2.19319  -1.68891 
 H                    -2.24073   1.18547  -2.38963 
 C                    -3.50976  -0.41384   1.17973 
 H                    -4.32591   0.30416   1.32235 
 H                    -3.95272  -1.41306   1.1568 
 H                    -2.85373  -0.36063   2.05112 
 C                    -1.15476  -2.13574   0.72088 
 H                    -1.98731  -2.83067   0.86491 
 H                    -0.25792  -2.72052   0.48199 
 H                    -0.95484  -1.60132   1.65104 
 C                    -1.65152  -1.92445  -1.74492 
 H                    -0.75728  -2.51009  -1.98594 
 H                    -2.50937  -2.60129  -1.66867 
 H                    -1.81927  -1.22021  -2.5648 
 
                    Distance matrix (angstroms):
                    1          2          3          4          5
     1  O    0.000000
     2  C    1.415845   0.000000
     3  C    2.489894   1.750000   0.000000
     4  C    2.250008   2.420034   1.477552   0.000000
     5  C    2.800060   3.250863   2.565420   1.475948   0.000000
     6  Fe   1.850649   3.069492   4.155324   3.607450   4.081772
     7  Cl   3.141801   4.545739   5.074409   3.941004   3.769120
     8  C    2.913225   3.347477   2.571471   1.474622   2.526294
     9  Cl   3.291601   4.116931   5.673532   5.475667   5.803459
    10  Cl   3.289415   3.984793   4.672652   4.258483   5.246296
    11  H    3.127840   2.298626   1.092844   2.114600   2.638041
    12  H    3.921364   4.121450   2.942221   2.074647   3.023873
    13  H    2.869297   3.206152   2.772070   2.144747   3.412146
    14  H    3.200490   4.003320   3.477120   2.139814   2.637217
    15  H    3.846828   4.206934   3.167115   2.084733   1.103130
    16  H    2.756375   3.638602   3.369377   2.115109   1.096238
    17  H    2.987338   3.186562   2.679775   2.151050   1.090172
    18  C    3.648468   2.768629   1.523657   2.561279   3.858724
    19  H    4.473036   3.726196   2.172070   2.885957   4.028290
    20  H    4.184917   3.017081   2.153370   3.474859   4.669509
    21  H    3.667036   2.999086   2.190790   2.856791   4.306854
    22  C    2.431269   1.516369   2.699590   3.525440   4.626192
    23  H    3.382697   2.175664   2.965417   4.117801   5.237730
    24  H    2.680014   2.120767   3.648690   4.312780   5.249171
    25  H    2.695622   2.175946   2.929526   3.505020   4.786595
    26  C    2.394745   1.519439   2.650451   3.428171   3.756700
    27  H    2.656704   2.133650   3.618222   4.239180   4.506446
    28  H    3.354563   2.175377   2.907792   4.022231   4.455040
    29  H    2.628105   2.167192   2.827704   3.311024   3.203094
                    6          7          8          9         10
     6  Fe   0.000000
     7  Cl   2.227894   0.000000
     8  C    3.581334   3.738746   0.000000
     9  Cl   2.194576   3.774169   5.704488   0.000000
    10  Cl   2.230359   3.653480   3.558649   3.678006   0.000000
    11  H    4.929749   5.694105   3.431301   6.272267   5.702452
    12  H    4.675990   4.721648   1.103663   6.792183   4.412768
    13  H    3.268687   3.943486   1.092722   5.319480   2.703564
    14  H    3.443544   2.999293   1.091271   5.625998   3.591084
    15  H    5.029819   4.449620   2.798310   6.851929   5.973888
    16  H    3.587664   2.812860   2.735331   5.312484   4.956559
    17  H    4.497137   4.383427   3.467797   5.900055   5.900892
    18  C    5.038885   6.131647   2.992201   6.577348   4.896437
    19  H    5.852334   6.659015   3.183174   7.535078   5.646615
    20  H    5.635275   6.952306   4.047916   6.895752   5.518920
    21  H    4.705215   5.920850   2.786768   6.300430   4.124868
    22  C    3.404810   5.328445   4.016454   4.133265   3.617059
    23  H    4.496463   6.379400   4.702675   5.086583   4.575747
    24  H    3.235062   5.349824   4.780511   3.373242   3.652195
    25  H    3.278205   5.168625   3.578505   4.330390   2.842376
    26  C    4.016012   5.333815   4.638818   4.482708   5.332101
    27  H    3.881398   5.361330   5.319379   3.801917   5.362800
    28  H    4.990213   6.382599   5.249810   5.390797   6.060241
    29  H    4.299131   5.169480   4.672858   4.897414   5.856177
                   11         12         13         14         15
    11  H    0.000000
    12  H    3.676300   0.000000
    13  H    3.807819   1.765168   0.000000
    14  H    4.245988   1.786897   1.786421   0.000000
    15  H    3.133385   2.915195   3.838614   2.847197   0.000000
    16  H    3.599221   3.432280   3.559265   2.425942   1.767893
    17  H    2.358484   3.952474   4.236719   3.685139   1.784070
    18  C    2.169053   2.972354   2.870128   4.072029   4.209412
    19  H    2.538582   2.780016   3.286872   4.240502   4.086142
    20  H    2.475836   4.063643   3.834056   5.115595   5.079500
    21  H    3.092465   2.827777   2.297220   3.841486   4.699898
    22  C    3.402405   4.722012   3.458388   4.751149   5.516317
    23  H    3.469516   5.233418   4.175188   5.560960   6.046705
    24  H    4.270338   5.603199   4.190452   5.357676   6.230805
    25  H    3.856060   4.240278   2.788542   4.313144   5.585028
    26  C    2.546460   5.360013   4.668595   5.212805   4.722809
    27  H    3.630154   6.154844   5.239763   5.776204   5.544317
    28  H    2.593264   5.820265   5.241572   5.963245   5.299074
    29  H    2.451885   5.361991   4.944731   5.126478   4.129960
                   16         17         18         19         20
    16  H    0.000000
    17  H    1.801293   0.000000
    18  C    4.660518   4.112000   0.000000
    19  H    4.921421   4.347809   1.096334   0.000000
    20  H    5.503296   4.718093   1.093242   1.765078   0.000000
    21  H    4.923416   4.741981   1.092026   1.772101   1.764990
    22  C    4.959911   4.678146   2.953226   4.046116   2.922481
    23  H    5.735436   5.175479   2.873685   3.937696   2.440838
    24  H    5.412830   5.237793   4.047482   5.138424   3.976984
    25  H    5.055154   5.074121   2.856552   3.886257   3.044179
    26  C    4.182079   3.230238   3.780023   4.639736   3.738582
    27  H    4.715536   4.002595   4.689555   5.621378   4.614235
    28  H    5.050357   3.864134   3.728157   4.548371   3.387989
    29  H    3.636333   2.448591   4.186829   4.869997   4.294082
                   21         22         23         24         25
    21  H    0.000000
    22  C    2.794113   0.000000
    23  H    2.873828   1.093981   0.000000
    24  H    3.843109   1.096976   1.774694   0.000000
    25  H    2.303297   1.091224   1.787536   1.762094   0.000000
    26  C    4.277933   2.524197   2.783012   2.744990   3.481708
    27  H    5.031216   2.761342   3.121389   2.526722   3.753999
    28  H    4.356144   2.785975   2.596956   3.115859   3.799602
    29  H    4.807878   3.474982   3.792721   3.737874   4.320394
                   26         27         28         29
    26  C    0.000000
    27  H    1.095783   0.000000
    28  H    1.095364   1.782916   0.000000
    29  H    1.093762   1.768250   1.785130   0.000000
 Framework group  C1[X(C8H16Cl3FeO)]
 Deg. of freedom    81
                         Standard orientation:                         
 ---------------------------------------------------------------------
 Center     Atomic      Atomic             Coordinates (Angstroms)
 Number     Number       Type             X           Y           Z
 ---------------------------------------------------------------------
      1          8           0       -0.334913   -0.275443   -0.612611
      2          6           0       -1.401605   -1.190021   -0.438451
      3          6           0       -2.773941   -0.149434   -0.128010
      4          6           0       -2.050784    1.133492   -0.247609
      5          6           0       -1.942461    1.815983   -1.551792
      6         26           0        1.374471    0.034865    0.025054
      7         17           0        1.737544    2.079869   -0.780953
      8          6           0       -1.570320    1.852770    0.946671
      9         17           0        2.690141   -1.570890   -0.686793
     10         17           0        1.240259    0.102047    2.250357
     11          1           0       -3.440614   -0.279846   -0.984075
     12          1           0       -2.451734    2.356646    1.379442
     13          1           0       -1.181247    1.177336    1.712473
     14          1           0       -0.817652    2.603385    0.699811
     15          1           0       -2.608382    2.694534   -1.511865
     16          1           0       -0.922336    2.193185   -1.688907
     17          1           0       -2.240729    1.185471   -2.389626
     18          6           0       -3.509764   -0.413838    1.179731
     19          1           0       -4.325908    0.304158    1.322349
     20          1           0       -3.952724   -1.413057    1.156799
     21          1           0       -2.853733   -0.360627    2.051116
     22          6           0       -1.154761   -2.135743    0.720882
     23          1           0       -1.987306   -2.830668    0.864908
     24          1           0       -0.257919   -2.720518    0.481992
     25          1           0       -0.954840   -1.601321    1.651040
     26          6           0       -1.651523   -1.924452   -1.744915
     27          1           0       -0.757278   -2.510091   -1.985939
     28          1           0       -2.509366   -2.601294   -1.668671
     29          1           0       -1.819268   -1.220206   -2.564802
 ---------------------------------------------------------------------
 Rotational constants (GHZ):           0.5733986           0.3591748           0.3243099
   427 basis functions,  1056 primitive gaussians,   461 cartesian basis functions
    77 alpha electrons       72 beta electrons
       nuclear repulsion energy      1658.0165871441 Hartrees.
 NAtoms=   29 NActive=   29 NUniq=   29 SFac= 1.00D+00 NAtFMM=   60 NAOKFM=F Big=F
 Nuclear repulsion after empirical dispersion term =     1657.9477346833 Hartrees.
 Initial guess from the checkpoint file:  "checkpoint.chk"
 B after Tr=     0.000000    0.000000    0.000000
         Rot=    1.000000    0.000000    0.000000    0.000000 Ang=   0.00 deg.
 Initial guess <Sx>= 0.0000 <Sy>= 0.0000 <Sz>= 2.5000 <S**2>= 8.7620 S= 2.5020
 SCF Done:  E(UB3LYP) =  -3034.38856138     A.U. after    1 cycles
            NFock=  1  Conv=0.61D-08     -V/T= 2.0025
 <Sx>= 0.0000 <Sy>= 0.0000 <Sz>= 2.5000 <S**2>= 8.7620 S= 2.5020
 <L.S>= 0.000000000000E+00
 Annihilation of the first spin contaminant:
 S**2 before annihilation     8.7620,   after     8.7500
 1\1\GINC-HOLY7C04510\SP\UB3LYP\Jul-CC-pVDZ\C8H16Cl3Fe1O1(6)\EKWAN\11-F
 eb-2020\0\\#t pop=none jul-cc-pvdz guess=read ub3lyp empiricaldispersi
 on=gd3bj\\theory_abbreviation b3lyp_d3bj\\0,6\O,0,-0.334913,-0.275443,
 -0.612611\C,0,-1.401605,-1.190021,-0.438451\C,0,-2.773941,-0.149434,-0
 .12801\C,0,-2.050784,1.133492,-0.247609\C,0,-1.942461,1.815983,-1.5517
 92\Fe,0,1.374471,0.034865,0.025054\Cl,0,1.737544,2.079869,-0.780953\C,
 0,-1.57032,1.85277,0.946671\Cl,0,2.690141,-1.57089,-0.686793\Cl,0,1.24
 0259,0.102047,2.250357\H,0,-3.440614,-0.279845,-0.984075\H,0,-2.451734
 ,2.356646,1.379442\H,0,-1.181247,1.177336,1.712473\H,0,-0.817652,2.603
 385,0.699811\H,0,-2.608382,2.694534,-1.511865\H,0,-0.922336,2.193185,-
 1.688907\H,0,-2.240729,1.185471,-2.389626\C,0,-3.509764,-0.413837,1.17
 9731\H,0,-4.325908,0.304159,1.322349\H,0,-3.952724,-1.413056,1.156799\
 H,0,-2.853733,-0.360627,2.051116\C,0,-1.154761,-2.135743,0.720882\H,0,
 -1.987306,-2.830668,0.864908\H,0,-0.257919,-2.720518,0.481992\H,0,-0.9
 5484,-1.601321,1.65104\C,0,-1.651523,-1.924452,-1.744915\H,0,-0.757278
 ,-2.510091,-1.985939\H,0,-2.509366,-2.601294,-1.668671\H,0,-1.819268,-
 1.220206,-2.564802\\Version=ES64L-G16RevA.03\HF=-3034.3885614\S2=8.761
 983\S2-1=0.\S2A=8.750045\RMSD=6.117e-09\PG=C01 [X(C8H16Cl3Fe1O1)]\\@


 E PUR SI MUOVE    -- GALILEO GALILEI
 Job cpu time:       0 days  0 hours  5 minutes  6.0 seconds.
 Elapsed time:       0 days  0 hours  1 minutes 19.2 seconds.
 File lengths (MBytes):  RWF=    170 Int=      0 D2E=      0 Chk=     13 Scr=      1
 Normal termination of Gaussian 16 at Tue Feb 11 14:14:43 2020.
 Initial command:
 /n/sw/g16_nehalem/g16/l1.exe "/scratch/Gau-323936.inp" -scrdir="/scratch/"
 Entering Link 1 = /n/sw/g16_nehalem/g16/l1.exe PID=    327902.
  
 Copyright (c) 1988,1990,1992,1993,1995,1998,2003,2009,2016,
            Gaussian, Inc.  All Rights Reserved.
  
 This is part of the Gaussian(R) 16 program.  It is based on
 the Gaussian(R) 09 system (copyright 2009, Gaussian, Inc.),
 the Gaussian(R) 03 system (copyright 2003, Gaussian, Inc.),
 the Gaussian(R) 98 system (copyright 1998, Gaussian, Inc.),
 the Gaussian(R) 94 system (copyright 1995, Gaussian, Inc.),
 the Gaussian 92(TM) system (copyright 1992, Gaussian, Inc.),
 the Gaussian 90(TM) system (copyright 1990, Gaussian, Inc.),
 the Gaussian 88(TM) system (copyright 1988, Gaussian, Inc.),
 the Gaussian 86(TM) system (copyright 1986, Carnegie Mellon
 University), and the Gaussian 82(TM) system (copyright 1983,
 Carnegie Mellon University). Gaussian is a federally registered
 trademark of Gaussian, Inc.
  
 This software contains proprietary and confidential information,
 including trade secrets, belonging to Gaussian, Inc.
  
 This software is provided under written license and may be
 used, copied, transmitted, or stored only in accord with that
 written license.
  
 The following legend is applicable only to US Government
 contracts under FAR:
  
                    RESTRICTED RIGHTS LEGEND
  
 Use, reproduction and disclosure by the US Government is
 subject to restrictions as set forth in subparagraphs (a)
 and (c) of the Commercial Computer Software - Restricted
 Rights clause in FAR 52.227-19.
  
 Gaussian, Inc.
 340 Quinnipiac St., Bldg. 40, Wallingford CT 06492
  
  
 ---------------------------------------------------------------
 Warning -- This program may not be used in any manner that
 competes with the business of Gaussian, Inc. or will provide
 assistance to any competitor of Gaussian, Inc.  The licensee
 of this program is prohibited from giving any competitor of
 Gaussian, Inc. access to this program.  By using this program,
 the user acknowledges that Gaussian, Inc. is engaged in the
 business of creating and licensing software in the field of
 computational chemistry and represents and warrants to the
 licensee that it is not a competitor of Gaussian, Inc. and that
 it will not use this program in any manner prohibited above.
 ---------------------------------------------------------------
  

 Cite this work as:
 Gaussian 16, Revision A.03,
 M. J. Frisch, G. W. Trucks, H. B. Schlegel, G. E. Scuseria, 
 M. A. Robb, J. R. Cheeseman, G. Scalmani, V. Barone, 
 G. A. Petersson, H. Nakatsuji, X. Li, M. Caricato, A. V. Marenich, 
 J. Bloino, B. G. Janesko, R. Gomperts, B. Mennucci, H. P. Hratchian, 
 J. V. Ortiz, A. F. Izmaylov, J. L. Sonnenberg, D. Williams-Young, 
 F. Ding, F. Lipparini, F. Egidi, J. Goings, B. Peng, A. Petrone, 
 T. Henderson, D. Ranasinghe, V. G. Zakrzewski, J. Gao, N. Rega, 
 G. Zheng, W. Liang, M. Hada, M. Ehara, K. Toyota, R. Fukuda, 
 J. Hasegawa, M. Ishida, T. Nakajima, Y. Honda, O. Kitao, H. Nakai, 
 T. Vreven, K. Throssell, J. A. Montgomery, Jr., J. E. Peralta, 
 F. Ogliaro, M. J. Bearpark, J. J. Heyd, E. N. Brothers, K. N. Kudin, 
 V. N. Staroverov, T. A. Keith, R. Kobayashi, J. Normand, 
 K. Raghavachari, A. P. Rendell, J. C. Burant, S. S. Iyengar, 
 J. Tomasi, M. Cossi, J. M. Millam, M. Klene, C. Adamo, R. Cammi, 
 J. W. Ochterski, R. L. Martin, K. Morokuma, O. Farkas, 
 J. B. Foresman, and D. J. Fox, Gaussian, Inc., Wallingford CT, 2016.
 
 ******************************************
 Gaussian 16:  ES64L-G16RevA.03 25-Dec-2016
                11-Feb-2020 
 ******************************************
 %chk=checkpoint.chk
 %mem=3GB
 %nprocshared=4
 Will use up to    4 processors via shared memory.
 ----------------------------------------
 #t pop=none jul-cc-pvdz guess=read ub97d
 ----------------------------------------
 ------------------------
 theory_abbreviation b97d
 ------------------------
 Symbolic Z-matrix:
 Charge =  0 Multiplicity = 6
 O                    -0.33491  -0.27544  -0.61261 
 C                    -1.40161  -1.19002  -0.43845 
 C                    -2.77394  -0.14943  -0.12801 
 C                    -2.05078   1.13349  -0.24761 
 C                    -1.94246   1.81598  -1.55179 
 Fe                    1.37447   0.03487   0.02505 
 Cl                    1.73754   2.07987  -0.78095 
 C                    -1.57032   1.85277   0.94667 
 Cl                    2.69014  -1.57089  -0.68679 
 Cl                    1.24026   0.10205   2.25036 
 H                    -3.44061  -0.27985  -0.98408 
 H                    -2.45173   2.35665   1.37944 
 H                    -1.18125   1.17734   1.71247 
 H                    -0.81765   2.60339   0.69981 
 H                    -2.60838   2.69453  -1.51187 
 H                    -0.92234   2.19319  -1.68891 
 H                    -2.24073   1.18547  -2.38963 
 C                    -3.50976  -0.41384   1.17973 
 H                    -4.32591   0.30416   1.32235 
 H                    -3.95272  -1.41306   1.1568 
 H                    -2.85373  -0.36063   2.05112 
 C                    -1.15476  -2.13574   0.72088 
 H                    -1.98731  -2.83067   0.86491 
 H                    -0.25792  -2.72052   0.48199 
 H                    -0.95484  -1.60132   1.65104 
 C                    -1.65152  -1.92445  -1.74492 
 H                    -0.75728  -2.51009  -1.98594 
 H                    -2.50937  -2.60129  -1.66867 
 H                    -1.81927  -1.22021  -2.5648 
 
                    Distance matrix (angstroms):
                    1          2          3          4          5
     1  O    0.000000
     2  C    1.415845   0.000000
     3  C    2.489894   1.750000   0.000000
     4  C    2.250008   2.420034   1.477552   0.000000
     5  C    2.800060   3.250863   2.565420   1.475948   0.000000
     6  Fe   1.850649   3.069492   4.155324   3.607450   4.081772
     7  Cl   3.141801   4.545739   5.074409   3.941004   3.769120
     8  C    2.913225   3.347477   2.571471   1.474622   2.526294
     9  Cl   3.291601   4.116931   5.673532   5.475667   5.803459
    10  Cl   3.289415   3.984793   4.672652   4.258483   5.246296
    11  H    3.127840   2.298626   1.092844   2.114600   2.638041
    12  H    3.921364   4.121450   2.942221   2.074647   3.023873
    13  H    2.869297   3.206152   2.772070   2.144747   3.412146
    14  H    3.200490   4.003320   3.477120   2.139814   2.637217
    15  H    3.846828   4.206934   3.167115   2.084733   1.103130
    16  H    2.756375   3.638602   3.369377   2.115109   1.096238
    17  H    2.987338   3.186562   2.679775   2.151050   1.090172
    18  C    3.648468   2.768629   1.523657   2.561279   3.858724
    19  H    4.473036   3.726196   2.172070   2.885957   4.028290
    20  H    4.184917   3.017081   2.153370   3.474859   4.669509
    21  H    3.667036   2.999086   2.190790   2.856791   4.306854
    22  C    2.431269   1.516369   2.699590   3.525440   4.626192
    23  H    3.382697   2.175664   2.965417   4.117801   5.237730
    24  H    2.680014   2.120767   3.648690   4.312780   5.249171
    25  H    2.695622   2.175946   2.929526   3.505020   4.786595
    26  C    2.394745   1.519439   2.650451   3.428171   3.756700
    27  H    2.656704   2.133650   3.618222   4.239180   4.506446
    28  H    3.354563   2.175377   2.907792   4.022231   4.455040
    29  H    2.628105   2.167192   2.827704   3.311024   3.203094
                    6          7          8          9         10
     6  Fe   0.000000
     7  Cl   2.227894   0.000000
     8  C    3.581334   3.738746   0.000000
     9  Cl   2.194576   3.774169   5.704488   0.000000
    10  Cl   2.230359   3.653480   3.558649   3.678006   0.000000
    11  H    4.929749   5.694105   3.431301   6.272267   5.702452
    12  H    4.675990   4.721648   1.103663   6.792183   4.412768
    13  H    3.268687   3.943486   1.092722   5.319480   2.703564
    14  H    3.443544   2.999293   1.091271   5.625998   3.591084
    15  H    5.029819   4.449620   2.798310   6.851929   5.973888
    16  H    3.587664   2.812860   2.735331   5.312484   4.956559
    17  H    4.497137   4.383427   3.467797   5.900055   5.900892
    18  C    5.038885   6.131647   2.992201   6.577348   4.896437
    19  H    5.852334   6.659015   3.183174   7.535078   5.646615
    20  H    5.635275   6.952306   4.047916   6.895752   5.518920
    21  H    4.705215   5.920850   2.786768   6.300430   4.124868
    22  C    3.404810   5.328445   4.016454   4.133265   3.617059
    23  H    4.496463   6.379400   4.702675   5.086583   4.575747
    24  H    3.235062   5.349824   4.780511   3.373242   3.652195
    25  H    3.278205   5.168625   3.578505   4.330390   2.842376
    26  C    4.016012   5.333815   4.638818   4.482708   5.332101
    27  H    3.881398   5.361330   5.319379   3.801917   5.362800
    28  H    4.990213   6.382599   5.249810   5.390797   6.060241
    29  H    4.299131   5.169480   4.672858   4.897414   5.856177
                   11         12         13         14         15
    11  H    0.000000
    12  H    3.676300   0.000000
    13  H    3.807819   1.765168   0.000000
    14  H    4.245988   1.786897   1.786421   0.000000
    15  H    3.133385   2.915195   3.838614   2.847197   0.000000
    16  H    3.599221   3.432280   3.559265   2.425942   1.767893
    17  H    2.358484   3.952474   4.236719   3.685139   1.784070
    18  C    2.169053   2.972354   2.870128   4.072029   4.209412
    19  H    2.538582   2.780016   3.286872   4.240502   4.086142
    20  H    2.475836   4.063643   3.834056   5.115595   5.079500
    21  H    3.092465   2.827777   2.297220   3.841486   4.699898
    22  C    3.402405   4.722012   3.458388   4.751149   5.516317
    23  H    3.469516   5.233418   4.175188   5.560960   6.046705
    24  H    4.270338   5.603199   4.190452   5.357676   6.230805
    25  H    3.856060   4.240278   2.788542   4.313144   5.585028
    26  C    2.546460   5.360013   4.668595   5.212805   4.722809
    27  H    3.630154   6.154844   5.239763   5.776204   5.544317
    28  H    2.593264   5.820265   5.241572   5.963245   5.299074
    29  H    2.451885   5.361991   4.944731   5.126478   4.129960
                   16         17         18         19         20
    16  H    0.000000
    17  H    1.801293   0.000000
    18  C    4.660518   4.112000   0.000000
    19  H    4.921421   4.347809   1.096334   0.000000
    20  H    5.503296   4.718093   1.093242   1.765078   0.000000
    21  H    4.923416   4.741981   1.092026   1.772101   1.764990
    22  C    4.959911   4.678146   2.953226   4.046116   2.922481
    23  H    5.735436   5.175479   2.873685   3.937696   2.440838
    24  H    5.412830   5.237793   4.047482   5.138424   3.976984
[...]
 ---------------------------------------------------------------------
 Rotational constants (GHZ):           0.5733986           0.3591748           0.3243099
   427 basis functions,  1056 primitive gaussians,   461 cartesian basis functions
    77 alpha electrons       72 beta electrons
       nuclear repulsion energy      1658.0165871441 Hartrees.
 NAtoms=   29 NActive=   29 NUniq=   29 SFac= 1.00D+00 NAtFMM=   60 NAOKFM=F Big=F
 Nuclear repulsion after empirical dispersion term =     1658.0141711812 Hartrees.
 Initial guess from the checkpoint file:  "checkpoint.chk"
 B after Tr=     0.000000    0.000000    0.000000
         Rot=    1.000000    0.000000    0.000000    0.000000 Ang=   0.00 deg.
 Initial guess <Sx>= 0.0000 <Sy>= 0.0000 <Sz>= 2.5000 <S**2>= 8.7617 S= 2.5019
 SCF Done:  E(UM06L) =  -3034.18404186     A.U. after   18 cycles
            NFock= 18  Conv=0.27D-08     -V/T= 2.0021
 <Sx>= 0.0000 <Sy>= 0.0000 <Sz>= 2.5000 <S**2>= 8.7622 S= 2.5020
 <L.S>= 0.000000000000E+00
 Annihilation of the first spin contaminant:
 S**2 before annihilation     8.7622,   after     8.7500
 1\1\GINC-HOLY7C04510\SP\UM06L\Jul-CC-pVDZ\C8H16Cl3Fe1O1(6)\EKWAN\11-Fe
 b-2020\0\\#t pop=none jul-cc-pvdz guess=read um06l empiricaldispersion
 =gd3\\theory_abbreviation m06l_d3\\0,6\O,0,-0.334913,-0.275443,-0.6126
 11\C,0,-1.401605,-1.190021,-0.438451\C,0,-2.773941,-0.149434,-0.12801\
 C,0,-2.050784,1.133492,-0.247609\C,0,-1.942461,1.815983,-1.551792\Fe,0
 ,1.374471,0.034865,0.025054\Cl,0,1.737544,2.079869,-0.780953\C,0,-1.57
 032,1.85277,0.946671\Cl,0,2.690141,-1.57089,-0.686793\Cl,0,1.240259,0.
 102047,2.250357\H,0,-3.440614,-0.279845,-0.984075\H,0,-2.451734,2.3566
 46,1.379442\H,0,-1.181247,1.177336,1.712473\H,0,-0.817652,2.603385,0.6
 99811\H,0,-2.608382,2.694534,-1.511865\H,0,-0.922336,2.193185,-1.68890
 7\H,0,-2.240729,1.185471,-2.389626\C,0,-3.509764,-0.413837,1.179731\H,
 0,-4.325908,0.304159,1.322349\H,0,-3.952724,-1.413056,1.156799\H,0,-2.
 853733,-0.360627,2.051116\C,0,-1.154761,-2.135743,0.720882\H,0,-1.9873
 06,-2.830668,0.864908\H,0,-0.257919,-2.720518,0.481992\H,0,-0.95484,-1
 .601321,1.65104\C,0,-1.651523,-1.924452,-1.744915\H,0,-0.757278,-2.510
 091,-1.985939\H,0,-2.509366,-2.601294,-1.668671\H,0,-1.819268,-1.22020
 6,-2.564802\\Version=ES64L-G16RevA.03\HF=-3034.1840419\S2=8.762189\S2-
 1=0.\S2A=8.750048\RMSD=2.738e-09\PG=C01 [X(C8H16Cl3Fe1O1)]\\@


 ERROR IS A HARDY PLANT... IT FLOURISHETH IN EVERY SOIL.
            MARTIN FARQUHAR TUPPER
 Job cpu time:       0 days  1 hours 21 minutes 25.1 seconds.
 Elapsed time:       0 days  0 hours 20 minutes 26.8 seconds.
 File lengths (MBytes):  RWF=    174 Int=      0 D2E=      0 Chk=     13 Scr=      1
 Normal termination of Gaussian 16 at Tue Feb 11 23:20:01 2020.
 Initial command:
 /n/sw/g16_nehalem/g16/l1.exe "/scratch/Gau-323936.inp" -scrdir="/scratch/"
 Entering Link 1 = /n/sw/g16_nehalem/g16/l1.exe PID=    380029.
  
 Copyright (c) 1988,1990,1992,1993,1995,1998,2003,2009,2016,
            Gaussian, Inc.  All Rights Reserved.
  
 This is part of the Gaussian(R) 16 program.  It is based on
 the Gaussian(R) 09 system (copyright 2009, Gaussian, Inc.),
 the Gaussian(R) 03 system (copyright 2003, Gaussian, Inc.),
 the Gaussian(R) 98 system (copyright 1998, Gaussian, Inc.),
 the Gaussian(R) 94 system (copyright 1995, Gaussian, Inc.),
 the Gaussian 92(TM) system (copyright 1992, Gaussian, Inc.),
 the Gaussian 90(TM) system (copyright 1990, Gaussian, Inc.),
 the Gaussian 88(TM) system (copyright 1988, Gaussian, Inc.),
 the Gaussian 86(TM) system (copyright 1986, Carnegie Mellon
 University), and the Gaussian 82(TM) system (copyright 1983,
 Carnegie Mellon University). Gaussian is a federally registered
 trademark of Gaussian, Inc.
  
 This software contains proprietary and confidential information,
 including trade secrets, belonging to Gaussian, Inc.
  
 This software is provided under written license and may be
 used, copied, transmitted, or stored only in accord with that
 written license.
  
 The following legend is applicable only to US Government
 contracts under FAR:
  
                    RESTRICTED RIGHTS LEGEND
  
 Use, reproduction and disclosure by the US Government is
 subject to restrictions as set forth in subparagraphs (a)
 and (c) of the Commercial Computer Software - Restricted
 Rights clause in FAR 52.227-19.
  
 Gaussian, Inc.
 340 Quinnipiac St., Bldg. 40, Wallingford CT 06492
  
  
 ---------------------------------------------------------------
 Warning -- This program may not be used in any manner that
 competes with the business of Gaussian, Inc. or will provide
 assistance to any competitor of Gaussian, Inc.  The licensee
 of this program is prohibited from giving any competitor of
 Gaussian, Inc. access to this program.  By using this program,
 the user acknowledges that Gaussian, Inc. is engaged in the
 business of creating and licensing software in the field of
 computational chemistry and represents and warrants to the
 licensee that it is not a competitor of Gaussian, Inc. and that
 it will not use this program in any manner prohibited above.
 ---------------------------------------------------------------
  

 Cite this work as:
 Gaussian 16, Revision A.03,
 M. J. Frisch, G. W. Trucks, H. B. Schlegel, G. E. Scuseria, 
 M. A. Robb, J. R. Cheeseman, G. Scalmani, V. Barone, 
 G. A. Petersson, H. Nakatsuji, X. Li, M. Caricato, A. V. Marenich, 
 J. Bloino, B. G. Janesko, R. Gomperts, B. Mennucci, H. P. Hratchian, 
 J. V. Ortiz, A. F. Izmaylov, J. L. Sonnenberg, D. Williams-Young, 
 F. Ding, F. Lipparini, F. Egidi, J. Goings, B. Peng, A. Petrone, 
 T. Henderson, D. Ranasinghe, V. G. Zakrzewski, J. Gao, N. Rega, 
 G. Zheng, W. Liang, M. Hada, M. Ehara, K. Toyota, R. Fukuda, 
 J. Hasegawa, M. Ishida, T. Nakajima, Y. Honda, O. Kitao, H. Nakai, 
 T. Vreven, K. Throssell, J. A. Montgomery, Jr., J. E. Peralta, 
 F. Ogliaro, M. J. Bearpark, J. J. Heyd, E. N. Brothers, K. N. Kudin, 
 V. N. Staroverov, T. A. Keith, R. Kobayashi, J. Normand, 
 K. Raghavachari, A. P. Rendell, J. C. Burant, S. S. Iyengar, 
 J. Tomasi, M. Cossi, J. M. Millam, M. Klene, C. Adamo, R. Cammi, 
 J. W. Ochterski, R. L. Martin, K. Morokuma, O. Farkas, 
 J. B. Foresman, and D. J. Fox, Gaussian, Inc., Wallingford CT, 2016.
 
 ******************************************
 Gaussian 16:  ES64L-G16RevA.03 25-Dec-2016
                11-Feb-2020 
 ******************************************
 %chk=checkpoint.chk
 %mem=3GB
 %nprocshared=4
 Will use up to    4 processors via shared memory.
 -------------------------------------------------------------------
 #t pop=none jul-cc-pvdz guess=read ub97d3 empiricaldispersion=gd3bj
 -------------------------------------------------------------------
 ------------------------------
 theory_abbreviation b97d3_d3bj
 ------------------------------
 Symbolic Z-matrix:
 Charge =  0 Multiplicity = 6
 O                    -0.33491  -0.27544  -0.61261 
 C                    -1.40161  -1.19002  -0.43845 
 C                    -2.77394  -0.14943  -0.12801 
 C                    -2.05078   1.13349  -0.24761 
 C                    -1.94246   1.81598  -1.55179 
 Fe                    1.37447   0.03487   0.02505 
 Cl                    1.73754   2.07987  -0.78095 
 C                    -1.57032   1.85277   0.94667 
 Cl                    2.69014  -1.57089  -0.68679 
 Cl                    1.24026   0.10205   2.25036 
 H                    -3.44061  -0.27985  -0.98408 
 H                    -2.45173   2.35665   1.37944 
 H                    -1.18125   1.17734   1.71247 
 H                    -0.81765   2.60339   0.69981 
 H                    -2.60838   2.69453  -1.51187 
 H                    -0.92234   2.19319  -1.68891 
 H                    -2.24073   1.18547  -2.38963 
 C                    -3.50976  -0.41384   1.17973 
 H                    -4.32591   0.30416   1.32235 
 H                    -3.95272  -1.41306   1.1568 
 H                    -2.85373  -0.36063   2.05112 
 C                    -1.15476  -2.13574   0.72088 
 H                    -1.98731  -2.83067   0.86491 
 H                    -0.25792  -2.72052   0.48199 
 H                    -0.95484  -1.60132   1.65104 
 C                    -1.65152  -1.92445  -1.74492 
 H                    -0.75728  -2.51009  -1.98594 
 H                    -2.50937  -2.60129  -1.66867 
 H                    -1.81927  -1.22021  -2.5648 
 
                    Distance matrix (angstroms):
                    1          2          3          4          5
     1  O    0.000000
     2  C    1.415845   0.000000
     3  C    2.489894   1.750000   0.000000
     4  C    2.250008   2.420034   1.477552   0.000000
     5  C    2.800060   3.250863   2.565420   1.475948   0.000000
     6  Fe   1.850649   3.069492   4.155324   3.607450   4.081772
     7  Cl   3.141801   4.545739   5.074409   3.941004   3.769120
     8  C    2.913225   3.347477   2.571471   1.474622   2.526294
     9  Cl   3.291601   4.116931   5.673532   5.475667   5.803459
    10  Cl   3.289415   3.984793   4.672652   4.258483   5.246296
    11  H    3.127840   2.298626   1.092844   2.114600   2.638041
    12  H    3.921364   4.121450   2.942221   2.074647   3.023873
    13  H    2.869297   3.206152   2.772070   2.144747   3.412146
    14  H    3.200490   4.003320   3.477120   2.139814   2.637217
    15  H    3.846828   4.206934   3.167115   2.084733   1.103130
    16  H    2.756375   3.638602   3.369377   2.115109   1.096238
    17  H    2.987338   3.186562   2.679775   2.151050   1.090172
    18  C    3.648468   2.768629   1.523657   2.561279   3.858724
    19  H    4.473036   3.726196   2.172070   2.885957   4.028290
    20  H    4.184917   3.017081   2.153370   3.474859   4.669509
    21  H    3.667036   2.999086   2.190790   2.856791   4.306854
    22  C    2.431269   1.516369   2.699590   3.525440   4.626192
    23  H    3.382697   2.175664   2.965417   4.117801   5.237730
    24  H    2.680014   2.120767   3.648690   4.312780   5.249171
    25  H    2.695622   2.175946   2.929526   3.505020   4.786595
    26  C    2.394745   1.519439   2.650451   3.428171   3.756700
    27  H    2.656704   2.133650   3.618222   4.239180   4.506446
    28  H    3.354563   2.175377   2.907792   4.022231   4.455040
    29  H    2.628105   2.167192   2.827704   3.311024   3.203094
                    6          7          8          9         10
     6  Fe   0.000000
     7  Cl   2.227894   0.000000
     8  C    3.581334   3.738746   0.000000
     9  Cl   2.194576   3.774169   5.704488   0.000000
    10  Cl   2.230359   3.653480   3.558649   3.678006   0.000000
    11  H    4.929749   5.694105   3.431301   6.272267   5.702452
    12  H    4.675990   4.721648   1.103663   6.792183   4.412768
    13  H    3.268687   3.943486   1.092722   5.319480   2.703564
    14  H    3.443544   2.999293   1.091271   5.625998   3.591084
    15  H    5.029819   4.449620   2.798310   6.851929   5.973888
    16  H    3.587664   2.812860   2.735331   5.312484   4.956559
    17  H    4.497137   4.383427   3.467797   5.900055   5.900892
    18  C    5.038885   6.131647   2.992201   6.577348   4.896437
    19  H    5.852334   6.659015   3.183174   7.535078   5.646615
    20  H    5.635275   6.952306   4.047916   6.895752   5.518920
    21  H    4.705215   5.920850   2.786768   6.300430   4.124868
    22  C    3.404810   5.328445   4.016454   4.133265   3.617059
    23  H    4.496463   6.379400   4.702675   5.086583   4.575747
    24  H    3.235062   5.349824   4.780511   3.373242   3.652195
    25  H    3.278205   5.168625   3.578505   4.330390   2.842376
    26  C    4.016012   5.333815   4.638818   4.482708   5.332101
    27  H    3.881398   5.361330   5.319379   3.801917   5.362800
    28  H    4.990213   6.382599   5.249810   5.390797   6.060241
    29  H    4.299131   5.169480   4.672858   4.897414   5.856177
                   11         12         13         14         15
    11  H    0.000000
    12  H    3.676300   0.000000
    13  H    3.807819   1.765168   0.000000
    14  H    4.245988   1.786897   1.786421   0.000000
    15  H    3.133385   2.915195   3.838614   2.847197   0.000000
    16  H    3.599221   3.432280   3.559265   2.425942   1.767893
    17  H    2.358484   3.952474   4.236719   3.685139   1.784070
    18  C    2.169053   2.972354   2.870128   4.072029   4.209412
    19  H    2.538582   2.780016   3.286872   4.240502   4.086142
    20  H    2.475836   4.063643   3.834056   5.115595   5.079500
    21  H    3.092465   2.827777   2.297220   3.841486   4.699898
    22  C    3.402405   4.722012   3.458388   4.751149   5.516317
    23  H    3.469516   5.233418   4.175188   5.560960   6.046705
    24  H    4.270338   5.603199   4.190452   5.357676   6.230805
    25  H    3.856060   4.240278   2.788542   4.313144   5.585028
    26  C    2.546460   5.360013   4.668595   5.212805   4.722809
    27  H    3.630154   6.154844   5.239763   5.776204   5.544317
    28  H    2.593264   5.820265   5.241572   5.963245   5.299074
    29  H    2.451885   5.361991   4.944731   5.126478   4.129960
                   16         17         18         19         20
    16  H    0.000000
    17  H    1.801293   0.000000
    18  C    4.660518   4.112000   0.000000
    19  H    4.921421   4.347809   1.096334   0.000000
    20  H    5.503296   4.718093   1.093242   1.765078   0.000000
    21  H    4.923416   4.741981   1.092026   1.772101   1.764990
    22  C    4.959911   4.678146   2.953226   4.046116   2.922481
    23  H    5.735436   5.175479   2.873685   3.937696   2.440838
    24  H    5.412830   5.237793   4.047482   5.138424   3.976984
    25  H    5.055154   5.074121   2.856552   3.886257   3.044179
    26  C    4.182079   3.230238   3.780023   4.639736   3.738582
    27  H    4.715536   4.002595   4.689555   5.621378   4.614235
    28  H    5.050357   3.864134   3.728157   4.548371   3.387989
    29  H    3.636333   2.448591   4.186829   4.869997   4.294082
                   21         22         23         24         25
    21  H    0.000000
    22  C    2.794113   0.000000
    23  H    2.873828   1.093981   0.000000
    24  H    3.843109   1.096976   1.774694   0.000000
    25  H    2.303297   1.091224   1.787536   1.762094   0.000000
    26  C    4.277933   2.524197   2.783012   2.744990   3.481708
    27  H    5.031216   2.761342   3.121389   2.526722   3.753999
    28  H    4.356144   2.785975   2.596956   3.115859   3.799602
    29  H    4.807878   3.474982   3.792721   3.737874   4.320394
                   26         27         28         29
    26  C    0.000000
    27  H    1.095783   0.000000
    28  H    1.095364   1.782916   0.000000
    29  H    1.093762   1.768250   1.785130   0.000000
 Framework group  C1[X(C8H16Cl3FeO)]
 Deg. of freedom    81
                         Standard orientation:                         
 ---------------------------------------------------------------------
 Center     Atomic      Atomic             Coordinates (Angstroms)
 Number     Number       Type             X           Y           Z
 ---------------------------------------------------------------------
      1          8           0       -0.334913   -0.275443   -0.612611
      2          6           0       -1.401605   -1.190021   -0.438451
      3          6           0       -2.773941   -0.149434   -0.128010
      4          6           0       -2.050784    1.133492   -0.247609
      5          6           0       -1.942461    1.815983   -1.551792
      6         26           0        1.374471    0.034865    0.025054
      7         17           0        1.737544    2.079869   -0.780953
      8          6           0       -1.570320    1.852770    0.946671
      9         17           0        2.690141   -1.570890   -0.686793
     10         17           0        1.240259    0.102047    2.250357
     11          1           0       -3.440614   -0.279846   -0.984075
     12          1           0       -2.451734    2.356646    1.379442
     13          1           0       -1.181247    1.177336    1.712473
     14          1           0       -0.817652    2.603385    0.699811
     15          1           0       -2.608382    2.694534   -1.511865
     16          1           0       -0.922336    2.193185   -1.688907
     17          1           0       -2.240729    1.185471   -2.389626
     18          6           0       -3.509764   -0.413838    1.179731
     19          1           0       -4.325908    0.304158    1.322349
     20          1           0       -3.952724   -1.413057    1.156799
     21          1           0       -2.853733   -0.360627    2.051116
     22          6           0       -1.154761   -2.135743    0.720882
     23          1           0       -1.987306   -2.830668    0.864908
     24          1           0       -0.257919   -2.720518    0.481992
     25          1           0       -0.954840   -1.601321    1.651040
     26          6           0       -1.651523   -1.924452   -1.744915
     27          1           0       -0.757278   -2.510091   -1.985939
     28          1           0       -2.509366   -2.601294   -1.668671
     29          1           0       -1.819268   -1.220206   -2.564802
 ---------------------------------------------------------------------
 Rotational constants (GHZ):           0.5733986           0.3591748           0.3243099
   427 basis functions,  1056 primitive gaussians,   461 cartesian basis functions
    77 alpha electrons       72 beta electrons
       nuclear repulsion energy      1658.0165871441 Hartrees.
 NAtoms=   29 NActive=   29 NUniq=   29 SFac= 1.00D+00 NAtFMM=   60 NAOKFM=F Big=F
 Nuclear repulsion after empirical dispersion term =     1657.9157836537 Hartrees.
 Initial guess from the checkpoint file:  "checkpoint.chk"
 B after Tr=     0.000000    0.000000    0.000000
         Rot=    1.000000    0.000000    0.000000    0.000000 Ang=   0.00 deg.
 Initial guess <Sx>= 0.0000 <Sy>= 0.0000 <Sz>= 2.5000 <S**2>= 8.7622 S= 2.5020
 EnCoef did     3 forward-backward iterations
 SCF Done:  E(UB97D3) =  -3034.60564788     A.U. after   14 cycles
            NFock= 14  Conv=0.10D-07     -V/T= 2.0020
 <Sx>= 0.0000 <Sy>= 0.0000 <Sz>= 2.5000 <S**2>= 8.7607 S= 2.5018
 <L.S>= 0.000000000000E+00
 Annihilation of the first spin contaminant:
 S**2 before annihilation     8.7607,   after     8.7500
 1\1\GINC-HOLY7C04510\SP\UB97D3\Jul-CC-pVDZ\C8H16Cl3Fe1O1(6)\EKWAN\11-F
 eb-2020\0\\#t pop=none jul-cc-pvdz guess=read ub97d3 empiricaldispersi
 on=gd3bj\\theory_abbreviation b97d3_d3bj\\0,6\O,0,-0.334913,-0.275443,
 -0.612611\C,0,-1.401605,-1.190021,-0.438451\C,0,-2.773941,-0.149434,-0
 .12801\C,0,-2.050784,1.133492,-0.247609\C,0,-1.942461,1.815983,-1.5517
 92\Fe,0,1.374471,0.034865,0.025054\Cl,0,1.737544,2.079869,-0.780953\C,
 0,-1.57032,1.85277,0.946671\Cl,0,2.690141,-1.57089,-0.686793\Cl,0,1.24
 0259,0.102047,2.250357\H,0,-3.440614,-0.279845,-0.984075\H,0,-2.451734
 ,2.356646,1.379442\H,0,-1.181247,1.177336,1.712473\H,0,-0.817652,2.603
 385,0.699811\H,0,-2.608382,2.694534,-1.511865\H,0,-0.922336,2.193185,-
 1.688907\H,0,-2.240729,1.185471,-2.389626\C,0,-3.509764,-0.413837,1.17
 9731\H,0,-4.325908,0.304159,1.322349\H,0,-3.952724,-1.413056,1.156799\
 H,0,-2.853733,-0.360627,2.051116\C,0,-1.154761,-2.135743,0.720882\H,0,
 -1.987306,-2.830668,0.864908\H,0,-0.257919,-2.720518,0.481992\H,0,-0.9
 5484,-1.601321,1.65104\C,0,-1.651523,-1.924452,-1.744915\H,0,-0.757278
 ,-2.510091,-1.985939\H,0,-2.509366,-2.601294,-1.668671\H,0,-1.819268,-
 1.220206,-2.564802\\Version=ES64L-G16RevA.03\HF=-3034.6056479\S2=8.760
 666\S2-1=0.\S2A=8.750036\RMSD=9.987e-09\PG=C01 [X(C8H16Cl3Fe1O1)]\\@


 OLD AGE AND TREACHERY WILL ALWAYS PREVAIL OVER YOUTH AND SKILL.
 Job cpu time:       0 days  0 hours 46 minutes 39.1 seconds.
 Elapsed time:       0 days  0 hours 11 minutes 48.2 seconds.
 File lengths (MBytes):  RWF=    174 Int=      0 D2E=      0 Chk=     13 Scr=      1
 Normal termination of Gaussian 16 at Tue Feb 11 23:31:50 2020.
