 Entering Gaussian System, Link 0=g16
 Input=simple-grid-175-245-b3lyp_d3bj-631gd-gas-singlepoint-DFT-juldz2-gas.gjf
 Output=simple-grid-175-245-b3lyp_d3bj-631gd-gas-singlepoint-DFT-juldz2-gas.out
 Initial command:
 /n/sw/g16_nehalem/g16/l1.exe "/scratch/Gau-8394.inp" -scrdir="/scratch/"
 Entering Link 1 = /n/sw/g16_nehalem/g16/l1.exe PID=      8396.
  
 Copyright (c) 1988,1990,1992,1993,1995,1998,2003,2009,2016,
            Gaussian, Inc.  All Rights Reserved.
  
 This is part of the Gaussian(R) 16 program.  It is based on
 the Gaussian(R) 09 system (copyright 2009, Gaussian, Inc.),
 the Gaussian(R) 03 system (copyright 2003, Gaussian, Inc.),
 the Gaussian(R) 98 system (copyright 1998, Gaussian, Inc.),
 the Gaussian(R) 94 system (copyright 1995, Gaussian, Inc.),
 the Gaussian 92(TM) system (copyright 1992, Gaussian, Inc.),
 the Gaussian 90(TM) system (copyright 1990, Gaussian, Inc.),
 the Gaussian 88(TM) system (copyright 1988, Gaussian, Inc.),
 the Gaussian 86(TM) system (copyright 1986, Carnegie Mellon
 University), and the Gaussian 82(TM) system (copyright 1983,
 Carnegie Mellon University). Gaussian is a federally registered
 trademark of Gaussian, Inc.
  
 This software contains proprietary and confidential information,
 including trade secrets, belonging to Gaussian, Inc.
  
 This software is provided under written license and may be
 used, copied, transmitted, or stored only in accord with that
 written license.
  
 The following legend is applicable only to US Government
 contracts under FAR:
  
                    RESTRICTED RIGHTS LEGEND
  
 Use, reproduction and disclosure by the US Government is
 subject to restrictions as set forth in subparagraphs (a)
 and (c) of the Commercial Computer Software - Restricted
 Rights clause in FAR 52.227-19.
  
 Gaussian, Inc.
 340 Quinnipiac St., Bldg. 40, Wallingford CT 06492
  
  
 ---------------------------------------------------------------
 Warning -- This program may not be used in any manner that
 competes with the business of Gaussian, Inc. or will provide
 assistance to any competitor of Gaussian, Inc.  The licensee
 of this program is prohibited from giving any competitor of
 Gaussian, Inc. access to this program.  By using this program,
 the user acknowledges that Gaussian, Inc. is engaged in the
 business of creating and licensing software in the field of
 computational chemistry and represents and warrants to the
 licensee that it is not a competitor of Gaussian, Inc. and that
 it will not use this program in any manner prohibited above.
 ---------------------------------------------------------------
  

 Cite this work as:
 Gaussian 16, Revision A.03,
 M. J. Frisch, G. W. Trucks, H. B. Schlegel, G. E. Scuseria, 
 M. A. Robb, J. R. Cheeseman, G. Scalmani, V. Barone, 
 G. A. Petersson, H. Nakatsuji, X. Li, M. Caricato, A. V. Marenich, 
 J. Bloino, B. G. Janesko, R. Gomperts, B. Mennucci, H. P. Hratchian, 
 J. V. Ortiz, A. F. Izmaylov, J. L. Sonnenberg, D. Williams-Young, 
 F. Ding, F. Lipparini, F. Egidi, J. Goings, B. Peng, A. Petrone, 
 T. Henderson, D. Ranasinghe, V. G. Zakrzewski, J. Gao, N. Rega, 
 G. Zheng, W. Liang, M. Hada, M. Ehara, K. Toyota, R. Fukuda, 
 J. Hasegawa, M. Ishida, T. Nakajima, Y. Honda, O. Kitao, H. Nakai, 
 T. Vreven, K. Throssell, J. A. Montgomery, Jr., J. E. Peralta, 
 F. Ogliaro, M. J. Bearpark, J. J. Heyd, E. N. Brothers, K. N. Kudin, 
 V. N. Staroverov, T. A. Keith, R. Kobayashi, J. Normand, 
 K. Raghavachari, A. P. Rendell, J. C. Burant, S. S. Iyengar, 
 J. Tomasi, M. Cossi, J. M. Millam, M. Klene, C. Adamo, R. Cammi, 
 J. W. Ochterski, R. L. Martin, K. Morokuma, O. Farkas, 
 J. B. Foresman, and D. J. Fox, Gaussian, Inc., Wallingford CT, 2016.
 
 ******************************************
 Gaussian 16:  ES64L-G16RevA.03 25-Dec-2016
                11-Feb-2020 
 ******************************************
 %chk=checkpoint.chk
 %mem=3GB
 %nprocshared=4
 Will use up to    4 processors via shared memory.
 --------------------------------
 #t pop=none jul-cc-pvdz upbe1pbe
 --------------------------------
 ------------------------
 theory_abbreviation pbe0
 ------------------------
 Symbolic Z-matrix:
 Charge =  0 Multiplicity = 6
 O                    -0.31543  -0.23523  -0.70896 
 C                    -1.31906  -1.14902  -0.51989 
 C                    -2.64653  -0.33469   0.27836 
 C                    -2.34474   1.00967  -0.1305 
 C                    -2.73139   1.52543  -1.45989 
 Fe                    1.36969   0.09954  -0.02766 
 Cl                    1.76806   2.15664  -0.75133 
 C                    -1.59723   1.93203   0.73832 
 Cl                    2.74803  -1.46913  -0.71382 
 Cl                    1.13558   0.08179   2.20559 
 H                    -3.52506  -0.72314  -0.24087 
 H                    -2.36343   2.47877   1.31825 
 H                    -0.95246   1.4242    1.457 
 H                    -1.02414   2.66449   0.16402 
 H                    -3.03938   2.57483  -1.387 
 H                    -1.80625   1.523    -2.05857 
 H                    -3.49641   0.93381  -1.96243 
 C                    -2.70766  -0.59763   1.78279 
 H                    -3.48039   0.0259    2.2464 
 H                    -2.97204  -1.64089   1.96621 
 H                    -1.75738  -0.39807   2.28187 
 C                    -0.90375  -2.32858   0.35291 
 H                    -1.71712  -3.04633   0.49388 
 H                    -0.08504  -2.82966  -0.17715 
 H                    -0.5195   -2.00784   1.32134 
 C                    -1.84589  -1.63526  -1.8711 
 H                    -1.02208  -2.15638  -2.36943 
 H                    -2.68445  -2.32939  -1.75659 
 H                    -2.14428  -0.80944  -2.51943 
 
                    Distance matrix (angstroms):
                    1          2          3          4          5
     1  O    0.000000
     2  C    1.370419   0.000000
     3  C    2.533522   1.749999   0.000000
     4  C    2.449999   2.421482   1.437201   0.000000
     5  C    3.082315   3.167168   2.547303   1.477425   0.000000
     6  Fe   1.848207   3.005091   4.051201   3.825689   4.572012
     7  Cl   3.172341   4.528937   5.172578   4.314632   4.598419
     8  C    2.904251   3.339660   2.539802   1.471178   2.506747
     9  Cl   3.302623   4.084281   5.601133   5.693946   6.288721
    10  Cl   3.271166   3.868895   4.265212   4.293123   5.520261
    11  H    3.280074   2.263986   1.091926   2.099516   2.678058
    12  H    3.958501   4.198849   3.012820   2.063370   2.960125
    13  H    2.801945   3.265567   2.711600   2.151846   3.418053
    14  H    3.110098   3.885552   3.411782   2.137552   2.617105
    15  H    3.971903   4.192656   3.375350   2.123913   1.096083
    16  H    2.671204   3.121626   3.101331   2.066614   1.101944
    17  H    3.613378   3.340654   2.711552   2.165196   1.089875
    18  C    3.473176   2.744912   1.528462   2.525041   3.875946
    19  H    4.338127   3.701905   2.167610   2.811970   4.067703
    20  H    4.023683   3.025712   2.158924   3.437319   4.671364
    21  H    3.324273   2.933573   2.192867   2.854165   4.318485
    22  C    2.419879   1.524998   2.649236   3.667976   4.634641
    23  H    3.363606   2.187680   2.874588   4.151493   5.074145
    24  H    2.658384   2.113018   3.604668   4.455212   5.255037
    25  H    2.702942   2.183338   2.900261   3.813751   5.011154
    26  C    2.377595   1.529628   2.636795   3.205338   3.308044
    27  H    2.635776   2.126915   3.601130   4.097081   4.159890
    28  H    3.330958   2.187918   2.849788   3.729465   3.866509
    29  H    2.636702   2.189630   2.881885   3.009373   2.630385
                    6          7          8          9         10
     6  Fe   0.000000
     7  Cl   2.216774   0.000000
     8  C    3.570349   3.687100   0.000000
     9  Cl   2.198034   3.756057   5.705955   0.000000
    10  Cl   2.245550   3.667211   3.611722   3.678079   0.000000
    11  H    4.967978   6.047376   3.424215   6.334969   5.324905
    12  H    4.626925   4.632078   1.105579   6.770694   4.333129
    13  H    3.057988   3.579717   1.090926   5.174689   2.592752
    14  H    3.513703   2.981968   1.093046   5.664506   3.937347
    15  H    5.235906   4.867273   2.647632   7.092306   6.045839
    16  H    4.029571   3.858245   2.834358   5.612723   5.377217
    17  H    5.302672   5.538657   3.449261   6.806339   6.289172
    18  C    4.515369   5.834370   2.953498   6.062768   3.925669
    19  H    5.357242   6.408796   3.074720   7.056293   4.616491
    20  H    5.084803   6.653931   4.020388   6.319124   4.460659
    21  H    3.919189   5.306178   2.799559   5.515433   2.933475
    22  C    3.347999   5.336207   4.333848   3.900268   3.660754
    23  H    4.438112   6.384973   4.985796   4.887091   4.566499
    24  H    3.273961   5.350413   5.079228   3.188321   3.955238
    25  H    3.135254   5.183795   4.126010   3.887005   2.808504
    26  C    4.092401   5.356583   4.426790   4.740360   5.334490
    27  H    4.036535   5.385653   5.167590   4.174581   5.531331
    28  H    5.032386   6.399985   5.056316   5.598146   6.008761
    29  H    4.402629   5.218252   4.292768   5.256436   5.820441
                   11         12         13         14         15
    11  H    0.000000
    12  H    3.745996   0.000000
    13  H    3.756610   1.766982   0.000000
    14  H    4.230192   1.777762   1.793103   0.000000
    15  H    3.525060   2.790072   3.710455   2.544580   0.000000
    16  H    3.362054   3.553428   3.619103   2.618130   1.754405
    17  H    2.389573   3.799136   4.290069   3.691772   1.798036
    18  C    2.186115   3.130267   2.697167   4.011990   4.496897
    19  H    2.597994   2.850552   2.994807   4.163123   4.460167
    20  H    2.453423   4.214480   3.705779   5.057510   5.387089
    21  H    3.097512   3.093879   2.156150   3.795014   4.893076
    22  C    3.130698   5.115973   3.912126   4.998084   5.624192
    23  H    3.034093   5.623527   4.636587   5.762152   6.073172
    24  H    4.034255   5.967145   4.638776   5.584262   6.276967
    25  H    3.622754   4.850750   3.461899   4.839898   5.889452
    26  C    2.511815   5.231164   4.608119   4.827504   4.402677
    27  H    3.584660   6.073122   5.240889   5.446016   5.236307
    28  H    2.363064   5.716305   5.236066   5.602157   4.930914
    29  H    2.665675   5.058475   4.713975   4.530317   3.679243
                   16         17         18         19         20
    16  H    0.000000
    17  H    1.792490   0.000000
    18  C    4.479465   4.122393   0.000000
    19  H    4.855589   4.305671   1.095828   0.000000
    20  H    5.250524   4.726332   1.091749   1.764964   0.000000
    21  H    4.746812   4.776213   1.091763   1.774766   1.766253
    22  C    4.632964   4.767169   2.880072   3.970886   2.711731
    23  H    5.234656   5.004084   2.939145   3.952094   2.391205
    24  H    5.044594   5.384089   3.962508   5.055319   3.787080
    25  H    5.054329   5.319628   2.643800   3.709276   2.562325
    26  C    3.164060   3.054945   3.894900   4.731264   3.999150
    27  H    3.774831   3.979601   4.744654   5.666696   4.781818
    28  H    3.962738   3.368999   3.940397   4.712201   3.796836
    29  H    2.401436   2.275397   4.344119   5.019574   4.636535
                   21         22         23         24         25
    21  H    0.000000
    22  C    2.859440   0.000000
    23  H    3.195588   1.093893   0.000000
    24  H    3.841370   1.096512   1.777890   0.000000
    25  H    2.246399   1.090124   1.788140   1.763412   0.000000
    26  C    4.334237   2.512878   2.756961   2.719678   3.477037
    27  H    5.026610   2.730343   3.077920   2.477380   3.727784
    28  H    4.571496   2.760593   2.552318   3.082496   3.776774
    29  H    4.834394   3.478082   3.777060   3.715917   4.339074
                   26         27         28         29
    26  C    0.000000
    27  H    1.094781   0.000000
    28  H    1.094584   1.780153   0.000000
    29  H    1.091489   1.759566   1.784369   0.000000
 Framework group  C1[X(C8H16Cl3FeO)]
 Deg. of freedom    81
                         Standard orientation:                         
 ---------------------------------------------------------------------
 Center     Atomic      Atomic             Coordinates (Angstroms)
 Number     Number       Type             X           Y           Z
 ---------------------------------------------------------------------
      1          8           0       -0.315428   -0.235227   -0.708964
      2          6           0       -1.319063   -1.149018   -0.519885
      3          6           0       -2.646531   -0.334686    0.278357
      4          6           0       -2.344738    1.009673   -0.130502
      5          6           0       -2.731385    1.525432   -1.459893
      6         26           0        1.369690    0.099538   -0.027657
      7         17           0        1.768056    2.156644   -0.751334
      8          6           0       -1.597234    1.932030    0.738324
      9         17           0        2.748033   -1.469125   -0.713821
     10         17           0        1.135581    0.081786    2.205586
     11          1           0       -3.525057   -0.723138   -0.240873
     12          1           0       -2.363432    2.478774    1.318252
     13          1           0       -0.952455    1.424203    1.456997
     14          1           0       -1.024139    2.664485    0.164024
     15          1           0       -3.039376    2.574825   -1.386998
     16          1           0       -1.806254    1.522996   -2.058565
     17          1           0       -3.496414    0.933811   -1.962430
     18          6           0       -2.707661   -0.597633    1.782790
     19          1           0       -3.480391    0.025900    2.246399
     20          1           0       -2.972044   -1.640885    1.966207
     21          1           0       -1.757375   -0.398070    2.281866
     22          6           0       -0.903749   -2.328577    0.352912
     23          1           0       -1.717116   -3.046327    0.493879
     24          1           0       -0.085042   -2.829664   -0.177154
     25          1           0       -0.519495   -2.007835    1.321335
     26          6           0       -1.845888   -1.635257   -1.871102
     27          1           0       -1.022084   -2.156378   -2.369425
     28          1           0       -2.684445   -2.329391   -1.756589
     29          1           0       -2.144278   -0.809436   -2.519431
 ---------------------------------------------------------------------
 Rotational constants (GHZ):           0.5719612           0.3576407           0.3285856
   427 basis functions,  1056 primitive gaussians,   461 cartesian basis functions
    77 alpha electrons       72 beta electrons
       nuclear repulsion energy      1659.8480604305 Hartrees.
 NAtoms=   29 NActive=   29 NUniq=   29 SFac= 1.00D+00 NAtFMM=   60 NAOKFM=F Big=F
 ExpMin= 1.40D-02 ExpMax= 4.32D+06 ExpMxC= 4.91D+03 IAcc=3 IRadAn=         5 AccDes= 0.00D+00
 Harris functional with IExCor= 1009 and IRadAn=       5 diagonalized for initial guess.
 HarFok:  IExCor= 1009 AccDes= 0.00D+00 IRadAn=         5 IDoV= 1 UseB2=F ITyADJ=14
 ICtDFT=  3500011 ScaDFX=  1.000000  1.000000  1.000000  1.000000
 FoFCou: FMM=F IPFlag=           0 FMFlag=      100000 FMFlg1=           0
         NFxFlg=           0 DoJE=T BraDBF=F KetDBF=T FulRan=T
         wScrn=  0.000000 ICntrl=       500 IOpCl=  0 I1Cent=   200000004 NGrid=           0
         NMat0=    1 NMatS0=      1 NMatT0=    0 NMatD0=    1 NMtDS0=    0 NMtDT0=    0
 Petite list used in FoFCou.
 Initial guess <Sx>= 0.0000 <Sy>= 0.0000 <Sz>= 2.5000 <S**2>= 8.7500 S= 2.5000
 EnCoef did   100 forward-backward iterations
 Restarting incremental Fock formation.
 SCF Done:  E(UPBE1PBE) =  -3033.10519702     A.U. after   21 cycles
            NFock= 21  Conv=0.41D-08     -V/T= 2.0021
 <Sx>= 0.0000 <Sy>= 0.0000 <Sz>= 2.5000 <S**2>= 8.7621 S= 2.5020
 <L.S>= 0.000000000000E+00
 Annihilation of the first spin contaminant:
 S**2 before annihilation     8.7621,   after     8.7500
 1\1\GINC-HOLY7C18509\SP\UPBE1PBE\Jul-CC-pVDZ\C8H16Cl3Fe1O1(6)\EKWAN\11
 -Feb-2020\0\\#t pop=none jul-cc-pvdz upbe1pbe\\theory_abbreviation pbe
 0\\0,6\O,0,-0.315428,-0.235227,-0.708964\C,0,-1.319063,-1.149018,-0.51
 9885\C,0,-2.646531,-0.334686,0.278357\C,0,-2.344738,1.009673,-0.130502
 \C,0,-2.731385,1.525432,-1.459893\Fe,0,1.36969,0.099538,-0.027657\Cl,0
 ,1.768056,2.156644,-0.751334\C,0,-1.597234,1.93203,0.738324\Cl,0,2.748
 033,-1.469125,-0.713821\Cl,0,1.135581,0.081786,2.205586\H,0,-3.525057,
 -0.723138,-0.240873\H,0,-2.363432,2.478774,1.318252\H,0,-0.952455,1.42
 4203,1.456997\H,0,-1.024139,2.664485,0.164024\H,0,-3.039376,2.574825,-
 1.386998\H,0,-1.806254,1.522996,-2.058565\H,0,-3.496414,0.933811,-1.96
 243\C,0,-2.707661,-0.597633,1.78279\H,0,-3.480391,0.0259,2.246399\H,0,
 -2.972044,-1.640885,1.966207\H,0,-1.757375,-0.39807,2.281866\C,0,-0.90
 3749,-2.328577,0.352912\H,0,-1.717116,-3.046327,0.493879\H,0,-0.085042
 ,-2.829664,-0.177154\H,0,-0.519495,-2.007835,1.321335\C,0,-1.845888,-1
 .635257,-1.871102\H,0,-1.022084,-2.156378,-2.369425\H,0,-2.684445,-2.3
 29391,-1.756589\H,0,-2.144278,-0.809436,-2.519431\\Version=ES64L-G16Re
 vA.03\HF=-3033.105197\S2=8.762051\S2-1=0.\S2A=8.750045\RMSD=4.132e-09\
 PG=C01 [X(C8H16Cl3Fe1O1)]\\@


 "PERFECTION IS NOT AN ACCIDENT"
         --  EAGLE ELECTRIC MANUFACTURING CO.,INC. NY
 Job cpu time:       0 days  1 hours 29 minutes  8.6 seconds.
 Elapsed time:       0 days  0 hours 22 minutes 48.0 seconds.
 File lengths (MBytes):  RWF=    173 Int=      0 D2E=      0 Chk=     13 Scr=      1
 Normal termination of Gaussian 16 at Tue Feb 11 14:46:13 2020.
 Initial command:
 /n/sw/g16_nehalem/g16/l1.exe "/scratch/Gau-8394.inp" -scrdir="/scratch/"
 Entering Link 1 = /n/sw/g16_nehalem/g16/l1.exe PID=     21554.
  
 Copyright (c) 1988,1990,1992,1993,1995,1998,2003,2009,2016,
            Gaussian, Inc.  All Rights Reserved.
  
 This is part of the Gaussian(R) 16 program.  It is based on
 the Gaussian(R) 09 system (copyright 2009, Gaussian, Inc.),
 the Gaussian(R) 03 system (copyright 2003, Gaussian, Inc.),
 the Gaussian(R) 98 system (copyright 1998, Gaussian, Inc.),
 the Gaussian(R) 94 system (copyright 1995, Gaussian, Inc.),
 the Gaussian 92(TM) system (copyright 1992, Gaussian, Inc.),
 the Gaussian 90(TM) system (copyright 1990, Gaussian, Inc.),
 the Gaussian 88(TM) system (copyright 1988, Gaussian, Inc.),
 the Gaussian 86(TM) system (copyright 1986, Carnegie Mellon
 University), and the Gaussian 82(TM) system (copyright 1983,
 Carnegie Mellon University). Gaussian is a federally registered
 trademark of Gaussian, Inc.
  
 This software contains proprietary and confidential information,
 including trade secrets, belonging to Gaussian, Inc.
  
 This software is provided under written license and may be
 used, copied, transmitted, or stored only in accord with that
 written license.
  
 The following legend is applicable only to US Government
 contracts under FAR:
  
                    RESTRICTED RIGHTS LEGEND
  
 Use, reproduction and disclosure by the US Government is
 subject to restrictions as set forth in subparagraphs (a)
 and (c) of the Commercial Computer Software - Restricted
 Rights clause in FAR 52.227-19.
  
 Gaussian, Inc.
 340 Quinnipiac St., Bldg. 40, Wallingford CT 06492
  
  
 ---------------------------------------------------------------
 Warning -- This program may not be used in any manner that
 competes with the business of Gaussian, Inc. or will provide
 assistance to any competitor of Gaussian, Inc.  The licensee
 of this program is prohibited from giving any competitor of
 Gaussian, Inc. access to this program.  By using this program,
 the user acknowledges that Gaussian, Inc. is engaged in the
 business of creating and licensing software in the field of
 computational chemistry and represents and warrants to the
 licensee that it is not a competitor of Gaussian, Inc. and that
 it will not use this program in any manner prohibited above.
 ---------------------------------------------------------------
  

 Cite this work as:
 Gaussian 16, Revision A.03,
 M. J. Frisch, G. W. Trucks, H. B. Schlegel, G. E. Scuseria, 
 M. A. Robb, J. R. Cheeseman, G. Scalmani, V. Barone, 
 G. A. Petersson, H. Nakatsuji, X. Li, M. Caricato, A. V. Marenich, 
 J. Bloino, B. G. Janesko, R. Gomperts, B. Mennucci, H. P. Hratchian, 
 J. V. Ortiz, A. F. Izmaylov, J. L. Sonnenberg, D. Williams-Young, 
 F. Ding, F. Lipparini, F. Egidi, J. Goings, B. Peng, A. Petrone, 
 T. Henderson, D. Ranasinghe, V. G. Zakrzewski, J. Gao, N. Rega, 
 G. Zheng, W. Liang, M. Hada, M. Ehara, K. Toyota, R. Fukuda, 
 J. Hasegawa, M. Ishida, T. Nakajima, Y. Honda, O. Kitao, H. Nakai, 
 T. Vreven, K. Throssell, J. A. Montgomery, Jr., J. E. Peralta, 
 F. Ogliaro, M. J. Bearpark, J. J. Heyd, E. N. Brothers, K. N. Kudin, 
 V. N. Staroverov, T. A. Keith, R. Kobayashi, J. Normand, 
 K. Raghavachari, A. P. Rendell, J. C. Burant, S. S. Iyengar, 
 J. Tomasi, M. Cossi, J. M. Millam, M. Klene, C. Adamo, R. Cammi, 
 J. W. Ochterski, R. L. Martin, K. Morokuma, O. Farkas, 
 J. B. Foresman, and D. J. Fox, Gaussian, Inc., Wallingford CT, 2016.
 
 ******************************************
 Gaussian 16:  ES64L-G16RevA.03 25-Dec-2016
                11-Feb-2020 
 ******************************************
 %chk=checkpoint.chk
 %mem=3GB
 %nprocshared=4
 Will use up to    4 processors via shared memory.
 ---------------------------------------------------------------------
 #t pop=none jul-cc-pvdz guess=read upbe1pbe empiricaldispersion=gd3bj
 ---------------------------------------------------------------------
 -----------------------------
 theory_abbreviation pbe0_d3bj
 -----------------------------
 Symbolic Z-matrix:
 Charge =  0 Multiplicity = 6
 O                    -0.31543  -0.23523  -0.70896 
 C                    -1.31906  -1.14902  -0.51989 
 C                    -2.64653  -0.33469   0.27836 
 C                    -2.34474   1.00967  -0.1305 
 C                    -2.73139   1.52543  -1.45989 
 Fe                    1.36969   0.09954  -0.02766 
 Cl                    1.76806   2.15664  -0.75133 
 C                    -1.59723   1.93203   0.73832 
 Cl                    2.74803  -1.46913  -0.71382 
 Cl                    1.13558   0.08179   2.20559 
 H                    -3.52506  -0.72314  -0.24087 
 H                    -2.36343   2.47877   1.31825 
 H                    -0.95246   1.4242    1.457 
 H                    -1.02414   2.66449   0.16402 
 H                    -3.03938   2.57483  -1.387 
 H                    -1.80625   1.523    -2.05857 
 H                    -3.49641   0.93381  -1.96243 
 C                    -2.70766  -0.59763   1.78279 
 H                    -3.48039   0.0259    2.2464 
 H                    -2.97204  -1.64089   1.96621 
 H                    -1.75738  -0.39807   2.28187 
 C                    -0.90375  -2.32858   0.35291 
 H                    -1.71712  -3.04633   0.49388 
 H                    -0.08504  -2.82966  -0.17715 
 H                    -0.5195   -2.00784   1.32134 
 C                    -1.84589  -1.63526  -1.8711 
 H                    -1.02208  -2.15638  -2.36943 
 H                    -2.68445  -2.32939  -1.75659 
 H                    -2.14428  -0.80944  -2.51943 
 
                    Distance matrix (angstroms):
                    1          2          3          4          5
     1  O    0.000000
     2  C    1.370419   0.000000
     3  C    2.533522   1.749999   0.000000
     4  C    2.449999   2.421482   1.437201   0.000000
     5  C    3.082315   3.167168   2.547303   1.477425   0.000000
     6  Fe   1.848207   3.005091   4.051201   3.825689   4.572012
     7  Cl   3.172341   4.528937   5.172578   4.314632   4.598419
     8  C    2.904251   3.339660   2.539802   1.471178   2.506747
     9  Cl   3.302623   4.084281   5.601133   5.693946   6.288721
    10  Cl   3.271166   3.868895   4.265212   4.293123   5.520261
    11  H    3.280074   2.263986   1.091926   2.099516   2.678058
    12  H    3.958501   4.198849   3.012820   2.063370   2.960125
    13  H    2.801945   3.265567   2.711600   2.151846   3.418053
    14  H    3.110098   3.885552   3.411782   2.137552   2.617105
    15  H    3.971903   4.192656   3.375350   2.123913   1.096083
    16  H    2.671204   3.121626   3.101331   2.066614   1.101944
    17  H    3.613378   3.340654   2.711552   2.165196   1.089875
    18  C    3.473176   2.744912   1.528462   2.525041   3.875946
    19  H    4.338127   3.701905   2.167610   2.811970   4.067703
    20  H    4.023683   3.025712   2.158924   3.437319   4.671364
    21  H    3.324273   2.933573   2.192867   2.854165   4.318485
    22  C    2.419879   1.524998   2.649236   3.667976   4.634641
    23  H    3.363606   2.187680   2.874588   4.151493   5.074145
    24  H    2.658384   2.113018   3.604668   4.455212   5.255037
    25  H    2.702942   2.183338   2.900261   3.813751   5.011154
    26  C    2.377595   1.529628   2.636795   3.205338   3.308044
    27  H    2.635776   2.126915   3.601130   4.097081   4.159890
    28  H    3.330958   2.187918   2.849788   3.729465   3.866509
    29  H    2.636702   2.189630   2.881885   3.009373   2.630385
                    6          7          8          9         10
     6  Fe   0.000000
     7  Cl   2.216774   0.000000
     8  C    3.570349   3.687100   0.000000
     9  Cl   2.198034   3.756057   5.705955   0.000000
    10  Cl   2.245550   3.667211   3.611722   3.678079   0.000000
    11  H    4.967978   6.047376   3.424215   6.334969   5.324905
    12  H    4.626925   4.632078   1.105579   6.770694   4.333129
    13  H    3.057988   3.579717   1.090926   5.174689   2.592752
    14  H    3.513703   2.981968   1.093046   5.664506   3.937347
    15  H    5.235906   4.867273   2.647632   7.092306   6.045839
    16  H    4.029571   3.858245   2.834358   5.612723   5.377217
    17  H    5.302672   5.538657   3.449261   6.806339   6.289172
    18  C    4.515369   5.834370   2.953498   6.062768   3.925669
    19  H    5.357242   6.408796   3.074720   7.056293   4.616491
    20  H    5.084803   6.653931   4.020388   6.319124   4.460659
    21  H    3.919189   5.306178   2.799559   5.515433   2.933475
    22  C    3.347999   5.336207   4.333848   3.900268   3.660754
    23  H    4.438112   6.384973   4.985796   4.887091   4.566499
    24  H    3.273961   5.350413   5.079228   3.188321   3.955238
    25  H    3.135254   5.183795   4.126010   3.887005   2.808504
    26  C    4.092401   5.356583   4.426790   4.740360   5.334490
    27  H    4.036535   5.385653   5.167590   4.174581   5.531331
    28  H    5.032386   6.399985   5.056316   5.598146   6.008761
    29  H    4.402629   5.218252   4.292768   5.256436   5.820441
                   11         12         13         14         15
    11  H    0.000000
    12  H    3.745996   0.000000
    13  H    3.756610   1.766982   0.000000
    14  H    4.230192   1.777762   1.793103   0.000000
    15  H    3.525060   2.790072   3.710455   2.544580   0.000000
    16  H    3.362054   3.553428   3.619103   2.618130   1.754405
    17  H    2.389573   3.799136   4.290069   3.691772   1.798036
    18  C    2.186115   3.130267   2.697167   4.011990   4.496897
    19  H    2.597994   2.850552   2.994807   4.163123   4.460167
    20  H    2.453423   4.214480   3.705779   5.057510   5.387089
    21  H    3.097512   3.093879   2.156150   3.795014   4.893076
    22  C    3.130698   5.115973   3.912126   4.998084   5.624192
    23  H    3.034093   5.623527   4.636587   5.762152   6.073172
    24  H    4.034255   5.967145   4.638776   5.584262   6.276967
    25  H    3.622754   4.850750   3.461899   4.839898   5.889452
    26  C    2.511815   5.231164   4.608119   4.827504   4.402677
    27  H    3.584660   6.073122   5.240889   5.446016   5.236307
    28  H    2.363064   5.716305   5.236066   5.602157   4.930914
    29  H    2.665675   5.058475   4.713975   4.530317   3.679243
                   16         17         18         19         20
    16  H    0.000000
    17  H    1.792490   0.000000
    18  C    4.479465   4.122393   0.000000
    19  H    4.855589   4.305671   1.095828   0.000000
    20  H    5.250524   4.726332   1.091749   1.764964   0.000000
    21  H    4.746812   4.776213   1.091763   1.774766   1.766253
    22  C    4.632964   4.767169   2.880072   3.970886   2.711731
    23  H    5.234656   5.004084   2.939145   3.952094   2.391205
    24  H    5.044594   5.384089   3.962508   5.055319   3.787080
    25  H    5.054329   5.319628   2.643800   3.709276   2.562325
    26  C    3.164060   3.054945   3.894900   4.731264   3.999150
    27  H    3.774831   3.979601   4.744654   5.666696   4.781818
    28  H    3.962738   3.368999   3.940397   4.712201   3.796836
    29  H    2.401436   2.275397   4.344119   5.019574   4.636535
                   21         22         23         24         25
    21  H    0.000000
    22  C    2.859440   0.000000
    23  H    3.195588   1.093893   0.000000
    24  H    3.841370   1.096512   1.777890   0.000000
    25  H    2.246399   1.090124   1.788140   1.763412   0.000000
    26  C    4.334237   2.512878   2.756961   2.719678   3.477037
    27  H    5.026610   2.730343   3.077920   2.477380   3.727784
    28  H    4.571496   2.760593   2.552318   3.082496   3.776774
    29  H    4.834394   3.478082   3.777060   3.715917   4.339074
                   26         27         28         29
    26  C    0.000000
    27  H    1.094781   0.000000
    28  H    1.094584   1.780153   0.000000
    29  H    1.091489   1.759566   1.784369   0.000000
 Framework group  C1[X(C8H16Cl3FeO)]
 Deg. of freedom    81
                         Standard orientation:                         
 ---------------------------------------------------------------------
 Center     Atomic      Atomic             Coordinates (Angstroms)
 Number     Number       Type             X           Y           Z
 ---------------------------------------------------------------------
      1          8           0       -0.315428   -0.235227   -0.708964
      2          6           0       -1.319063   -1.149018   -0.519885
      3          6           0       -2.646531   -0.334686    0.278357
      4          6           0       -2.344738    1.009673   -0.130502
      5          6           0       -2.731385    1.525432   -1.459893
      6         26           0        1.369690    0.099538   -0.027657
      7         17           0        1.768056    2.156644   -0.751334
      8          6           0       -1.597234    1.932030    0.738324
      9         17           0        2.748033   -1.469125   -0.713821
     10         17           0        1.135581    0.081786    2.205586
     11          1           0       -3.525057   -0.723138   -0.240873
     12          1           0       -2.363432    2.478774    1.318252
     13          1           0       -0.952455    1.424203    1.456997
     14          1           0       -1.024139    2.664485    0.164024
     15          1           0       -3.039376    2.574825   -1.386998
     16          1           0       -1.806254    1.522996   -2.058565
     17          1           0       -3.496414    0.933811   -1.962430
     18          6           0       -2.707661   -0.597633    1.782790
     19          1           0       -3.480391    0.025900    2.246399
     20          1           0       -2.972044   -1.640885    1.966207
     21          1           0       -1.757375   -0.398070    2.281866
     22          6           0       -0.903749   -2.328577    0.352912
     23          1           0       -1.717116   -3.046327    0.493879
     24          1           0       -0.085042   -2.829664   -0.177154
     25          1           0       -0.519495   -2.007835    1.321335
     26          6           0       -1.845888   -1.635257   -1.871102
     27          1           0       -1.022084   -2.156378   -2.369425
     28          1           0       -2.684445   -2.329391   -1.756589
     29          1           0       -2.144278   -0.809436   -2.519431
 ---------------------------------------------------------------------
 Rotational constants (GHZ):           0.5719612           0.3576407           0.3285856
   427 basis functions,  1056 primitive gaussians,   461 cartesian basis functions
    77 alpha electrons       72 beta electrons
       nuclear repulsion energy      1659.8480604305 Hartrees.
 NAtoms=   29 NActive=   29 NUniq=   29 SFac= 1.00D+00 NAtFMM=   60 NAOKFM=F Big=F
 Nuclear repulsion after empirical dispersion term =     1659.8108300688 Hartrees.
 Initial guess from the checkpoint file:  "checkpoint.chk"
 B after Tr=     0.000000    0.000000    0.000000
         Rot=    1.000000    0.000000    0.000000    0.000000 Ang=   0.00 deg.
 Initial guess <Sx>= 0.0000 <Sy>= 0.0000 <Sz>= 2.5000 <S**2>= 8.7621 S= 2.5020
 SCF Done:  E(UPBE1PBE) =  -3033.14242738     A.U. after    1 cycles
            NFock=  1  Conv=0.21D-08     -V/T= 2.0021
 <Sx>= 0.0000 <Sy>= 0.0000 <Sz>= 2.5000 <S**2>= 8.7621 S= 2.5020
 <L.S>= 0.000000000000E+00
 Annihilation of the first spin contaminant:
 S**2 before annihilation     8.7621,   after     8.7500
 1\1\GINC-HOLY7C18509\SP\UPBE1PBE\Jul-CC-pVDZ\C8H16Cl3Fe1O1(6)\EKWAN\11
 -Feb-2020\0\\#t pop=none jul-cc-pvdz guess=read upbe1pbe empiricaldisp
 ersion=gd3bj\\theory_abbreviation pbe0_d3bj\\0,6\O,0,-0.315428,-0.2352
 27,-0.708964\C,0,-1.319063,-1.149018,-0.519885\C,0,-2.646531,-0.334686
 ,0.278357\C,0,-2.344738,1.009673,-0.130502\C,0,-2.731385,1.525432,-1.4
 59893\Fe,0,1.36969,0.099538,-0.027657\Cl,0,1.768056,2.156644,-0.751334
 \C,0,-1.597234,1.93203,0.738324\Cl,0,2.748033,-1.469125,-0.713821\Cl,0
 ,1.135581,0.081786,2.205586\H,0,-3.525057,-0.723138,-0.240873\H,0,-2.3
 63432,2.478774,1.318252\H,0,-0.952455,1.424203,1.456997\H,0,-1.024139,
 2.664485,0.164024\H,0,-3.039376,2.574825,-1.386998\H,0,-1.806254,1.522
 996,-2.058565\H,0,-3.496414,0.933811,-1.96243\C,0,-2.707661,-0.597633,
 1.78279\H,0,-3.480391,0.0259,2.246399\H,0,-2.972044,-1.640885,1.966207
 \H,0,-1.757375,-0.39807,2.281866\C,0,-0.903749,-2.328577,0.352912\H,0,
 -1.717116,-3.046327,0.493879\H,0,-0.085042,-2.829664,-0.177154\H,0,-0.
 519495,-2.007835,1.321335\C,0,-1.845888,-1.635257,-1.871102\H,0,-1.022
 084,-2.156378,-2.369425\H,0,-2.684445,-2.329391,-1.756589\H,0,-2.14427
 8,-0.809436,-2.519431\\Version=ES64L-G16RevA.03\HF=-3033.1424274\S2=8.
 762051\S2-1=0.\S2A=8.750045\RMSD=2.092e-09\PG=C01 [X(C8H16Cl3Fe1O1)]\\
 @


 HE WHO LAUGHS LAST PROBABLY DIDN'T GET THE JOKE.
 Job cpu time:       0 days  0 hours  5 minutes  9.0 seconds.
 Elapsed time:       0 days  0 hours  1 minutes 35.0 seconds.
 File lengths (MBytes):  RWF=    170 Int=      0 D2E=      0 Chk=     13 Scr=      1
 Normal termination of Gaussian 16 at Tue Feb 11 14:47:49 2020.
 Initial command:
 /n/sw/g16_nehalem/g16/l1.exe "/scratch/Gau-8394.inp" -scrdir="/scratch/"
 Entering Link 1 = /n/sw/g16_nehalem/g16/l1.exe PID=     22522.
  
 Copyright (c) 1988,1990,1992,1993,1995,1998,2003,2009,2016,
            Gaussian, Inc.  All Rights Reserved.
  
 This is part of the Gaussian(R) 16 program.  It is based on
 the Gaussian(R) 09 system (copyright 2009, Gaussian, Inc.),
 the Gaussian(R) 03 system (copyright 2003, Gaussian, Inc.),
 the Gaussian(R) 98 system (copyright 1998, Gaussian, Inc.),
 the Gaussian(R) 94 system (copyright 1995, Gaussian, Inc.),
 the Gaussian 92(TM) system (copyright 1992, Gaussian, Inc.),
 the Gaussian 90(TM) system (copyright 1990, Gaussian, Inc.),
 the Gaussian 88(TM) system (copyright 1988, Gaussian, Inc.),
 the Gaussian 86(TM) system (copyright 1986, Carnegie Mellon
 University), and the Gaussian 82(TM) system (copyright 1983,
 Carnegie Mellon University). Gaussian is a federally registered
 trademark of Gaussian, Inc.
  
 This software contains proprietary and confidential information,
 including trade secrets, belonging to Gaussian, Inc.
  
 This software is provided under written license and may be
 used, copied, transmitted, or stored only in accord with that
 written license.
  
 The following legend is applicable only to US Government
 contracts under FAR:
  
                    RESTRICTED RIGHTS LEGEND
  
 Use, reproduction and disclosure by the US Government is
 subject to restrictions as set forth in subparagraphs (a)
 and (c) of the Commercial Computer Software - Restricted
 Rights clause in FAR 52.227-19.
  
 Gaussian, Inc.
 340 Quinnipiac St., Bldg. 40, Wallingford CT 06492
  
  
 ---------------------------------------------------------------
 Warning -- This program may not be used in any manner that
 competes with the business of Gaussian, Inc. or will provide
 assistance to any competitor of Gaussian, Inc.  The licensee
 of this program is prohibited from giving any competitor of
 Gaussian, Inc. access to this program.  By using this program,
 the user acknowledges that Gaussian, Inc. is engaged in the
 business of creating and licensing software in the field of
 computational chemistry and represents and warrants to the
 licensee that it is not a competitor of Gaussian, Inc. and that
 it will not use this program in any manner prohibited above.
 ---------------------------------------------------------------
  

 Cite this work as:
 Gaussian 16, Revision A.03,
 M. J. Frisch, G. W. Trucks, H. B. Schlegel, G. E. Scuseria, 
 M. A. Robb, J. R. Cheeseman, G. Scalmani, V. Barone, 
 G. A. Petersson, H. Nakatsuji, X. Li, M. Caricato, A. V. Marenich, 
 J. Bloino, B. G. Janesko, R. Gomperts, B. Mennucci, H. P. Hratchian, 
 J. V. Ortiz, A. F. Izmaylov, J. L. Sonnenberg, D. Williams-Young, 
 F. Ding, F. Lipparini, F. Egidi, J. Goings, B. Peng, A. Petrone, 
 T. Henderson, D. Ranasinghe, V. G. Zakrzewski, J. Gao, N. Rega, 
 G. Zheng, W. Liang, M. Hada, M. Ehara, K. Toyota, R. Fukuda, 
 J. Hasegawa, M. Ishida, T. Nakajima, Y. Honda, O. Kitao, H. Nakai, 
 T. Vreven, K. Throssell, J. A. Montgomery, Jr., J. E. Peralta, 
 F. Ogliaro, M. J. Bearpark, J. J. Heyd, E. N. Brothers, K. N. Kudin, 
 V. N. Staroverov, T. A. Keith, R. Kobayashi, J. Normand, 
 K. Raghavachari, A. P. Rendell, J. C. Burant, S. S. Iyengar, 
 J. Tomasi, M. Cossi, J. M. Millam, M. Klene, C. Adamo, R. Cammi, 
 J. W. Ochterski, R. L. Martin, K. Morokuma, O. Farkas, 
 J. B. Foresman, and D. J. Fox, Gaussian, Inc., Wallingford CT, 2016.
 
 ******************************************
 Gaussian 16:  ES64L-G16RevA.03 25-Dec-2016
                11-Feb-2020 
 ******************************************
 %chk=checkpoint.chk
 %mem=3GB
 %nprocshared=4
 Will use up to    4 processors via shared memory.
 -----------------------------------------
 #t pop=none jul-cc-pvdz guess=read ub3lyp
 -----------------------------------------
 -------------------------
 theory_abbreviation b3lyp
 -------------------------
 Symbolic Z-matrix:
 Charge =  0 Multiplicity = 6
 O                    -0.31543  -0.23523  -0.70896 
 C                    -1.31906  -1.14902  -0.51989 
 C                    -2.64653  -0.33469   0.27836 
 C                    -2.34474   1.00967  -0.1305 
 C                    -2.73139   1.52543  -1.45989 
 Fe                    1.36969   0.09954  -0.02766 
 Cl                    1.76806   2.15664  -0.75133 
 C                    -1.59723   1.93203   0.73832 
 Cl                    2.74803  -1.46913  -0.71382 
 Cl                    1.13558   0.08179   2.20559 
 H                    -3.52506  -0.72314  -0.24087 
 H                    -2.36343   2.47877   1.31825 
 H                    -0.95246   1.4242    1.457 
 H                    -1.02414   2.66449   0.16402 
 H                    -3.03938   2.57483  -1.387 
 H                    -1.80625   1.523    -2.05857 
 H                    -3.49641   0.93381  -1.96243 
 C                    -2.70766  -0.59763   1.78279 
 H                    -3.48039   0.0259    2.2464 
 H                    -2.97204  -1.64089   1.96621 
 H                    -1.75738  -0.39807   2.28187 
 C                    -0.90375  -2.32858   0.35291 
 H                    -1.71712  -3.04633   0.49388 
 H                    -0.08504  -2.82966  -0.17715 
 H                    -0.5195   -2.00784   1.32134 
 C                    -1.84589  -1.63526  -1.8711 
 H                    -1.02208  -2.15638  -2.36943 
 H                    -2.68445  -2.32939  -1.75659 
 H                    -2.14428  -0.80944  -2.51943 
 
                    Distance matrix (angstroms):
                    1          2          3          4          5
     1  O    0.000000
     2  C    1.370419   0.000000
     3  C    2.533522   1.749999   0.000000
     4  C    2.449999   2.421482   1.437201   0.000000
     5  C    3.082315   3.167168   2.547303   1.477425   0.000000
     6  Fe   1.848207   3.005091   4.051201   3.825689   4.572012
     7  Cl   3.172341   4.528937   5.172578   4.314632   4.598419
     8  C    2.904251   3.339660   2.539802   1.471178   2.506747
     9  Cl   3.302623   4.084281   5.601133   5.693946   6.288721
    10  Cl   3.271166   3.868895   4.265212   4.293123   5.520261
    11  H    3.280074   2.263986   1.091926   2.099516   2.678058
    12  H    3.958501   4.198849   3.012820   2.063370   2.960125
    13  H    2.801945   3.265567   2.711600   2.151846   3.418053
    14  H    3.110098   3.885552   3.411782   2.137552   2.617105
    15  H    3.971903   4.192656   3.375350   2.123913   1.096083
    16  H    2.671204   3.121626   3.101331   2.066614   1.101944
    17  H    3.613378   3.340654   2.711552   2.165196   1.089875
    18  C    3.473176   2.744912   1.528462   2.525041   3.875946
    19  H    4.338127   3.701905   2.167610   2.811970   4.067703
    20  H    4.023683   3.025712   2.158924   3.437319   4.671364
    21  H    3.324273   2.933573   2.192867   2.854165   4.318485
    22  C    2.419879   1.524998   2.649236   3.667976   4.634641
    23  H    3.363606   2.187680   2.874588   4.151493   5.074145
    24  H    2.658384   2.113018   3.604668   4.455212   5.255037
    25  H    2.702942   2.183338   2.900261   3.813751   5.011154
    26  C    2.377595   1.529628   2.636795   3.205338   3.308044
    27  H    2.635776   2.126915   3.601130   4.097081   4.159890
    28  H    3.330958   2.187918   2.849788   3.729465   3.866509
    29  H    2.636702   2.189630   2.881885   3.009373   2.630385
                    6          7          8          9         10
     6  Fe   0.000000
     7  Cl   2.216774   0.000000
     8  C    3.570349   3.687100   0.000000
     9  Cl   2.198034   3.756057   5.705955   0.000000
    10  Cl   2.245550   3.667211   3.611722   3.678079   0.000000
    11  H    4.967978   6.047376   3.424215   6.334969   5.324905
    12  H    4.626925   4.632078   1.105579   6.770694   4.333129
    13  H    3.057988   3.579717   1.090926   5.174689   2.592752
    14  H    3.513703   2.981968   1.093046   5.664506   3.937347
    15  H    5.235906   4.867273   2.647632   7.092306   6.045839
    16  H    4.029571   3.858245   2.834358   5.612723   5.377217
    17  H    5.302672   5.538657   3.449261   6.806339   6.289172
    18  C    4.515369   5.834370   2.953498   6.062768   3.925669
    19  H    5.357242   6.408796   3.074720   7.056293   4.616491
    20  H    5.084803   6.653931   4.020388   6.319124   4.460659
    21  H    3.919189   5.306178   2.799559   5.515433   2.933475
    22  C    3.347999   5.336207   4.333848   3.900268   3.660754
    23  H    4.438112   6.384973   4.985796   4.887091   4.566499
    24  H    3.273961   5.350413   5.079228   3.188321   3.955238
    25  H    3.135254   5.183795   4.126010   3.887005   2.808504
    26  C    4.092401   5.356583   4.426790   4.740360   5.334490
    27  H    4.036535   5.385653   5.167590   4.174581   5.531331
    28  H    5.032386   6.399985   5.056316   5.598146   6.008761
    29  H    4.402629   5.218252   4.292768   5.256436   5.820441
                   11         12         13         14         15
    11  H    0.000000
    12  H    3.745996   0.000000
    13  H    3.756610   1.766982   0.000000
    14  H    4.230192   1.777762   1.793103   0.000000
    15  H    3.525060   2.790072   3.710455   2.544580   0.000000
    16  H    3.362054   3.553428   3.619103   2.618130   1.754405
    17  H    2.389573   3.799136   4.290069   3.691772   1.798036
    18  C    2.186115   3.130267   2.697167   4.011990   4.496897
    19  H    2.597994   2.850552   2.994807   4.163123   4.460167
    20  H    2.453423   4.214480   3.705779   5.057510   5.387089
    21  H    3.097512   3.093879   2.156150   3.795014   4.893076
    22  C    3.130698   5.115973   3.912126   4.998084   5.624192
    23  H    3.034093   5.623527   4.636587   5.762152   6.073172
    24  H    4.034255   5.967145   4.638776   5.584262   6.276967
    25  H    3.622754   4.850750   3.461899   4.839898   5.889452
    26  C    2.511815   5.231164   4.608119   4.827504   4.402677
    27  H    3.584660   6.073122   5.240889   5.446016   5.236307
    28  H    2.363064   5.716305   5.236066   5.602157   4.930914
    29  H    2.665675   5.058475   4.713975   4.530317   3.679243
                   16         17         18         19         20
    16  H    0.000000
    17  H    1.792490   0.000000
    18  C    4.479465   4.122393   0.000000
    19  H    4.855589   4.305671   1.095828   0.000000
    20  H    5.250524   4.726332   1.091749   1.764964   0.000000
    21  H    4.746812   4.776213   1.091763   1.774766   1.766253
    22  C    4.632964   4.767169   2.880072   3.970886   2.711731
    23  H    5.234656   5.004084   2.939145   3.952094   2.391205
    24  H    5.044594   5.384089   3.962508   5.055319   3.787080
    25  H    5.054329   5.319628   2.643800   3.709276   2.562325
    26  C    3.164060   3.054945   3.894900   4.731264   3.999150
    27  H    3.774831   3.979601   4.744654   5.666696   4.781818
    28  H    3.962738   3.368999   3.940397   4.712201   3.796836
    29  H    2.401436   2.275397   4.344119   5.019574   4.636535
                   21         22         23         24         25
    21  H    0.000000
    22  C    2.859440   0.000000
    23  H    3.195588   1.093893   0.000000
    24  H    3.841370   1.096512   1.777890   0.000000
    25  H    2.246399   1.090124   1.788140   1.763412   0.000000
    26  C    4.334237   2.512878   2.756961   2.719678   3.477037
    27  H    5.026610   2.730343   3.077920   2.477380   3.727784
    28  H    4.571496   2.760593   2.552318   3.082496   3.776774
    29  H    4.834394   3.478082   3.777060   3.715917   4.339074
                   26         27         28         29
    26  C    0.000000
    27  H    1.094781   0.000000
    28  H    1.094584   1.780153   0.000000
    29  H    1.091489   1.759566   1.784369   0.000000
 Framework group  C1[X(C8H16Cl3FeO)]
 Deg. of freedom    81
                         Standard orientation:                         
 ---------------------------------------------------------------------
 Center     Atomic      Atomic             Coordinates (Angstroms)
 Number     Number       Type             X           Y           Z
 ---------------------------------------------------------------------
      1          8           0       -0.315428   -0.235227   -0.708964
      2          6           0       -1.319063   -1.149018   -0.519885
      3          6           0       -2.646531   -0.334686    0.278357
      4          6           0       -2.344738    1.009673   -0.130502
      5          6           0       -2.731385    1.525432   -1.459893
      6         26           0        1.369690    0.099538   -0.027657
      7         17           0        1.768056    2.156644   -0.751334
      8          6           0       -1.597234    1.932030    0.738324
      9         17           0        2.748033   -1.469125   -0.713821
     10         17           0        1.135581    0.081786    2.205586
     11          1           0       -3.525057   -0.723138   -0.240873
     12          1           0       -2.363432    2.478774    1.318252
     13          1           0       -0.952455    1.424203    1.456997
     14          1           0       -1.024139    2.664485    0.164024
     15          1           0       -3.039376    2.574825   -1.386998
     16          1           0       -1.806254    1.522996   -2.058565
     17          1           0       -3.496414    0.933811   -1.962430
     18          6           0       -2.707661   -0.597633    1.782790
     19          1           0       -3.480391    0.025900    2.246399
     20          1           0       -2.972044   -1.640885    1.966207
     21          1           0       -1.757375   -0.398070    2.281866
     22          6           0       -0.903749   -2.328577    0.352912
     23          1           0       -1.717116   -3.046327    0.493879
     24          1           0       -0.085042   -2.829664   -0.177154
     25          1           0       -0.519495   -2.007835    1.321335
     26          6           0       -1.845888   -1.635257   -1.871102
     27          1           0       -1.022084   -2.156378   -2.369425
     28          1           0       -2.684445   -2.329391   -1.756589
     29          1           0       -2.144278   -0.809436   -2.519431
 ---------------------------------------------------------------------
 Rotational constants (GHZ):           0.5719612           0.3576407           0.3285856
   427 basis functions,  1056 primitive gaussians,   461 cartesian basis functions
    77 alpha electrons       72 beta electrons
       nuclear repulsion energy      1659.8480604305 Hartrees.
 NAtoms=   29 NActive=   29 NUniq=   29 SFac= 1.00D+00 NAtFMM=   60 NAOKFM=F Big=F
 Initial guess from the checkpoint file:  "checkpoint.chk"
 B after Tr=     0.000000    0.000000    0.000000
         Rot=    1.000000    0.000000    0.000000    0.000000 Ang=   0.00 deg.
 Initial guess <Sx>= 0.0000 <Sy>= 0.0000 <Sz>= 2.5000 <S**2>= 8.7621 S= 2.5020
 SCF Done:  E(UB3LYP) =  -3034.31698600     A.U. after   13 cycles
            NFock= 13  Conv=0.89D-08     -V/T= 2.0024
 <Sx>= 0.0000 <Sy>= 0.0000 <Sz>= 2.5000 <S**2>= 8.7613 S= 2.5019
 <L.S>= 0.000000000000E+00
 Annihilation of the first spin contaminant:
 S**2 before annihilation     8.7613,   after     8.7500
 1\1\GINC-HOLY7C18509\SP\UB3LYP\Jul-CC-pVDZ\C8H16Cl3Fe1O1(6)\EKWAN\11-F
 eb-2020\0\\#t pop=none jul-cc-pvdz guess=read ub3lyp\\theory_abbreviat
 ion b3lyp\\0,6\O,0,-0.315428,-0.235227,-0.708964\C,0,-1.319063,-1.1490
 18,-0.519885\C,0,-2.646531,-0.334686,0.278357\C,0,-2.344738,1.009673,-
 0.130502\C,0,-2.731385,1.525432,-1.459893\Fe,0,1.36969,0.099538,-0.027
 657\Cl,0,1.768056,2.156644,-0.751334\C,0,-1.597234,1.93203,0.738324\Cl
 ,0,2.748033,-1.469125,-0.713821\Cl,0,1.135581,0.081786,2.205586\H,0,-3
 .525057,-0.723138,-0.240873\H,0,-2.363432,2.478774,1.318252\H,0,-0.952
 455,1.424203,1.456997\H,0,-1.024139,2.664485,0.164024\H,0,-3.039376,2.
 574825,-1.386998\H,0,-1.806254,1.522996,-2.058565\H,0,-3.496414,0.9338
 11,-1.96243\C,0,-2.707661,-0.597633,1.78279\H,0,-3.480391,0.0259,2.246
 399\H,0,-2.972044,-1.640885,1.966207\H,0,-1.757375,-0.39807,2.281866\C
 ,0,-0.903749,-2.328577,0.352912\H,0,-1.717116,-3.046327,0.493879\H,0,-
 0.085042,-2.829664,-0.177154\H,0,-0.519495,-2.007835,1.321335\C,0,-1.8
 45888,-1.635257,-1.871102\H,0,-1.022084,-2.156378,-2.369425\H,0,-2.684
 445,-2.329391,-1.756589\H,0,-2.144278,-0.809436,-2.519431\\Version=ES6
 4L-G16RevA.03\HF=-3034.316986\S2=8.761297\S2-1=0.\S2A=8.75004\RMSD=8.9
 08e-09\PG=C01 [X(C8H16Cl3Fe1O1)]\\@


 CLIMB THE MOUNTAINS AND GET THEIR GOOD TIDINGS.
 NATURE'S PEACE WILL FLOW INTO YOU AS SUNSHINE FLOWS INTO TREES.
 THE WINDS WILL BLOW THEIR OWN FRESHNESS INTO YOU, 
 AND CARES WILL DROP OFF LIKE AUTUMN LEAVES.

                                         -- JOHN MUIR
 Job cpu time:       0 days  0 hours 54 minutes  9.7 seconds.
 Elapsed time:       0 days  0 hours 13 minutes 42.8 seconds.
 File lengths (MBytes):  RWF=    174 Int=      0 D2E=      0 Chk=     13 Scr=      1
 Normal termination of Gaussian 16 at Tue Feb 11 15:01:33 2020.
 Initial command:
 /n/sw/g16_nehalem/g16/l1.exe "/scratch/Gau-8394.inp" -scrdir="/scratch/"
 Entering Link 1 = /n/sw/g16_nehalem/g16/l1.exe PID=     30468.
  
 Copyright (c) 1988,1990,1992,1993,1995,1998,2003,2009,2016,
            Gaussian, Inc.  All Rights Reserved.
  
 This is part of the Gaussian(R) 16 program.  It is based on
 the Gaussian(R) 09 system (copyright 2009, Gaussian, Inc.),
 the Gaussian(R) 03 system (copyright 2003, Gaussian, Inc.),
 the Gaussian(R) 98 system (copyright 1998, Gaussian, Inc.),
 the Gaussian(R) 94 system (copyright 1995, Gaussian, Inc.),
 the Gaussian 92(TM) system (copyright 1992, Gaussian, Inc.),
 the Gaussian 90(TM) system (copyright 1990, Gaussian, Inc.),
 the Gaussian 88(TM) system (copyright 1988, Gaussian, Inc.),
 the Gaussian 86(TM) system (copyright 1986, Carnegie Mellon
 University), and the Gaussian 82(TM) system (copyright 1983,
 Carnegie Mellon University). Gaussian is a federally registered
 trademark of Gaussian, Inc.
  
 This software contains proprietary and confidential information,
 including trade secrets, belonging to Gaussian, Inc.
  
 This software is provided under written license and may be
 used, copied, transmitted, or stored only in accord with that
 written license.
  
 The following legend is applicable only to US Government
 contracts under FAR:
  
                    RESTRICTED RIGHTS LEGEND
  
 Use, reproduction and disclosure by the US Government is
 subject to restrictions as set forth in subparagraphs (a)
 and (c) of the Commercial Computer Software - Restricted
 Rights clause in FAR 52.227-19.
  
 Gaussian, Inc.
 340 Quinnipiac St., Bldg. 40, Wallingford CT 06492
  
  
 ---------------------------------------------------------------
 Warning -- This program may not be used in any manner that
 competes with the business of Gaussian, Inc. or will provide
 assistance to any competitor of Gaussian, Inc.  The licensee
 of this program is prohibited from giving any competitor of
 Gaussian, Inc. access to this program.  By using this program,
 the user acknowledges that Gaussian, Inc. is engaged in the
 business of creating and licensing software in the field of
 computational chemistry and represents and warrants to the
 licensee that it is not a competitor of Gaussian, Inc. and that
 it will not use this program in any manner prohibited above.
 ---------------------------------------------------------------
  

 Cite this work as:
 Gaussian 16, Revision A.03,
 M. J. Frisch, G. W. Trucks, H. B. Schlegel, G. E. Scuseria, 
 M. A. Robb, J. R. Cheeseman, G. Scalmani, V. Barone, 
 G. A. Petersson, H. Nakatsuji, X. Li, M. Caricato, A. V. Marenich, 
 J. Bloino, B. G. Janesko, R. Gomperts, B. Mennucci, H. P. Hratchian, 
 J. V. Ortiz, A. F. Izmaylov, J. L. Sonnenberg, D. Williams-Young, 
 F. Ding, F. Lipparini, F. Egidi, J. Goings, B. Peng, A. Petrone, 
 T. Henderson, D. Ranasinghe, V. G. Zakrzewski, J. Gao, N. Rega, 
 G. Zheng, W. Liang, M. Hada, M. Ehara, K. Toyota, R. Fukuda, 
 J. Hasegawa, M. Ishida, T. Nakajima, Y. Honda, O. Kitao, H. Nakai, 
 T. Vreven, K. Throssell, J. A. Montgomery, Jr., J. E. Peralta, 
 F. Ogliaro, M. J. Bearpark, J. J. Heyd, E. N. Brothers, K. N. Kudin, 
 V. N. Staroverov, T. A. Keith, R. Kobayashi, J. Normand, 
 K. Raghavachari, A. P. Rendell, J. C. Burant, S. S. Iyengar, 
 J. Tomasi, M. Cossi, J. M. Millam, M. Klene, C. Adamo, R. Cammi, 
 J. W. Ochterski, R. L. Martin, K. Morokuma, O. Farkas, 
 J. B. Foresman, and D. J. Fox, Gaussian, Inc., Wallingford CT, 2016.
 
 ******************************************
 Gaussian 16:  ES64L-G16RevA.03 25-Dec-2016
                11-Feb-2020 
 ******************************************
 %chk=checkpoint.chk
 %mem=3GB
 %nprocshared=4
 Will use up to    4 processors via shared memory.
 -------------------------------------------------------------------
 #t pop=none jul-cc-pvdz guess=read ub3lyp empiricaldispersion=gd3bj
 -------------------------------------------------------------------
 ------------------------------
 theory_abbreviation b3lyp_d3bj
 ------------------------------
 Symbolic Z-matrix:
 Charge =  0 Multiplicity = 6
 O                    -0.31543  -0.23523  -0.70896 
 C                    -1.31906  -1.14902  -0.51989 
 C                    -2.64653  -0.33469   0.27836 
 C                    -2.34474   1.00967  -0.1305 
 C                    -2.73139   1.52543  -1.45989 
 Fe                    1.36969   0.09954  -0.02766 
 Cl                    1.76806   2.15664  -0.75133 
 C                    -1.59723   1.93203   0.73832 
 Cl                    2.74803  -1.46913  -0.71382 
 Cl                    1.13558   0.08179   2.20559 
 H                    -3.52506  -0.72314  -0.24087 
 H                    -2.36343   2.47877   1.31825 
 H                    -0.95246   1.4242    1.457 
 H                    -1.02414   2.66449   0.16402 
 H                    -3.03938   2.57483  -1.387 
 H                    -1.80625   1.523    -2.05857 
 H                    -3.49641   0.93381  -1.96243 
 C                    -2.70766  -0.59763   1.78279 
 H                    -3.48039   0.0259    2.2464 
 H                    -2.97204  -1.64089   1.96621 
 H                    -1.75738  -0.39807   2.28187 
 C                    -0.90375  -2.32858   0.35291 
 H                    -1.71712  -3.04633   0.49388 
 H                    -0.08504  -2.82966  -0.17715 
 H                    -0.5195   -2.00784   1.32134 
 C                    -1.84589  -1.63526  -1.8711 
 H                    -1.02208  -2.15638  -2.36943 
 H                    -2.68445  -2.32939  -1.75659 
 H                    -2.14428  -0.80944  -2.51943 
 
                    Distance matrix (angstroms):
                    1          2          3          4          5
     1  O    0.000000
     2  C    1.370419   0.000000
     3  C    2.533522   1.749999   0.000000
     4  C    2.449999   2.421482   1.437201   0.000000
     5  C    3.082315   3.167168   2.547303   1.477425   0.000000
     6  Fe   1.848207   3.005091   4.051201   3.825689   4.572012
     7  Cl   3.172341   4.528937   5.172578   4.314632   4.598419
     8  C    2.904251   3.339660   2.539802   1.471178   2.506747
     9  Cl   3.302623   4.084281   5.601133   5.693946   6.288721
    10  Cl   3.271166   3.868895   4.265212   4.293123   5.520261
    11  H    3.280074   2.263986   1.091926   2.099516   2.678058
    12  H    3.958501   4.198849   3.012820   2.063370   2.960125
    13  H    2.801945   3.265567   2.711600   2.151846   3.418053
    14  H    3.110098   3.885552   3.411782   2.137552   2.617105
    15  H    3.971903   4.192656   3.375350   2.123913   1.096083
    16  H    2.671204   3.121626   3.101331   2.066614   1.101944
    17  H    3.613378   3.340654   2.711552   2.165196   1.089875
    18  C    3.473176   2.744912   1.528462   2.525041   3.875946
    19  H    4.338127   3.701905   2.167610   2.811970   4.067703
    20  H    4.023683   3.025712   2.158924   3.437319   4.671364
    21  H    3.324273   2.933573   2.192867   2.854165   4.318485
    22  C    2.419879   1.524998   2.649236   3.667976   4.634641
    23  H    3.363606   2.187680   2.874588   4.151493   5.074145
    24  H    2.658384   2.113018   3.604668   4.455212   5.255037
    25  H    2.702942   2.183338   2.900261   3.813751   5.011154
    26  C    2.377595   1.529628   2.636795   3.205338   3.308044
    27  H    2.635776   2.126915   3.601130   4.097081   4.159890
    28  H    3.330958   2.187918   2.849788   3.729465   3.866509
    29  H    2.636702   2.189630   2.881885   3.009373   2.630385
                    6          7          8          9         10
     6  Fe   0.000000
     7  Cl   2.216774   0.000000
     8  C    3.570349   3.687100   0.000000
     9  Cl   2.198034   3.756057   5.705955   0.000000
    10  Cl   2.245550   3.667211   3.611722   3.678079   0.000000
    11  H    4.967978   6.047376   3.424215   6.334969   5.324905
    12  H    4.626925   4.632078   1.105579   6.770694   4.333129
    13  H    3.057988   3.579717   1.090926   5.174689   2.592752
    14  H    3.513703   2.981968   1.093046   5.664506   3.937347
    15  H    5.235906   4.867273   2.647632   7.092306   6.045839
    16  H    4.029571   3.858245   2.834358   5.612723   5.377217
    17  H    5.302672   5.538657   3.449261   6.806339   6.289172
    18  C    4.515369   5.834370   2.953498   6.062768   3.925669
    19  H    5.357242   6.408796   3.074720   7.056293   4.616491
    20  H    5.084803   6.653931   4.020388   6.319124   4.460659
    21  H    3.919189   5.306178   2.799559   5.515433   2.933475
    22  C    3.347999   5.336207   4.333848   3.900268   3.660754
    23  H    4.438112   6.384973   4.985796   4.887091   4.566499
    24  H    3.273961   5.350413   5.079228   3.188321   3.955238
    25  H    3.135254   5.183795   4.126010   3.887005   2.808504
    26  C    4.092401   5.356583   4.426790   4.740360   5.334490
    27  H    4.036535   5.385653   5.167590   4.174581   5.531331
    28  H    5.032386   6.399985   5.056316   5.598146   6.008761
    29  H    4.402629   5.218252   4.292768   5.256436   5.820441
                   11         12         13         14         15
    11  H    0.000000
    12  H    3.745996   0.000000
    13  H    3.756610   1.766982   0.000000
    14  H    4.230192   1.777762   1.793103   0.000000
    15  H    3.525060   2.790072   3.710455   2.544580   0.000000
    16  H    3.362054   3.553428   3.619103   2.618130   1.754405
    17  H    2.389573   3.799136   4.290069   3.691772   1.798036
    18  C    2.186115   3.130267   2.697167   4.011990   4.496897
    19  H    2.597994   2.850552   2.994807   4.163123   4.460167
    20  H    2.453423   4.214480   3.705779   5.057510   5.387089
    21  H    3.097512   3.093879   2.156150   3.795014   4.893076
    22  C    3.130698   5.115973   3.912126   4.998084   5.624192
    23  H    3.034093   5.623527   4.636587   5.762152   6.073172
    24  H    4.034255   5.967145   4.638776   5.584262   6.276967
    25  H    3.622754   4.850750   3.461899   4.839898   5.889452
    26  C    2.511815   5.231164   4.608119   4.827504   4.402677
    27  H    3.584660   6.073122   5.240889   5.446016   5.236307
    28  H    2.363064   5.716305   5.236066   5.602157   4.930914
    29  H    2.665675   5.058475   4.713975   4.530317   3.679243
                   16         17         18         19         20
    16  H    0.000000
    17  H    1.792490   0.000000
    18  C    4.479465   4.122393   0.000000
    19  H    4.855589   4.305671   1.095828   0.000000
    20  H    5.250524   4.726332   1.091749   1.764964   0.000000
    21  H    4.746812   4.776213   1.091763   1.774766   1.766253
    22  C    4.632964   4.767169   2.880072   3.970886   2.711731
    23  H    5.234656   5.004084   2.939145   3.952094   2.391205
    24  H    5.044594   5.384089   3.962508   5.055319   3.787080
    25  H    5.054329   5.319628   2.643800   3.709276   2.562325
    26  C    3.164060   3.054945   3.894900   4.731264   3.999150
    27  H    3.774831   3.979601   4.744654   5.666696   4.781818
    28  H    3.962738   3.368999   3.940397   4.712201   3.796836
    29  H    2.401436   2.275397   4.344119   5.019574   4.636535
                   21         22         23         24         25
    21  H    0.000000
    22  C    2.859440   0.000000
    23  H    3.195588   1.093893   0.000000
    24  H    3.841370   1.096512   1.777890   0.000000
    25  H    2.246399   1.090124   1.788140   1.763412   0.000000
    26  C    4.334237   2.512878   2.756961   2.719678   3.477037
    27  H    5.026610   2.730343   3.077920   2.477380   3.727784
    28  H    4.571496   2.760593   2.552318   3.082496   3.776774
    29  H    4.834394   3.478082   3.777060   3.715917   4.339074
                   26         27         28         29
    26  C    0.000000
    27  H    1.094781   0.000000
    28  H    1.094584   1.780153   0.000000
    29  H    1.091489   1.759566   1.784369   0.000000
 Framework group  C1[X(C8H16Cl3FeO)]
 Deg. of freedom    81
                         Standard orientation:                         
 ---------------------------------------------------------------------
 Center     Atomic      Atomic             Coordinates (Angstroms)
 Number     Number       Type             X           Y           Z
 ---------------------------------------------------------------------
      1          8           0       -0.315428   -0.235227   -0.708964
      2          6           0       -1.319063   -1.149018   -0.519885
      3          6           0       -2.646531   -0.334686    0.278357
      4          6           0       -2.344738    1.009673   -0.130502
      5          6           0       -2.731385    1.525432   -1.459893
      6         26           0        1.369690    0.099538   -0.027657
      7         17           0        1.768056    2.156644   -0.751334
      8          6           0       -1.597234    1.932030    0.738324
      9         17           0        2.748033   -1.469125   -0.713821
     10         17           0        1.135581    0.081786    2.205586
     11          1           0       -3.525057   -0.723138   -0.240873
     12          1           0       -2.363432    2.478774    1.318252
     13          1           0       -0.952455    1.424203    1.456997
     14          1           0       -1.024139    2.664485    0.164024
     15          1           0       -3.039376    2.574825   -1.386998
     16          1           0       -1.806254    1.522996   -2.058565
     17          1           0       -3.496414    0.933811   -1.962430
     18          6           0       -2.707661   -0.597633    1.782790
     19          1           0       -3.480391    0.025900    2.246399
     20          1           0       -2.972044   -1.640885    1.966207
     21          1           0       -1.757375   -0.398070    2.281866
     22          6           0       -0.903749   -2.328577    0.352912
     23          1           0       -1.717116   -3.046327    0.493879
     24          1           0       -0.085042   -2.829664   -0.177154
     25          1           0       -0.519495   -2.007835    1.321335
     26          6           0       -1.845888   -1.635257   -1.871102
     27          1           0       -1.022084   -2.156378   -2.369425
     28          1           0       -2.684445   -2.329391   -1.756589
     29          1           0       -2.144278   -0.809436   -2.519431
 ---------------------------------------------------------------------
 Rotational constants (GHZ):           0.5719612           0.3576407           0.3285856
   427 basis functions,  1056 primitive gaussians,   461 cartesian basis functions
    77 alpha electrons       72 beta electrons
       nuclear repulsion energy      1659.8480604305 Hartrees.
 NAtoms=   29 NActive=   29 NUniq=   29 SFac= 1.00D+00 NAtFMM=   60 NAOKFM=F Big=F
 Nuclear repulsion after empirical dispersion term =     1659.7786617729 Hartrees.
 Initial guess from the checkpoint file:  "checkpoint.chk"
 B after Tr=     0.000000    0.000000    0.000000
         Rot=    1.000000    0.000000    0.000000    0.000000 Ang=   0.00 deg.
 Initial guess <Sx>= 0.0000 <Sy>= 0.0000 <Sz>= 2.5000 <S**2>= 8.7613 S= 2.5019
 SCF Done:  E(UB3LYP) =  -3034.38638465     A.U. after    1 cycles
            NFock=  1  Conv=0.53D-08     -V/T= 2.0024
 <Sx>= 0.0000 <Sy>= 0.0000 <Sz>= 2.5000 <S**2>= 8.7613 S= 2.5019
 <L.S>= 0.000000000000E+00
 Annihilation of the first spin contaminant:
 S**2 before annihilation     8.7613,   after     8.7500
 1\1\GINC-HOLY7C18509\SP\UB3LYP\Jul-CC-pVDZ\C8H16Cl3Fe1O1(6)\EKWAN\11-F
 eb-2020\0\\#t pop=none jul-cc-pvdz guess=read ub3lyp empiricaldispersi
 on=gd3bj\\theory_abbreviation b3lyp_d3bj\\0,6\O,0,-0.315428,-0.235227,
 -0.708964\C,0,-1.319063,-1.149018,-0.519885\C,0,-2.646531,-0.334686,0.
 278357\C,0,-2.344738,1.009673,-0.130502\C,0,-2.731385,1.525432,-1.4598
 93\Fe,0,1.36969,0.099538,-0.027657\Cl,0,1.768056,2.156644,-0.751334\C,
 0,-1.597234,1.93203,0.738324\Cl,0,2.748033,-1.469125,-0.713821\Cl,0,1.
 135581,0.081786,2.205586\H,0,-3.525057,-0.723138,-0.240873\H,0,-2.3634
 32,2.478774,1.318252\H,0,-0.952455,1.424203,1.456997\H,0,-1.024139,2.6
 64485,0.164024\H,0,-3.039376,2.574825,-1.386998\H,0,-1.806254,1.522996
 ,-2.058565\H,0,-3.496414,0.933811,-1.96243\C,0,-2.707661,-0.597633,1.7
 8279\H,0,-3.480391,0.0259,2.246399\H,0,-2.972044,-1.640885,1.966207\H,
 0,-1.757375,-0.39807,2.281866\C,0,-0.903749,-2.328577,0.352912\H,0,-1.
 717116,-3.046327,0.493879\H,0,-0.085042,-2.829664,-0.177154\H,0,-0.519
 495,-2.007835,1.321335\C,0,-1.845888,-1.635257,-1.871102\H,0,-1.022084
 ,-2.156378,-2.369425\H,0,-2.684445,-2.329391,-1.756589\H,0,-2.144278,-
 0.809436,-2.519431\\Version=ES64L-G16RevA.03\HF=-3034.3863847\S2=8.761
 297\S2-1=0.\S2A=8.75004\RMSD=5.305e-09\PG=C01 [X(C8H16Cl3Fe1O1)]\\@


 Any fool can criticize, condemn, and complain -- and most do.
 -- Dale Carnegie
 Job cpu time:       0 days  0 hours  4 minutes 56.9 seconds.
 Elapsed time:       0 days  0 hours  1 minutes 26.2 seconds.
 File lengths (MBytes):  RWF=    170 Int=      0 D2E=      0 Chk=     13 Scr=      1
 Normal termination of Gaussian 16 at Tue Feb 11 15:03:00 2020.
 Initial command:
 /n/sw/g16_nehalem/g16/l1.exe "/scratch/Gau-8394.inp" -scrdir="/scratch/"
 Entering Link 1 = /n/sw/g16_nehalem/g16/l1.exe PID=     31409.
  
 Copyright (c) 1988,1990,1992,1993,1995,1998,2003,2009,2016,
            Gaussian, Inc.  All Rights Reserved.
  
 This is part of the Gaussian(R) 16 program.  It is based on
 the Gaussian(R) 09 system (copyright 2009, Gaussian, Inc.),
 the Gaussian(R) 03 system (copyright 2003, Gaussian, Inc.),
 the Gaussian(R) 98 system (copyright 1998, Gaussian, Inc.),
 the Gaussian(R) 94 system (copyright 1995, Gaussian, Inc.),
 the Gaussian 92(TM) system (copyright 1992, Gaussian, Inc.),
 the Gaussian 90(TM) system (copyright 1990, Gaussian, Inc.),
 the Gaussian 88(TM) system (copyright 1988, Gaussian, Inc.),
 the Gaussian 86(TM) system (copyright 1986, Carnegie Mellon
 University), and the Gaussian 82(TM) system (copyright 1983,
 Carnegie Mellon University). Gaussian is a federally registered
 trademark of Gaussian, Inc.
  
 This software contains proprietary and confidential information,
 including trade secrets, belonging to Gaussian, Inc.
  
 This software is provided under written license and may be
 used, copied, transmitted, or stored only in accord with that
 written license.
  
 The following legend is applicable only to US Government
 contracts under FAR:
  
                    RESTRICTED RIGHTS LEGEND
  
 Use, reproduction and disclosure by the US Government is
 subject to restrictions as set forth in subparagraphs (a)
 and (c) of the Commercial Computer Software - Restricted
 Rights clause in FAR 52.227-19.
  
 Gaussian, Inc.
 340 Quinnipiac St., Bldg. 40, Wallingford CT 06492
  
  
 ---------------------------------------------------------------
 Warning -- This program may not be used in any manner that
 competes with the business of Gaussian, Inc. or will provide
 assistance to any competitor of Gaussian, Inc.  The licensee
 of this program is prohibited from giving any competitor of
 Gaussian, Inc. access to this program.  By using this program,
 the user acknowledges that Gaussian, Inc. is engaged in the
 business of creating and licensing software in the field of
 computational chemistry and represents and warrants to the
 licensee that it is not a competitor of Gaussian, Inc. and that
 it will not use this program in any manner prohibited above.
 ---------------------------------------------------------------
  

 Cite this work as:
 Gaussian 16, Revision A.03,
 M. J. Frisch, G. W. Trucks, H. B. Schlegel, G. E. Scuseria, 
 M. A. Robb, J. R. Cheeseman, G. Scalmani, V. Barone, 
 G. A. Petersson, H. Nakatsuji, X. Li, M. Caricato, A. V. Marenich, 
 J. Bloino, B. G. Janesko, R. Gomperts, B. Mennucci, H. P. Hratchian, 
 J. V. Ortiz, A. F. Izmaylov, J. L. Sonnenberg, D. Williams-Young, 
 F. Ding, F. Lipparini, F. Egidi, J. Goings, B. Peng, A. Petrone, 
 T. Henderson, D. Ranasinghe, V. G. Zakrzewski, J. Gao, N. Rega, 
 G. Zheng, W. Liang, M. Hada, M. Ehara, K. Toyota, R. Fukuda, 
 J. Hasegawa, M. Ishida, T. Nakajima, Y. Honda, O. Kitao, H. Nakai, 
 T. Vreven, K. Throssell, J. A. Montgomery, Jr., J. E. Peralta, 
 F. Ogliaro, M. J. Bearpark, J. J. Heyd, E. N. Brothers, K. N. Kudin, 
 V. N. Staroverov, T. A. Keith, R. Kobayashi, J. Normand, 
 K. Raghavachari, A. P. Rendell, J. C. Burant, S. S. Iyengar, 
 J. Tomasi, M. Cossi, J. M. Millam, M. Klene, C. Adamo, R. Cammi, 
 J. W. Ochterski, R. L. Martin, K. Morokuma, O. Farkas, 
 J. B. Foresman, and D. J. Fox, Gaussian, Inc., Wallingford CT, 2016.
 
 ******************************************
 Gaussian 16:  ES64L-G16RevA.03 25-Dec-2016
                11-Feb-2020 
 ******************************************
 %chk=checkpoint.chk
 %mem=3GB
 %nprocshared=4
 Will use up to    4 processors via shared memory.
 ----------------------------------------
 #t pop=none jul-cc-pvdz guess=read ub97d
 ----------------------------------------
 ------------------------
 theory_abbreviation b97d
 ------------------------
 Symbolic Z-matrix:
 Charge =  0 Multiplicity = 6
 O                    -0.31543  -0.23523  -0.70896 
 C                    -1.31906  -1.14902  -0.51989 
 C                    -2.64653  -0.33469   0.27836 
 C                    -2.34474   1.00967  -0.1305 
 C                    -2.73139   1.52543  -1.45989 
 Fe                    1.36969   0.09954  -0.02766 
 Cl                    1.76806   2.15664  -0.75133 
 C                    -1.59723   1.93203   0.73832 
 Cl                    2.74803  -1.46913  -0.71382 
 Cl                    1.13558   0.08179   2.20559 
 H                    -3.52506  -0.72314  -0.24087 
 H                    -2.36343   2.47877   1.31825 
 H                    -0.95246   1.4242    1.457 
 H                    -1.02414   2.66449   0.16402 
 H                    -3.03938   2.57483  -1.387 
 H                    -1.80625   1.523    -2.05857 
 H                    -3.49641   0.93381  -1.96243 
 C                    -2.70766  -0.59763   1.78279 
 H                    -3.48039   0.0259    2.2464 
 H                    -2.97204  -1.64089   1.96621 
 H                    -1.75738  -0.39807   2.28187 
 C                    -0.90375  -2.32858   0.35291 
 H                    -1.71712  -3.04633   0.49388 
 H                    -0.08504  -2.82966  -0.17715 
 H                    -0.5195   -2.00784   1.32134 
 C                    -1.84589  -1.63526  -1.8711 
 H                    -1.02208  -2.15638  -2.36943 
 H                    -2.68445  -2.32939  -1.75659 
 H                    -2.14428  -0.80944  -2.51943 
 
                    Distance matrix (angstroms):
                    1          2          3          4          5
     1  O    0.000000
     2  C    1.370419   0.000000
     3  C    2.533522   1.749999   0.000000
     4  C    2.449999   2.421482   1.437201   0.000000
     5  C    3.082315   3.167168   2.547303   1.477425   0.000000
     6  Fe   1.848207   3.005091   4.051201   3.825689   4.572012
     7  Cl   3.172341   4.528937   5.172578   4.314632   4.598419
     8  C    2.904251   3.339660   2.539802   1.471178   2.506747
     9  Cl   3.302623   4.084281   5.601133   5.693946   6.288721
    10  Cl   3.271166   3.868895   4.265212   4.293123   5.520261
    11  H    3.280074   2.263986   1.091926   2.099516   2.678058
    12  H    3.958501   4.198849   3.012820   2.063370   2.960125
    13  H    2.801945   3.265567   2.711600   2.151846   3.418053
    14  H    3.110098   3.885552   3.411782   2.137552   2.617105
    15  H    3.971903   4.192656   3.375350   2.123913   1.096083
    16  H    2.671204   3.121626   3.101331   2.066614   1.101944
    17  H    3.613378   3.340654   2.711552   2.165196   1.089875
    18  C    3.473176   2.744912   1.528462   2.525041   3.875946
    19  H    4.338127   3.701905   2.167610   2.811970   4.067703
    20  H    4.023683   3.025712   2.158924   3.437319   4.671364
    21  H    3.324273   2.933573   2.192867   2.854165   4.318485
    22  C    2.419879   1.524998   2.649236   3.667976   4.634641
    23  H    3.363606   2.187680   2.874588   4.151493   5.074145
    24  H    2.658384   2.113018   3.604668   4.455212   5.255037
    25  H    2.702942   2.183338   2.900261   3.813751   5.011154
    26  C    2.377595   1.529628   2.636795   3.205338   3.308044
    27  H    2.635776   2.126915   3.601130   4.097081   4.159890
    28  H    3.330958   2.187918   2.849788   3.729465   3.866509
    29  H    2.636702   2.189630   2.881885   3.009373   2.630385
                    6          7          8          9         10
     6  Fe   0.000000
     7  Cl   2.216774   0.000000
     8  C    3.570349   3.687100   0.000000
     9  Cl   2.198034   3.756057   5.705955   0.000000
    10  Cl   2.245550   3.667211   3.611722   3.678079   0.000000
    11  H    4.967978   6.047376   3.424215   6.334969   5.324905
    12  H    4.626925   4.632078   1.105579   6.770694   4.333129
    13  H    3.057988   3.579717   1.090926   5.174689   2.592752
    14  H    3.513703   2.981968   1.093046   5.664506   3.937347
    15  H    5.235906   4.867273   2.647632   7.092306   6.045839
    16  H    4.029571   3.858245   2.834358   5.612723   5.377217
    17  H    5.302672   5.538657   3.449261   6.806339   6.289172
    18  C    4.515369   5.834370   2.953498   6.062768   3.925669
    19  H    5.357242   6.408796   3.074720   7.056293   4.616491
    20  H    5.084803   6.653931   4.020388   6.319124   4.460659
    21  H    3.919189   5.306178   2.799559   5.515433   2.933475
    22  C    3.347999   5.336207   4.333848   3.900268   3.660754
    23  H    4.438112   6.384973   4.985796   4.887091   4.566499
    24  H    3.273961   5.350413   5.079228   3.188321   3.955238
    25  H    3.135254   5.183795   4.126010   3.887005   2.808504
    26  C    4.092401   5.356583   4.426790   4.740360   5.334490
    27  H    4.036535   5.385653   5.167590   4.174581   5.531331
    28  H    5.032386   6.399985   5.056316   5.598146   6.008761
    29  H    4.402629   5.218252   4.292768   5.256436   5.820441
                   11         12         13         14         15
    11  H    0.000000
    12  H    3.745996   0.000000
    13  H    3.756610   1.766982   0.000000
    14  H    4.230192   1.777762   1.793103   0.000000
    15  H    3.525060   2.790072   3.710455   2.544580   0.000000
    16  H    3.362054   3.553428   3.619103   2.618130   1.754405
    17  H    2.389573   3.799136   4.290069   3.691772   1.798036
    18  C    2.186115   3.130267   2.697167   4.011990   4.496897
    19  H    2.597994   2.850552   2.994807   4.163123   4.460167
    20  H    2.453423   4.214480   3.705779   5.057510   5.387089
    21  H    3.097512   3.093879   2.156150   3.795014   4.893076
    22  C    3.130698   5.115973   3.912126   4.998084   5.624192
    23  H    3.034093   5.623527   4.636587   5.762152   6.073172
    24  H    4.034255   5.967145   4.638776   5.584262   6.276967
    25  H    3.622754   4.850750   3.461899   4.839898   5.889452
    26  C    2.511815   5.231164   4.608119   4.827504   4.402677
    27  H    3.584660   6.073122   5.240889   5.446016   5.236307
    28  H    2.363064   5.716305   5.236066   5.602157   4.930914
    29  H    2.665675   5.058475   4.713975   4.530317   3.679243
                   16         17         18         19         20
    16  H    0.000000
    17  H    1.792490   0.000000
    18  C    4.479465   4.122393   0.000000
    19  H    4.855589   4.305671   1.095828   0.000000
    20  H    5.250524   4.726332   1.091749   1.764964   0.000000
    21  H    4.746812   4.776213   1.091763   1.774766   1.766253
    22  C    4.632964   4.767169   2.880072   3.970886   2.711731
    23  H    5.234656   5.004084   2.939145   3.952094   2.391205
    24  H    5.044594   5.384089   3.962508   5.055319   3.787080
    25  H    5.054329   5.319628   2.643800   3.709276   2.562325
    26  C    3.164060   3.054945   3.894900   4.731264   3.999150
[...]
            NFock= 18  Conv=0.18D-08     -V/T= 2.0020
 <Sx>= 0.0000 <Sy>= 0.0000 <Sz>= 2.5000 <S**2>= 8.7614 S= 2.5019
 <L.S>= 0.000000000000E+00
 Annihilation of the first spin contaminant:
 S**2 before annihilation     8.7614,   after     8.7500
 1\1\GINC-HOLY7C18509\SP\UM06L\Jul-CC-pVDZ\C8H16Cl3Fe1O1(6)\EKWAN\12-Fe
 b-2020\0\\#t pop=none jul-cc-pvdz guess=read um06l empiricaldispersion
 =gd3\\theory_abbreviation m06l_d3\\0,6\O,0,-0.315428,-0.235227,-0.7089
 64\C,0,-1.319063,-1.149018,-0.519885\C,0,-2.646531,-0.334686,0.278357\
 C,0,-2.344738,1.009673,-0.130502\C,0,-2.731385,1.525432,-1.459893\Fe,0
 ,1.36969,0.099538,-0.027657\Cl,0,1.768056,2.156644,-0.751334\C,0,-1.59
 7234,1.93203,0.738324\Cl,0,2.748033,-1.469125,-0.713821\Cl,0,1.135581,
 0.081786,2.205586\H,0,-3.525057,-0.723138,-0.240873\H,0,-2.363432,2.47
 8774,1.318252\H,0,-0.952455,1.424203,1.456997\H,0,-1.024139,2.664485,0
 .164024\H,0,-3.039376,2.574825,-1.386998\H,0,-1.806254,1.522996,-2.058
 565\H,0,-3.496414,0.933811,-1.96243\C,0,-2.707661,-0.597633,1.78279\H,
 0,-3.480391,0.0259,2.246399\H,0,-2.972044,-1.640885,1.966207\H,0,-1.75
 7375,-0.39807,2.281866\C,0,-0.903749,-2.328577,0.352912\H,0,-1.717116,
 -3.046327,0.493879\H,0,-0.085042,-2.829664,-0.177154\H,0,-0.519495,-2.
 007835,1.321335\C,0,-1.845888,-1.635257,-1.871102\H,0,-1.022084,-2.156
 378,-2.369425\H,0,-2.684445,-2.329391,-1.756589\H,0,-2.144278,-0.80943
 6,-2.519431\\Version=ES64L-G16RevA.03\HF=-3034.1840191\S2=8.761357\S2-
 1=0.\S2A=8.750042\RMSD=1.799e-09\PG=C01 [X(C8H16Cl3Fe1O1)]\\@


 I WOULD TAKE COUNSEL OF MYSELF.
 I WOULD STOP AND LOOK WITHIN
 AND LOOKING WITHIN, LOOK BACK, ALSO
 THAT I MAY LOOK AHEAD WITH CLEARER UNDERSTANDING
 OF THE WAY I HAVE BEEN MOVING, AND IN WHAT DIRECTION.
 I NEED TO KNOW IF I AM GOING FORWARD OR RETREATING,
 WHETHER I HAVE BEEN WASTING, OR ENJOYING
 THE PRECIOUS MOMENTS OF LIFE.  THERE HAVE BEEN FRICTIONS,
 ANNOYANCES AND SOMETIMES WRATH,
 BUT WERE THEY BECAUSE I WAS RIGHT AND OTHERS WRONG.....
 HAVE I HAD MY THOUGHTS TOO SHARPLY FOCUSED
 ON THAT WHICH PLEASED ME, SERVED MY SELF-ESTEEM,
 UNDERGIRDED MY SECURITY,
 OF WHICH I DID NOT INQUIRE WHETHER IT SERVED OR HAMPERED OTHERS.....
 HAVE I BEEN TRYING TO STOP THE CLOCK
 TO HOLD THE WORLD
 IN PERPETUATION OF WHAT WAS AN IS ALREADY SLIPPING AWAY.....
 HAVE I BEEN CRITICAL OF OTHERS FOR WHAT REALLY NEEDED CHANGING IN ME...
 LET ME INDEED TAKE COUNSEL OF MYSELF
 AND SET MY DIRECTIONS STRAIGHT.

                          R.T. WESTON AS ADAPTED BY D. OSBORN 1967
 Job cpu time:       0 days  1 hours 22 minutes 27.4 seconds.
 Elapsed time:       0 days  0 hours 23 minutes  6.5 seconds.
 File lengths (MBytes):  RWF=    174 Int=      0 D2E=      0 Chk=     13 Scr=      1
 Normal termination of Gaussian 16 at Wed Feb 12 00:12:48 2020.
 Initial command:
 /n/sw/g16_nehalem/g16/l1.exe "/scratch/Gau-8394.inp" -scrdir="/scratch/"
 Entering Link 1 = /n/sw/g16_nehalem/g16/l1.exe PID=    290809.
  
 Copyright (c) 1988,1990,1992,1993,1995,1998,2003,2009,2016,
            Gaussian, Inc.  All Rights Reserved.
  
 This is part of the Gaussian(R) 16 program.  It is based on
 the Gaussian(R) 09 system (copyright 2009, Gaussian, Inc.),
 the Gaussian(R) 03 system (copyright 2003, Gaussian, Inc.),
 the Gaussian(R) 98 system (copyright 1998, Gaussian, Inc.),
 the Gaussian(R) 94 system (copyright 1995, Gaussian, Inc.),
 the Gaussian 92(TM) system (copyright 1992, Gaussian, Inc.),
 the Gaussian 90(TM) system (copyright 1990, Gaussian, Inc.),
 the Gaussian 88(TM) system (copyright 1988, Gaussian, Inc.),
 the Gaussian 86(TM) system (copyright 1986, Carnegie Mellon
 University), and the Gaussian 82(TM) system (copyright 1983,
 Carnegie Mellon University). Gaussian is a federally registered
 trademark of Gaussian, Inc.
  
 This software contains proprietary and confidential information,
 including trade secrets, belonging to Gaussian, Inc.
  
 This software is provided under written license and may be
 used, copied, transmitted, or stored only in accord with that
 written license.
  
 The following legend is applicable only to US Government
 contracts under FAR:
  
                    RESTRICTED RIGHTS LEGEND
  
 Use, reproduction and disclosure by the US Government is
 subject to restrictions as set forth in subparagraphs (a)
 and (c) of the Commercial Computer Software - Restricted
 Rights clause in FAR 52.227-19.
  
 Gaussian, Inc.
 340 Quinnipiac St., Bldg. 40, Wallingford CT 06492
  
  
 ---------------------------------------------------------------
 Warning -- This program may not be used in any manner that
 competes with the business of Gaussian, Inc. or will provide
 assistance to any competitor of Gaussian, Inc.  The licensee
 of this program is prohibited from giving any competitor of
 Gaussian, Inc. access to this program.  By using this program,
 the user acknowledges that Gaussian, Inc. is engaged in the
 business of creating and licensing software in the field of
 computational chemistry and represents and warrants to the
 licensee that it is not a competitor of Gaussian, Inc. and that
 it will not use this program in any manner prohibited above.
 ---------------------------------------------------------------
  

 Cite this work as:
 Gaussian 16, Revision A.03,
 M. J. Frisch, G. W. Trucks, H. B. Schlegel, G. E. Scuseria, 
 M. A. Robb, J. R. Cheeseman, G. Scalmani, V. Barone, 
 G. A. Petersson, H. Nakatsuji, X. Li, M. Caricato, A. V. Marenich, 
 J. Bloino, B. G. Janesko, R. Gomperts, B. Mennucci, H. P. Hratchian, 
 J. V. Ortiz, A. F. Izmaylov, J. L. Sonnenberg, D. Williams-Young, 
 F. Ding, F. Lipparini, F. Egidi, J. Goings, B. Peng, A. Petrone, 
 T. Henderson, D. Ranasinghe, V. G. Zakrzewski, J. Gao, N. Rega, 
 G. Zheng, W. Liang, M. Hada, M. Ehara, K. Toyota, R. Fukuda, 
 J. Hasegawa, M. Ishida, T. Nakajima, Y. Honda, O. Kitao, H. Nakai, 
 T. Vreven, K. Throssell, J. A. Montgomery, Jr., J. E. Peralta, 
 F. Ogliaro, M. J. Bearpark, J. J. Heyd, E. N. Brothers, K. N. Kudin, 
 V. N. Staroverov, T. A. Keith, R. Kobayashi, J. Normand, 
 K. Raghavachari, A. P. Rendell, J. C. Burant, S. S. Iyengar, 
 J. Tomasi, M. Cossi, J. M. Millam, M. Klene, C. Adamo, R. Cammi, 
 J. W. Ochterski, R. L. Martin, K. Morokuma, O. Farkas, 
 J. B. Foresman, and D. J. Fox, Gaussian, Inc., Wallingford CT, 2016.
 
 ******************************************
 Gaussian 16:  ES64L-G16RevA.03 25-Dec-2016
                12-Feb-2020 
 ******************************************
 %chk=checkpoint.chk
 %mem=3GB
 %nprocshared=4
 Will use up to    4 processors via shared memory.
 -------------------------------------------------------------------
 #t pop=none jul-cc-pvdz guess=read ub97d3 empiricaldispersion=gd3bj
 -------------------------------------------------------------------
 ------------------------------
 theory_abbreviation b97d3_d3bj
 ------------------------------
 Symbolic Z-matrix:
 Charge =  0 Multiplicity = 6
 O                    -0.31543  -0.23523  -0.70896 
 C                    -1.31906  -1.14902  -0.51989 
 C                    -2.64653  -0.33469   0.27836 
 C                    -2.34474   1.00967  -0.1305 
 C                    -2.73139   1.52543  -1.45989 
 Fe                    1.36969   0.09954  -0.02766 
 Cl                    1.76806   2.15664  -0.75133 
 C                    -1.59723   1.93203   0.73832 
 Cl                    2.74803  -1.46913  -0.71382 
 Cl                    1.13558   0.08179   2.20559 
 H                    -3.52506  -0.72314  -0.24087 
 H                    -2.36343   2.47877   1.31825 
 H                    -0.95246   1.4242    1.457 
 H                    -1.02414   2.66449   0.16402 
 H                    -3.03938   2.57483  -1.387 
 H                    -1.80625   1.523    -2.05857 
 H                    -3.49641   0.93381  -1.96243 
 C                    -2.70766  -0.59763   1.78279 
 H                    -3.48039   0.0259    2.2464 
 H                    -2.97204  -1.64089   1.96621 
 H                    -1.75738  -0.39807   2.28187 
 C                    -0.90375  -2.32858   0.35291 
 H                    -1.71712  -3.04633   0.49388 
 H                    -0.08504  -2.82966  -0.17715 
 H                    -0.5195   -2.00784   1.32134 
 C                    -1.84589  -1.63526  -1.8711 
 H                    -1.02208  -2.15638  -2.36943 
 H                    -2.68445  -2.32939  -1.75659 
 H                    -2.14428  -0.80944  -2.51943 
 
                    Distance matrix (angstroms):
                    1          2          3          4          5
     1  O    0.000000
     2  C    1.370419   0.000000
     3  C    2.533522   1.749999   0.000000
     4  C    2.449999   2.421482   1.437201   0.000000
     5  C    3.082315   3.167168   2.547303   1.477425   0.000000
     6  Fe   1.848207   3.005091   4.051201   3.825689   4.572012
     7  Cl   3.172341   4.528937   5.172578   4.314632   4.598419
     8  C    2.904251   3.339660   2.539802   1.471178   2.506747
     9  Cl   3.302623   4.084281   5.601133   5.693946   6.288721
    10  Cl   3.271166   3.868895   4.265212   4.293123   5.520261
    11  H    3.280074   2.263986   1.091926   2.099516   2.678058
    12  H    3.958501   4.198849   3.012820   2.063370   2.960125
    13  H    2.801945   3.265567   2.711600   2.151846   3.418053
    14  H    3.110098   3.885552   3.411782   2.137552   2.617105
    15  H    3.971903   4.192656   3.375350   2.123913   1.096083
    16  H    2.671204   3.121626   3.101331   2.066614   1.101944
    17  H    3.613378   3.340654   2.711552   2.165196   1.089875
    18  C    3.473176   2.744912   1.528462   2.525041   3.875946
    19  H    4.338127   3.701905   2.167610   2.811970   4.067703
    20  H    4.023683   3.025712   2.158924   3.437319   4.671364
    21  H    3.324273   2.933573   2.192867   2.854165   4.318485
    22  C    2.419879   1.524998   2.649236   3.667976   4.634641
    23  H    3.363606   2.187680   2.874588   4.151493   5.074145
    24  H    2.658384   2.113018   3.604668   4.455212   5.255037
    25  H    2.702942   2.183338   2.900261   3.813751   5.011154
    26  C    2.377595   1.529628   2.636795   3.205338   3.308044
    27  H    2.635776   2.126915   3.601130   4.097081   4.159890
    28  H    3.330958   2.187918   2.849788   3.729465   3.866509
    29  H    2.636702   2.189630   2.881885   3.009373   2.630385
                    6          7          8          9         10
     6  Fe   0.000000
     7  Cl   2.216774   0.000000
     8  C    3.570349   3.687100   0.000000
     9  Cl   2.198034   3.756057   5.705955   0.000000
    10  Cl   2.245550   3.667211   3.611722   3.678079   0.000000
    11  H    4.967978   6.047376   3.424215   6.334969   5.324905
    12  H    4.626925   4.632078   1.105579   6.770694   4.333129
    13  H    3.057988   3.579717   1.090926   5.174689   2.592752
    14  H    3.513703   2.981968   1.093046   5.664506   3.937347
    15  H    5.235906   4.867273   2.647632   7.092306   6.045839
    16  H    4.029571   3.858245   2.834358   5.612723   5.377217
    17  H    5.302672   5.538657   3.449261   6.806339   6.289172
    18  C    4.515369   5.834370   2.953498   6.062768   3.925669
    19  H    5.357242   6.408796   3.074720   7.056293   4.616491
    20  H    5.084803   6.653931   4.020388   6.319124   4.460659
    21  H    3.919189   5.306178   2.799559   5.515433   2.933475
    22  C    3.347999   5.336207   4.333848   3.900268   3.660754
    23  H    4.438112   6.384973   4.985796   4.887091   4.566499
    24  H    3.273961   5.350413   5.079228   3.188321   3.955238
    25  H    3.135254   5.183795   4.126010   3.887005   2.808504
    26  C    4.092401   5.356583   4.426790   4.740360   5.334490
    27  H    4.036535   5.385653   5.167590   4.174581   5.531331
    28  H    5.032386   6.399985   5.056316   5.598146   6.008761
    29  H    4.402629   5.218252   4.292768   5.256436   5.820441
                   11         12         13         14         15
    11  H    0.000000
    12  H    3.745996   0.000000
    13  H    3.756610   1.766982   0.000000
    14  H    4.230192   1.777762   1.793103   0.000000
    15  H    3.525060   2.790072   3.710455   2.544580   0.000000
    16  H    3.362054   3.553428   3.619103   2.618130   1.754405
    17  H    2.389573   3.799136   4.290069   3.691772   1.798036
    18  C    2.186115   3.130267   2.697167   4.011990   4.496897
    19  H    2.597994   2.850552   2.994807   4.163123   4.460167
    20  H    2.453423   4.214480   3.705779   5.057510   5.387089
    21  H    3.097512   3.093879   2.156150   3.795014   4.893076
    22  C    3.130698   5.115973   3.912126   4.998084   5.624192
    23  H    3.034093   5.623527   4.636587   5.762152   6.073172
    24  H    4.034255   5.967145   4.638776   5.584262   6.276967
    25  H    3.622754   4.850750   3.461899   4.839898   5.889452
    26  C    2.511815   5.231164   4.608119   4.827504   4.402677
    27  H    3.584660   6.073122   5.240889   5.446016   5.236307
    28  H    2.363064   5.716305   5.236066   5.602157   4.930914
    29  H    2.665675   5.058475   4.713975   4.530317   3.679243
                   16         17         18         19         20
    16  H    0.000000
    17  H    1.792490   0.000000
    18  C    4.479465   4.122393   0.000000
    19  H    4.855589   4.305671   1.095828   0.000000
    20  H    5.250524   4.726332   1.091749   1.764964   0.000000
    21  H    4.746812   4.776213   1.091763   1.774766   1.766253
    22  C    4.632964   4.767169   2.880072   3.970886   2.711731
    23  H    5.234656   5.004084   2.939145   3.952094   2.391205
    24  H    5.044594   5.384089   3.962508   5.055319   3.787080
    25  H    5.054329   5.319628   2.643800   3.709276   2.562325
    26  C    3.164060   3.054945   3.894900   4.731264   3.999150
    27  H    3.774831   3.979601   4.744654   5.666696   4.781818
    28  H    3.962738   3.368999   3.940397   4.712201   3.796836
    29  H    2.401436   2.275397   4.344119   5.019574   4.636535
                   21         22         23         24         25
    21  H    0.000000
    22  C    2.859440   0.000000
    23  H    3.195588   1.093893   0.000000
    24  H    3.841370   1.096512   1.777890   0.000000
    25  H    2.246399   1.090124   1.788140   1.763412   0.000000
    26  C    4.334237   2.512878   2.756961   2.719678   3.477037
    27  H    5.026610   2.730343   3.077920   2.477380   3.727784
    28  H    4.571496   2.760593   2.552318   3.082496   3.776774
    29  H    4.834394   3.478082   3.777060   3.715917   4.339074
                   26         27         28         29
    26  C    0.000000
    27  H    1.094781   0.000000
    28  H    1.094584   1.780153   0.000000
    29  H    1.091489   1.759566   1.784369   0.000000
 Framework group  C1[X(C8H16Cl3FeO)]
 Deg. of freedom    81
                         Standard orientation:                         
 ---------------------------------------------------------------------
 Center     Atomic      Atomic             Coordinates (Angstroms)
 Number     Number       Type             X           Y           Z
 ---------------------------------------------------------------------
      1          8           0       -0.315428   -0.235227   -0.708964
      2          6           0       -1.319063   -1.149018   -0.519885
      3          6           0       -2.646531   -0.334686    0.278357
      4          6           0       -2.344738    1.009673   -0.130502
      5          6           0       -2.731385    1.525432   -1.459893
      6         26           0        1.369690    0.099538   -0.027657
      7         17           0        1.768056    2.156644   -0.751334
      8          6           0       -1.597234    1.932030    0.738324
      9         17           0        2.748033   -1.469125   -0.713821
     10         17           0        1.135581    0.081786    2.205586
     11          1           0       -3.525057   -0.723138   -0.240873
     12          1           0       -2.363432    2.478774    1.318252
     13          1           0       -0.952455    1.424203    1.456997
     14          1           0       -1.024139    2.664485    0.164024
     15          1           0       -3.039376    2.574825   -1.386998
     16          1           0       -1.806254    1.522996   -2.058565
     17          1           0       -3.496414    0.933811   -1.962430
     18          6           0       -2.707661   -0.597633    1.782790
     19          1           0       -3.480391    0.025900    2.246399
     20          1           0       -2.972044   -1.640885    1.966207
     21          1           0       -1.757375   -0.398070    2.281866
     22          6           0       -0.903749   -2.328577    0.352912
     23          1           0       -1.717116   -3.046327    0.493879
     24          1           0       -0.085042   -2.829664   -0.177154
     25          1           0       -0.519495   -2.007835    1.321335
     26          6           0       -1.845888   -1.635257   -1.871102
     27          1           0       -1.022084   -2.156378   -2.369425
     28          1           0       -2.684445   -2.329391   -1.756589
     29          1           0       -2.144278   -0.809436   -2.519431
 ---------------------------------------------------------------------
 Rotational constants (GHZ):           0.5719612           0.3576407           0.3285856
   427 basis functions,  1056 primitive gaussians,   461 cartesian basis functions
    77 alpha electrons       72 beta electrons
       nuclear repulsion energy      1659.8480604305 Hartrees.
 NAtoms=   29 NActive=   29 NUniq=   29 SFac= 1.00D+00 NAtFMM=   60 NAOKFM=F Big=F
 Nuclear repulsion after empirical dispersion term =     1659.7459753607 Hartrees.
 Initial guess from the checkpoint file:  "checkpoint.chk"
 B after Tr=     0.000000    0.000000    0.000000
         Rot=    1.000000    0.000000    0.000000    0.000000 Ang=   0.00 deg.
 Initial guess <Sx>= 0.0000 <Sy>= 0.0000 <Sz>= 2.5000 <S**2>= 8.7614 S= 2.5019
 SCF Done:  E(UB97D3) =  -3034.60284065     A.U. after   15 cycles
            NFock= 15  Conv=0.62D-08     -V/T= 2.0020
 <Sx>= 0.0000 <Sy>= 0.0000 <Sz>= 2.5000 <S**2>= 8.7594 S= 2.5016
 <L.S>= 0.000000000000E+00
 Annihilation of the first spin contaminant:
 S**2 before annihilation     8.7594,   after     8.7500
 1\1\GINC-HOLY7C18509\SP\UB97D3\Jul-CC-pVDZ\C8H16Cl3Fe1O1(6)\EKWAN\12-F
 eb-2020\0\\#t pop=none jul-cc-pvdz guess=read ub97d3 empiricaldispersi
 on=gd3bj\\theory_abbreviation b97d3_d3bj\\0,6\O,0,-0.315428,-0.235227,
 -0.708964\C,0,-1.319063,-1.149018,-0.519885\C,0,-2.646531,-0.334686,0.
 278357\C,0,-2.344738,1.009673,-0.130502\C,0,-2.731385,1.525432,-1.4598
 93\Fe,0,1.36969,0.099538,-0.027657\Cl,0,1.768056,2.156644,-0.751334\C,
 0,-1.597234,1.93203,0.738324\Cl,0,2.748033,-1.469125,-0.713821\Cl,0,1.
 135581,0.081786,2.205586\H,0,-3.525057,-0.723138,-0.240873\H,0,-2.3634
 32,2.478774,1.318252\H,0,-0.952455,1.424203,1.456997\H,0,-1.024139,2.6
 64485,0.164024\H,0,-3.039376,2.574825,-1.386998\H,0,-1.806254,1.522996
 ,-2.058565\H,0,-3.496414,0.933811,-1.96243\C,0,-2.707661,-0.597633,1.7
 8279\H,0,-3.480391,0.0259,2.246399\H,0,-2.972044,-1.640885,1.966207\H,
 0,-1.757375,-0.39807,2.281866\C,0,-0.903749,-2.328577,0.352912\H,0,-1.
 717116,-3.046327,0.493879\H,0,-0.085042,-2.829664,-0.177154\H,0,-0.519
 495,-2.007835,1.321335\C,0,-1.845888,-1.635257,-1.871102\H,0,-1.022084
 ,-2.156378,-2.369425\H,0,-2.684445,-2.329391,-1.756589\H,0,-2.144278,-
 0.809436,-2.519431\\Version=ES64L-G16RevA.03\HF=-3034.6028406\S2=8.759
 431\S2-1=0.\S2A=8.750029\RMSD=6.186e-09\PG=C01 [X(C8H16Cl3Fe1O1)]\\@


 If your ship doesn't come in, swim out to it!
                          -- Jonathan Winters
 Job cpu time:       0 days  0 hours 47 minutes 43.2 seconds.
 Elapsed time:       0 days  0 hours 12 minutes  0.1 seconds.
 File lengths (MBytes):  RWF=    174 Int=      0 D2E=      0 Chk=     13 Scr=      1
 Normal termination of Gaussian 16 at Wed Feb 12 00:24:48 2020.
