 Entering Gaussian System, Link 0=g16
 Input=simple-grid-180-215-b3lyp_d3bj-631gd-gas-singlepoint-DFT-juldz2-gas.gjf
 Output=simple-grid-180-215-b3lyp_d3bj-631gd-gas-singlepoint-DFT-juldz2-gas.out
 Initial command:
 /n/sw/g16_nehalem/g16/l1.exe "/scratch/Gau-274532.inp" -scrdir="/scratch/"
 Entering Link 1 = /n/sw/g16_nehalem/g16/l1.exe PID=    274539.
  
 Copyright (c) 1988,1990,1992,1993,1995,1998,2003,2009,2016,
            Gaussian, Inc.  All Rights Reserved.
  
 This is part of the Gaussian(R) 16 program.  It is based on
 the Gaussian(R) 09 system (copyright 2009, Gaussian, Inc.),
 the Gaussian(R) 03 system (copyright 2003, Gaussian, Inc.),
 the Gaussian(R) 98 system (copyright 1998, Gaussian, Inc.),
 the Gaussian(R) 94 system (copyright 1995, Gaussian, Inc.),
 the Gaussian 92(TM) system (copyright 1992, Gaussian, Inc.),
 the Gaussian 90(TM) system (copyright 1990, Gaussian, Inc.),
 the Gaussian 88(TM) system (copyright 1988, Gaussian, Inc.),
 the Gaussian 86(TM) system (copyright 1986, Carnegie Mellon
 University), and the Gaussian 82(TM) system (copyright 1983,
 Carnegie Mellon University). Gaussian is a federally registered
 trademark of Gaussian, Inc.
  
 This software contains proprietary and confidential information,
 including trade secrets, belonging to Gaussian, Inc.
  
 This software is provided under written license and may be
 used, copied, transmitted, or stored only in accord with that
 written license.
  
 The following legend is applicable only to US Government
 contracts under FAR:
  
                    RESTRICTED RIGHTS LEGEND
  
 Use, reproduction and disclosure by the US Government is
 subject to restrictions as set forth in subparagraphs (a)
 and (c) of the Commercial Computer Software - Restricted
 Rights clause in FAR 52.227-19.
  
 Gaussian, Inc.
 340 Quinnipiac St., Bldg. 40, Wallingford CT 06492
  
  
 ---------------------------------------------------------------
 Warning -- This program may not be used in any manner that
 competes with the business of Gaussian, Inc. or will provide
 assistance to any competitor of Gaussian, Inc.  The licensee
 of this program is prohibited from giving any competitor of
 Gaussian, Inc. access to this program.  By using this program,
 the user acknowledges that Gaussian, Inc. is engaged in the
 business of creating and licensing software in the field of
 computational chemistry and represents and warrants to the
 licensee that it is not a competitor of Gaussian, Inc. and that
 it will not use this program in any manner prohibited above.
 ---------------------------------------------------------------
  

 Cite this work as:
 Gaussian 16, Revision A.03,
 M. J. Frisch, G. W. Trucks, H. B. Schlegel, G. E. Scuseria, 
 M. A. Robb, J. R. Cheeseman, G. Scalmani, V. Barone, 
 G. A. Petersson, H. Nakatsuji, X. Li, M. Caricato, A. V. Marenich, 
 J. Bloino, B. G. Janesko, R. Gomperts, B. Mennucci, H. P. Hratchian, 
 J. V. Ortiz, A. F. Izmaylov, J. L. Sonnenberg, D. Williams-Young, 
 F. Ding, F. Lipparini, F. Egidi, J. Goings, B. Peng, A. Petrone, 
 T. Henderson, D. Ranasinghe, V. G. Zakrzewski, J. Gao, N. Rega, 
 G. Zheng, W. Liang, M. Hada, M. Ehara, K. Toyota, R. Fukuda, 
 J. Hasegawa, M. Ishida, T. Nakajima, Y. Honda, O. Kitao, H. Nakai, 
 T. Vreven, K. Throssell, J. A. Montgomery, Jr., J. E. Peralta, 
 F. Ogliaro, M. J. Bearpark, J. J. Heyd, E. N. Brothers, K. N. Kudin, 
 V. N. Staroverov, T. A. Keith, R. Kobayashi, J. Normand, 
 K. Raghavachari, A. P. Rendell, J. C. Burant, S. S. Iyengar, 
 J. Tomasi, M. Cossi, J. M. Millam, M. Klene, C. Adamo, R. Cammi, 
 J. W. Ochterski, R. L. Martin, K. Morokuma, O. Farkas, 
 J. B. Foresman, and D. J. Fox, Gaussian, Inc., Wallingford CT, 2016.
 
 ******************************************
 Gaussian 16:  ES64L-G16RevA.03 25-Dec-2016
                11-Feb-2020 
 ******************************************
 %chk=checkpoint.chk
 %mem=3GB
 %nprocshared=4
 Will use up to    4 processors via shared memory.
 --------------------------------
 #t pop=none jul-cc-pvdz upbe1pbe
 --------------------------------
 ------------------------
 theory_abbreviation pbe0
 ------------------------
 Symbolic Z-matrix:
 Charge =  0 Multiplicity = 6
 O                    -0.36949  -0.21675  -0.55851 
 C                    -1.39029  -1.1972   -0.40447 
 C                    -2.81708  -0.12841  -0.15553 
 C                    -2.02641   1.12171  -0.26575 
 C                    -1.91901   1.81551  -1.56901 
 Fe                    1.37931   0.04287   0.03391 
 Cl                    1.7973    2.05188  -0.81309 
 C                    -1.57127   1.84905   0.93923 
 Cl                    2.5755   -1.64074  -0.70883 
 Cl                    1.3026    0.13128   2.25277 
 H                    -3.44527  -0.2618   -1.03899 
 H                    -2.4348    2.4398    1.28898 
 H                    -1.27967   1.1814    1.75113 
 H                    -0.75131   2.53319   0.71256 
 H                    -2.66292   2.62998  -1.55648 
 H                    -0.92991   2.26818  -1.68527 
 H                    -2.14402   1.15943  -2.41078 
 C                    -3.59605  -0.37212   1.12656 
 H                    -4.40704   0.35721   1.24117 
 H                    -4.05156  -1.36602   1.09661 
 H                    -2.9675   -0.32157   2.01835 
 C                    -1.1585   -2.09192   0.7919 
 H                    -1.98201  -2.79893   0.92982 
 H                    -0.24146  -2.66642   0.60959 
 H                    -1.00642  -1.51986   1.7087 
 C                    -1.57044  -1.95939  -1.70046 
 H                    -0.64333  -2.50672  -1.90862 
 H                    -2.39672  -2.67494  -1.63289 
 H                    -1.74986  -1.27795  -2.53672 
 
                    Distance matrix (angstroms):
                    1          2          3          4          5
     1  O    0.000000
     2  C    1.423748   0.000000
     3  C    2.482116   1.799998   0.000000
     4  C    2.150011   2.408570   1.483278   0.000000
     5  C    2.748125   3.272935   2.565786   1.480330   0.000000
     6  Fe   1.864579   3.066047   4.204155   3.585051   4.073146
     7  Cl   3.147457   4.569933   5.145736   3.973104   3.799774
     8  C    2.820465   3.334352   2.580872   1.479234   2.532444
     9  Cl   3.274649   4.002113   5.627897   5.385629   5.734652
    10  Cl   3.289417   4.009661   4.779026   4.290236   5.274594
    11  H    3.113409   2.345320   1.092205   2.127243   2.631646
    12  H    3.838747   4.145663   2.971276   2.078781   2.970499
    13  H    2.849157   3.211942   2.777520   2.151506   3.440083
    14  H    3.053447   3.946115   3.479238   2.138977   2.661602
    15  H    3.789404   4.194517   3.097598   2.084707   1.103135
    16  H    2.785418   3.723078   3.412504   2.128793   1.093963
    17  H    2.910961   3.185448   2.682847   2.148582   1.090707
    18  C    3.643395   2.808946   1.519854   2.575622   3.855419
    19  H    4.457589   3.771613   2.171310   2.919363   4.026663
    20  H    4.197370   3.060077   2.150228   3.485121   4.666412
    21  H    3.660718   3.020654   2.187626   2.861082   4.305291
    22  C    2.441803   1.511800   2.739320   3.492743   4.628199
    23  H    3.388664   2.167026   3.001169   4.099119   5.247969
    24  H    2.716933   2.122906   3.696041   4.278100   5.258148
    25  H    2.691470   2.171846   2.947873   3.452052   4.764539
    26  C    2.404814   1.514263   2.700629   3.429209   3.793236
    27  H    2.672404   2.129619   3.668085   4.216326   4.519330
    28  H    3.362542   2.169251   2.973902   4.052253   4.516240
    29  H    2.635318   2.163868   2.851393   3.315442   3.245699
                    6          7          8          9         10
     6  Fe   0.000000
     7  Cl   2.219969   0.000000
     8  C    3.576009   3.802504   0.000000
     9  Cl   2.194783   3.775176   5.664846   0.000000
    10  Cl   2.221943   3.651426   3.596564   3.678501   0.000000
    11  H    4.951817   5.734867   3.446866   6.185482   5.790718
    12  H    4.676315   4.741291   1.103172   6.763518   4.497365
    13  H    3.363821   4.098867   1.090864   5.373847   2.832401
    14  H    3.346909   3.009098   1.091676   5.523559   3.515673
    15  H    5.055892   4.558549   2.833736   6.811649   6.039796
    16  H    3.638697   2.871443   2.734044   5.340513   5.005857
    17  H    4.431366   4.345466   3.467870   5.745557   5.889385
    18  C    5.110808   6.223047   3.011384   6.562482   5.051588
    19  H    5.919303   6.751723   3.218438   7.519987   5.802959
    20  H    5.710401   7.038341   4.063658   6.874086   5.678525
    21  H    4.792241   6.029396   2.797415   6.316850   4.300434
    22  C    3.401812   5.337023   3.965262   4.049507   3.624043
    23  H    4.491879   6.391508   4.666107   4.979711   4.596189
    24  H    3.209130   5.333190   4.718743   3.274979   3.593219
    25  H    3.307380   5.193999   3.501529   4.323105   2.890302
    26  C    3.964603   5.312196   4.633807   4.274774   5.315375
    27  H    3.790099   5.285613   5.286211   3.542636   5.297429
    28  H    4.941976   6.372190   5.269123   5.162024   6.054598
    29  H    4.259625   5.161500   4.678913   4.709734   5.851718
                   11         12         13         14         15
    11  H    0.000000
    12  H    3.706634   0.000000
    13  H    3.815420   1.769599   0.000000
    14  H    4.258787   1.781885   1.784692   0.000000
    15  H    3.040099   2.860916   3.866786   2.968523   0.000000
    16  H    3.625672   3.337710   3.621091   2.419030   1.775045
    17  H    2.365360   3.925826   4.250771   3.685383   1.778086
    18  C    2.173597   3.046603   2.858173   4.087146   4.133038
    19  H    2.550945   2.868661   3.274110   4.287035   4.004283
    20  H    2.479454   4.139473   3.821147   5.122792   4.993515
    21  H    3.095027   2.905320   2.275758   3.842679   4.645833
    22  C    3.454104   4.734181   3.413120   4.643668   5.484014
    23  H    3.529082   5.270516   4.124425   5.476616   6.009855
    24  H    4.331793   5.598731   4.145685   5.225556   6.213460
    25  H    3.883360   4.230287   2.715376   4.181454   5.534118
    26  C    2.614260   5.388577   4.675746   5.164966   4.719800
    27  H    3.694158   6.156465   5.234589   5.681801   5.530674
    28  H    2.697301   5.890617   5.250789   5.944166   5.312140
    29  H    2.479952   5.378364   4.965397   5.106826   4.131152
                   16         17         18         19         20
    16  H    0.000000
    17  H    1.797149   0.000000
    18  C    4.688914   4.119077   0.000000
    19  H    4.930144   4.370533   1.096700   0.000000
    20  H    5.539947   4.724232   1.093724   1.765444   0.000000
    21  H    4.957356   4.742218   1.092215   1.771164   1.765137
    22  C    5.019871   4.669007   3.001896   4.093052   2.998264
    23  H    5.798389   5.182130   2.921176   3.992358   2.522714
    24  H    5.485494   5.232535   4.096876   5.185875   4.055258
    25  H    5.086664   5.044081   2.891778   3.912308   3.109854
    26  C    4.275850   3.249703   3.822905   4.697462   3.785716
    27  H    4.788706   3.993101   4.742091   5.682323   4.684937
    28  H    5.156431   3.920632   3.788925   4.636328   3.449914
    29  H    3.737961   2.472252   4.201021   4.899675   4.301935
                   21         22         23         24         25
    21  H    0.000000
    22  C    2.812614   0.000000
    23  H    2.879832   1.094108   0.000000
    24  H    3.861898   1.097386   1.774723   0.000000
    25  H    2.318968   1.091275   1.787300   1.762898   0.000000
    26  C    4.296954   2.529651   2.791526   2.757245   3.483339
    27  H    5.059424   2.780339   3.151861   2.555068   3.767054
    28  H    4.381294   2.784376   2.599012   3.110298   3.799125
    29  H    4.811029   3.477354   3.792652   3.755315   4.316803
                   26         27         28         29
    26  C    0.000000
    27  H    1.096555   0.000000
    28  H    1.095138   1.782898   0.000000
    29  H    1.093566   1.768842   1.785196   0.000000
 Framework group  C1[X(C8H16Cl3FeO)]
 Deg. of freedom    81
                         Standard orientation:                         
 ---------------------------------------------------------------------
 Center     Atomic      Atomic             Coordinates (Angstroms)
 Number     Number       Type             X           Y           Z
 ---------------------------------------------------------------------
      1          8           0       -0.369488   -0.216748   -0.558510
      2          6           0       -1.390293   -1.197200   -0.404465
      3          6           0       -2.817080   -0.128413   -0.155533
      4          6           0       -2.026405    1.121707   -0.265746
      5          6           0       -1.919012    1.815508   -1.569005
      6         26           0        1.379311    0.042867    0.033907
      7         17           0        1.797303    2.051884   -0.813086
      8          6           0       -1.571272    1.849051    0.939226
      9         17           0        2.575503   -1.640742   -0.708829
     10         17           0        1.302599    0.131275    2.252765
     11          1           0       -3.445268   -0.261796   -1.038992
     12          1           0       -2.434797    2.439800    1.288982
     13          1           0       -1.279668    1.181399    1.751133
     14          1           0       -0.751310    2.533186    0.712559
     15          1           0       -2.662916    2.629975   -1.556477
     16          1           0       -0.929911    2.268185   -1.685270
     17          1           0       -2.144015    1.159429   -2.410775
     18          6           0       -3.596054   -0.372119    1.126560
     19          1           0       -4.407039    0.357208    1.241173
     20          1           0       -4.051562   -1.366024    1.096606
     21          1           0       -2.967497   -0.321565    2.018352
     22          6           0       -1.158497   -2.091915    0.791903
     23          1           0       -1.982011   -2.798933    0.929823
     24          1           0       -0.241456   -2.666418    0.609587
     25          1           0       -1.006423   -1.519861    1.708696
     26          6           0       -1.570437   -1.959390   -1.700461
     27          1           0       -0.643326   -2.506717   -1.908620
     28          1           0       -2.396723   -2.674941   -1.632891
     29          1           0       -1.749862   -1.277949   -2.536721
 ---------------------------------------------------------------------
 Rotational constants (GHZ):           0.5720061           0.3594262           0.3241680
   427 basis functions,  1056 primitive gaussians,   461 cartesian basis functions
    77 alpha electrons       72 beta electrons
       nuclear repulsion energy      1657.9250723264 Hartrees.
 NAtoms=   29 NActive=   29 NUniq=   29 SFac= 1.00D+00 NAtFMM=   60 NAOKFM=F Big=F
 ExpMin= 1.40D-02 ExpMax= 4.32D+06 ExpMxC= 4.91D+03 IAcc=3 IRadAn=         5 AccDes= 0.00D+00
 Harris functional with IExCor= 1009 and IRadAn=       5 diagonalized for initial guess.
 HarFok:  IExCor= 1009 AccDes= 0.00D+00 IRadAn=         5 IDoV= 1 UseB2=F ITyADJ=14
 ICtDFT=  3500011 ScaDFX=  1.000000  1.000000  1.000000  1.000000
 FoFCou: FMM=F IPFlag=           0 FMFlag=      100000 FMFlg1=           0
         NFxFlg=           0 DoJE=T BraDBF=F KetDBF=T FulRan=T
         wScrn=  0.000000 ICntrl=       500 IOpCl=  0 I1Cent=   200000004 NGrid=           0
         NMat0=    1 NMatS0=      1 NMatT0=    0 NMatD0=    1 NMtDS0=    0 NMtDT0=    0
 Petite list used in FoFCou.
 Initial guess <Sx>= 0.0000 <Sy>= 0.0000 <Sz>= 2.5000 <S**2>= 8.7500 S= 2.5000
 EnCoef did   100 forward-backward iterations
 Restarting incremental Fock formation.
 SCF Done:  E(UPBE1PBE) =  -3033.10614203     A.U. after   21 cycles
            NFock= 21  Conv=0.53D-08     -V/T= 2.0022
 <Sx>= 0.0000 <Sy>= 0.0000 <Sz>= 2.5000 <S**2>= 8.7626 S= 2.5021
 <L.S>= 0.000000000000E+00
 Annihilation of the first spin contaminant:
 S**2 before annihilation     8.7626,   after     8.7500
 1\1\GINC-HOLY7C04303\SP\UPBE1PBE\Jul-CC-pVDZ\C8H16Cl3Fe1O1(6)\EKWAN\11
 -Feb-2020\0\\#t pop=none jul-cc-pvdz upbe1pbe\\theory_abbreviation pbe
 0\\0,6\O,0,-0.369488,-0.216748,-0.55851\C,0,-1.390293,-1.1972,-0.40446
 5\C,0,-2.81708,-0.128413,-0.155533\C,0,-2.026405,1.121707,-0.265746\C,
 0,-1.919012,1.815508,-1.569005\Fe,0,1.379311,0.042867,0.033907\Cl,0,1.
 797303,2.051884,-0.813086\C,0,-1.571272,1.849051,0.939226\Cl,0,2.57550
 3,-1.640742,-0.708829\Cl,0,1.302599,0.131275,2.252765\H,0,-3.445268,-0
 .261796,-1.038992\H,0,-2.434797,2.4398,1.288982\H,0,-1.279668,1.181399
 ,1.751133\H,0,-0.75131,2.533186,0.712559\H,0,-2.662916,2.629975,-1.556
 477\H,0,-0.929911,2.268185,-1.68527\H,0,-2.144015,1.159429,-2.410775\C
 ,0,-3.596054,-0.372119,1.12656\H,0,-4.407039,0.357208,1.241173\H,0,-4.
 051562,-1.366024,1.096606\H,0,-2.967497,-0.321565,2.018352\C,0,-1.1584
 97,-2.091915,0.791903\H,0,-1.982011,-2.798933,0.929823\H,0,-0.241456,-
 2.666418,0.609587\H,0,-1.006423,-1.519861,1.708696\C,0,-1.570437,-1.95
 939,-1.700461\H,0,-0.643326,-2.506717,-1.90862\H,0,-2.396723,-2.674941
 ,-1.632891\H,0,-1.749862,-1.277949,-2.536721\\Version=ES64L-G16RevA.03
 \HF=-3033.106142\S2=8.762606\S2-1=0.\S2A=8.75005\RMSD=5.324e-09\PG=C01
  [X(C8H16Cl3Fe1O1)]\\@


 My opinions may have changed, but not the fact that I am right.
                       -- Ashleigh Brilliant
 Job cpu time:       0 days  1 hours 30 minutes 31.1 seconds.
 Elapsed time:       0 days  0 hours 22 minutes 42.3 seconds.
 File lengths (MBytes):  RWF=    173 Int=      0 D2E=      0 Chk=     13 Scr=      1
 Normal termination of Gaussian 16 at Tue Feb 11 13:58:14 2020.
 Initial command:
 /n/sw/g16_nehalem/g16/l1.exe "/scratch/Gau-274532.inp" -scrdir="/scratch/"
 Entering Link 1 = /n/sw/g16_nehalem/g16/l1.exe PID=    276323.
  
 Copyright (c) 1988,1990,1992,1993,1995,1998,2003,2009,2016,
            Gaussian, Inc.  All Rights Reserved.
  
 This is part of the Gaussian(R) 16 program.  It is based on
 the Gaussian(R) 09 system (copyright 2009, Gaussian, Inc.),
 the Gaussian(R) 03 system (copyright 2003, Gaussian, Inc.),
 the Gaussian(R) 98 system (copyright 1998, Gaussian, Inc.),
 the Gaussian(R) 94 system (copyright 1995, Gaussian, Inc.),
 the Gaussian 92(TM) system (copyright 1992, Gaussian, Inc.),
 the Gaussian 90(TM) system (copyright 1990, Gaussian, Inc.),
 the Gaussian 88(TM) system (copyright 1988, Gaussian, Inc.),
 the Gaussian 86(TM) system (copyright 1986, Carnegie Mellon
 University), and the Gaussian 82(TM) system (copyright 1983,
 Carnegie Mellon University). Gaussian is a federally registered
 trademark of Gaussian, Inc.
  
 This software contains proprietary and confidential information,
 including trade secrets, belonging to Gaussian, Inc.
  
 This software is provided under written license and may be
 used, copied, transmitted, or stored only in accord with that
 written license.
  
 The following legend is applicable only to US Government
 contracts under FAR:
  
                    RESTRICTED RIGHTS LEGEND
  
 Use, reproduction and disclosure by the US Government is
 subject to restrictions as set forth in subparagraphs (a)
 and (c) of the Commercial Computer Software - Restricted
 Rights clause in FAR 52.227-19.
  
 Gaussian, Inc.
 340 Quinnipiac St., Bldg. 40, Wallingford CT 06492
  
  
 ---------------------------------------------------------------
 Warning -- This program may not be used in any manner that
 competes with the business of Gaussian, Inc. or will provide
 assistance to any competitor of Gaussian, Inc.  The licensee
 of this program is prohibited from giving any competitor of
 Gaussian, Inc. access to this program.  By using this program,
 the user acknowledges that Gaussian, Inc. is engaged in the
 business of creating and licensing software in the field of
 computational chemistry and represents and warrants to the
 licensee that it is not a competitor of Gaussian, Inc. and that
 it will not use this program in any manner prohibited above.
 ---------------------------------------------------------------
  

 Cite this work as:
 Gaussian 16, Revision A.03,
 M. J. Frisch, G. W. Trucks, H. B. Schlegel, G. E. Scuseria, 
 M. A. Robb, J. R. Cheeseman, G. Scalmani, V. Barone, 
 G. A. Petersson, H. Nakatsuji, X. Li, M. Caricato, A. V. Marenich, 
 J. Bloino, B. G. Janesko, R. Gomperts, B. Mennucci, H. P. Hratchian, 
 J. V. Ortiz, A. F. Izmaylov, J. L. Sonnenberg, D. Williams-Young, 
 F. Ding, F. Lipparini, F. Egidi, J. Goings, B. Peng, A. Petrone, 
 T. Henderson, D. Ranasinghe, V. G. Zakrzewski, J. Gao, N. Rega, 
 G. Zheng, W. Liang, M. Hada, M. Ehara, K. Toyota, R. Fukuda, 
 J. Hasegawa, M. Ishida, T. Nakajima, Y. Honda, O. Kitao, H. Nakai, 
 T. Vreven, K. Throssell, J. A. Montgomery, Jr., J. E. Peralta, 
 F. Ogliaro, M. J. Bearpark, J. J. Heyd, E. N. Brothers, K. N. Kudin, 
 V. N. Staroverov, T. A. Keith, R. Kobayashi, J. Normand, 
 K. Raghavachari, A. P. Rendell, J. C. Burant, S. S. Iyengar, 
 J. Tomasi, M. Cossi, J. M. Millam, M. Klene, C. Adamo, R. Cammi, 
 J. W. Ochterski, R. L. Martin, K. Morokuma, O. Farkas, 
 J. B. Foresman, and D. J. Fox, Gaussian, Inc., Wallingford CT, 2016.
 
 ******************************************
 Gaussian 16:  ES64L-G16RevA.03 25-Dec-2016
                11-Feb-2020 
 ******************************************
 %chk=checkpoint.chk
 %mem=3GB
 %nprocshared=4
 Will use up to    4 processors via shared memory.
 ---------------------------------------------------------------------
 #t pop=none jul-cc-pvdz guess=read upbe1pbe empiricaldispersion=gd3bj
 ---------------------------------------------------------------------
 -----------------------------
 theory_abbreviation pbe0_d3bj
 -----------------------------
 Symbolic Z-matrix:
 Charge =  0 Multiplicity = 6
 O                    -0.36949  -0.21675  -0.55851 
 C                    -1.39029  -1.1972   -0.40447 
 C                    -2.81708  -0.12841  -0.15553 
 C                    -2.02641   1.12171  -0.26575 
 C                    -1.91901   1.81551  -1.56901 
 Fe                    1.37931   0.04287   0.03391 
 Cl                    1.7973    2.05188  -0.81309 
 C                    -1.57127   1.84905   0.93923 
 Cl                    2.5755   -1.64074  -0.70883 
 Cl                    1.3026    0.13128   2.25277 
 H                    -3.44527  -0.2618   -1.03899 
 H                    -2.4348    2.4398    1.28898 
 H                    -1.27967   1.1814    1.75113 
 H                    -0.75131   2.53319   0.71256 
 H                    -2.66292   2.62998  -1.55648 
 H                    -0.92991   2.26818  -1.68527 
 H                    -2.14402   1.15943  -2.41078 
 C                    -3.59605  -0.37212   1.12656 
 H                    -4.40704   0.35721   1.24117 
 H                    -4.05156  -1.36602   1.09661 
 H                    -2.9675   -0.32157   2.01835 
 C                    -1.1585   -2.09192   0.7919 
 H                    -1.98201  -2.79893   0.92982 
 H                    -0.24146  -2.66642   0.60959 
 H                    -1.00642  -1.51986   1.7087 
 C                    -1.57044  -1.95939  -1.70046 
 H                    -0.64333  -2.50672  -1.90862 
 H                    -2.39672  -2.67494  -1.63289 
 H                    -1.74986  -1.27795  -2.53672 
 
                    Distance matrix (angstroms):
                    1          2          3          4          5
     1  O    0.000000
     2  C    1.423748   0.000000
     3  C    2.482116   1.799998   0.000000
     4  C    2.150011   2.408570   1.483278   0.000000
     5  C    2.748125   3.272935   2.565786   1.480330   0.000000
     6  Fe   1.864579   3.066047   4.204155   3.585051   4.073146
     7  Cl   3.147457   4.569933   5.145736   3.973104   3.799774
     8  C    2.820465   3.334352   2.580872   1.479234   2.532444
     9  Cl   3.274649   4.002113   5.627897   5.385629   5.734652
    10  Cl   3.289417   4.009661   4.779026   4.290236   5.274594
    11  H    3.113409   2.345320   1.092205   2.127243   2.631646
    12  H    3.838747   4.145663   2.971276   2.078781   2.970499
    13  H    2.849157   3.211942   2.777520   2.151506   3.440083
    14  H    3.053447   3.946115   3.479238   2.138977   2.661602
    15  H    3.789404   4.194517   3.097598   2.084707   1.103135
    16  H    2.785418   3.723078   3.412504   2.128793   1.093963
    17  H    2.910961   3.185448   2.682847   2.148582   1.090707
    18  C    3.643395   2.808946   1.519854   2.575622   3.855419
    19  H    4.457589   3.771613   2.171310   2.919363   4.026663
    20  H    4.197370   3.060077   2.150228   3.485121   4.666412
    21  H    3.660718   3.020654   2.187626   2.861082   4.305291
    22  C    2.441803   1.511800   2.739320   3.492743   4.628199
    23  H    3.388664   2.167026   3.001169   4.099119   5.247969
    24  H    2.716933   2.122906   3.696041   4.278100   5.258148
    25  H    2.691470   2.171846   2.947873   3.452052   4.764539
    26  C    2.404814   1.514263   2.700629   3.429209   3.793236
    27  H    2.672404   2.129619   3.668085   4.216326   4.519330
    28  H    3.362542   2.169251   2.973902   4.052253   4.516240
    29  H    2.635318   2.163868   2.851393   3.315442   3.245699
                    6          7          8          9         10
     6  Fe   0.000000
     7  Cl   2.219969   0.000000
     8  C    3.576009   3.802504   0.000000
     9  Cl   2.194783   3.775176   5.664846   0.000000
    10  Cl   2.221943   3.651426   3.596564   3.678501   0.000000
    11  H    4.951817   5.734867   3.446866   6.185482   5.790718
    12  H    4.676315   4.741291   1.103172   6.763518   4.497365
    13  H    3.363821   4.098867   1.090864   5.373847   2.832401
    14  H    3.346909   3.009098   1.091676   5.523559   3.515673
    15  H    5.055892   4.558549   2.833736   6.811649   6.039796
    16  H    3.638697   2.871443   2.734044   5.340513   5.005857
    17  H    4.431366   4.345466   3.467870   5.745557   5.889385
    18  C    5.110808   6.223047   3.011384   6.562482   5.051588
    19  H    5.919303   6.751723   3.218438   7.519987   5.802959
    20  H    5.710401   7.038341   4.063658   6.874086   5.678525
    21  H    4.792241   6.029396   2.797415   6.316850   4.300434
    22  C    3.401812   5.337023   3.965262   4.049507   3.624043
    23  H    4.491879   6.391508   4.666107   4.979711   4.596189
    24  H    3.209130   5.333190   4.718743   3.274979   3.593219
    25  H    3.307380   5.193999   3.501529   4.323105   2.890302
    26  C    3.964603   5.312196   4.633807   4.274774   5.315375
    27  H    3.790099   5.285613   5.286211   3.542636   5.297429
    28  H    4.941976   6.372190   5.269123   5.162024   6.054598
    29  H    4.259625   5.161500   4.678913   4.709734   5.851718
                   11         12         13         14         15
    11  H    0.000000
    12  H    3.706634   0.000000
    13  H    3.815420   1.769599   0.000000
    14  H    4.258787   1.781885   1.784692   0.000000
    15  H    3.040099   2.860916   3.866786   2.968523   0.000000
    16  H    3.625672   3.337710   3.621091   2.419030   1.775045
    17  H    2.365360   3.925826   4.250771   3.685383   1.778086
    18  C    2.173597   3.046603   2.858173   4.087146   4.133038
    19  H    2.550945   2.868661   3.274110   4.287035   4.004283
    20  H    2.479454   4.139473   3.821147   5.122792   4.993515
    21  H    3.095027   2.905320   2.275758   3.842679   4.645833
    22  C    3.454104   4.734181   3.413120   4.643668   5.484014
    23  H    3.529082   5.270516   4.124425   5.476616   6.009855
    24  H    4.331793   5.598731   4.145685   5.225556   6.213460
    25  H    3.883360   4.230287   2.715376   4.181454   5.534118
    26  C    2.614260   5.388577   4.675746   5.164966   4.719800
    27  H    3.694158   6.156465   5.234589   5.681801   5.530674
    28  H    2.697301   5.890617   5.250789   5.944166   5.312140
    29  H    2.479952   5.378364   4.965397   5.106826   4.131152
                   16         17         18         19         20
    16  H    0.000000
    17  H    1.797149   0.000000
    18  C    4.688914   4.119077   0.000000
    19  H    4.930144   4.370533   1.096700   0.000000
    20  H    5.539947   4.724232   1.093724   1.765444   0.000000
    21  H    4.957356   4.742218   1.092215   1.771164   1.765137
    22  C    5.019871   4.669007   3.001896   4.093052   2.998264
    23  H    5.798389   5.182130   2.921176   3.992358   2.522714
    24  H    5.485494   5.232535   4.096876   5.185875   4.055258
    25  H    5.086664   5.044081   2.891778   3.912308   3.109854
    26  C    4.275850   3.249703   3.822905   4.697462   3.785716
    27  H    4.788706   3.993101   4.742091   5.682323   4.684937
    28  H    5.156431   3.920632   3.788925   4.636328   3.449914
    29  H    3.737961   2.472252   4.201021   4.899675   4.301935
                   21         22         23         24         25
    21  H    0.000000
    22  C    2.812614   0.000000
    23  H    2.879832   1.094108   0.000000
    24  H    3.861898   1.097386   1.774723   0.000000
    25  H    2.318968   1.091275   1.787300   1.762898   0.000000
    26  C    4.296954   2.529651   2.791526   2.757245   3.483339
    27  H    5.059424   2.780339   3.151861   2.555068   3.767054
    28  H    4.381294   2.784376   2.599012   3.110298   3.799125
    29  H    4.811029   3.477354   3.792652   3.755315   4.316803
                   26         27         28         29
    26  C    0.000000
    27  H    1.096555   0.000000
    28  H    1.095138   1.782898   0.000000
    29  H    1.093566   1.768842   1.785196   0.000000
 Framework group  C1[X(C8H16Cl3FeO)]
 Deg. of freedom    81
                         Standard orientation:                         
 ---------------------------------------------------------------------
 Center     Atomic      Atomic             Coordinates (Angstroms)
 Number     Number       Type             X           Y           Z
 ---------------------------------------------------------------------
      1          8           0       -0.369488   -0.216748   -0.558510
      2          6           0       -1.390293   -1.197200   -0.404465
      3          6           0       -2.817080   -0.128413   -0.155533
      4          6           0       -2.026405    1.121707   -0.265746
      5          6           0       -1.919012    1.815508   -1.569005
      6         26           0        1.379311    0.042867    0.033907
      7         17           0        1.797303    2.051884   -0.813086
      8          6           0       -1.571272    1.849051    0.939226
      9         17           0        2.575503   -1.640742   -0.708829
     10         17           0        1.302599    0.131275    2.252765
     11          1           0       -3.445268   -0.261796   -1.038992
     12          1           0       -2.434797    2.439800    1.288982
     13          1           0       -1.279668    1.181399    1.751133
     14          1           0       -0.751310    2.533186    0.712559
     15          1           0       -2.662916    2.629975   -1.556477
     16          1           0       -0.929911    2.268185   -1.685270
     17          1           0       -2.144015    1.159429   -2.410775
     18          6           0       -3.596054   -0.372119    1.126560
     19          1           0       -4.407039    0.357208    1.241173
     20          1           0       -4.051562   -1.366024    1.096606
     21          1           0       -2.967497   -0.321565    2.018352
     22          6           0       -1.158497   -2.091915    0.791903
     23          1           0       -1.982011   -2.798933    0.929823
     24          1           0       -0.241456   -2.666418    0.609587
     25          1           0       -1.006423   -1.519861    1.708696
     26          6           0       -1.570437   -1.959390   -1.700461
     27          1           0       -0.643326   -2.506717   -1.908620
     28          1           0       -2.396723   -2.674941   -1.632891
     29          1           0       -1.749862   -1.277949   -2.536721
 ---------------------------------------------------------------------
 Rotational constants (GHZ):           0.5720061           0.3594262           0.3241680
   427 basis functions,  1056 primitive gaussians,   461 cartesian basis functions
    77 alpha electrons       72 beta electrons
       nuclear repulsion energy      1657.9250723264 Hartrees.
 NAtoms=   29 NActive=   29 NUniq=   29 SFac= 1.00D+00 NAtFMM=   60 NAOKFM=F Big=F
 Nuclear repulsion after empirical dispersion term =     1657.8881361817 Hartrees.
 Initial guess from the checkpoint file:  "checkpoint.chk"
 B after Tr=     0.000000    0.000000    0.000000
         Rot=    1.000000    0.000000    0.000000    0.000000 Ang=   0.00 deg.
 Initial guess <Sx>= 0.0000 <Sy>= 0.0000 <Sz>= 2.5000 <S**2>= 8.7626 S= 2.5021
 SCF Done:  E(UPBE1PBE) =  -3033.14307818     A.U. after    1 cycles
            NFock=  1  Conv=0.19D-08     -V/T= 2.0022
 <Sx>= 0.0000 <Sy>= 0.0000 <Sz>= 2.5000 <S**2>= 8.7626 S= 2.5021
 <L.S>= 0.000000000000E+00
 Annihilation of the first spin contaminant:
 S**2 before annihilation     8.7626,   after     8.7500
 1\1\GINC-HOLY7C04303\SP\UPBE1PBE\Jul-CC-pVDZ\C8H16Cl3Fe1O1(6)\EKWAN\11
 -Feb-2020\0\\#t pop=none jul-cc-pvdz guess=read upbe1pbe empiricaldisp
 ersion=gd3bj\\theory_abbreviation pbe0_d3bj\\0,6\O,0,-0.369488,-0.2167
 48,-0.55851\C,0,-1.390293,-1.1972,-0.404465\C,0,-2.81708,-0.128413,-0.
 155533\C,0,-2.026405,1.121707,-0.265746\C,0,-1.919012,1.815508,-1.5690
 05\Fe,0,1.379311,0.042867,0.033907\Cl,0,1.797303,2.051884,-0.813086\C,
 0,-1.571272,1.849051,0.939226\Cl,0,2.575503,-1.640742,-0.708829\Cl,0,1
 .302599,0.131275,2.252765\H,0,-3.445268,-0.261796,-1.038992\H,0,-2.434
 797,2.4398,1.288982\H,0,-1.279668,1.181399,1.751133\H,0,-0.75131,2.533
 186,0.712559\H,0,-2.662916,2.629975,-1.556477\H,0,-0.929911,2.268185,-
 1.68527\H,0,-2.144015,1.159429,-2.410775\C,0,-3.596054,-0.372119,1.126
 56\H,0,-4.407039,0.357208,1.241173\H,0,-4.051562,-1.366024,1.096606\H,
 0,-2.967497,-0.321565,2.018352\C,0,-1.158497,-2.091915,0.791903\H,0,-1
 .982011,-2.798933,0.929823\H,0,-0.241456,-2.666418,0.609587\H,0,-1.006
 423,-1.519861,1.708696\C,0,-1.570437,-1.95939,-1.700461\H,0,-0.643326,
 -2.506717,-1.90862\H,0,-2.396723,-2.674941,-1.632891\H,0,-1.749862,-1.
 277949,-2.536721\\Version=ES64L-G16RevA.03\HF=-3033.1430782\S2=8.76260
 6\S2-1=0.\S2A=8.75005\RMSD=1.934e-09\PG=C01 [X(C8H16Cl3Fe1O1)]\\@


 A COMPUTER IS LIKE A HORSE, IT WILL SENSE WEAKNESS.
     -- GREG WETTSTEIN
 Job cpu time:       0 days  0 hours  4 minutes 37.7 seconds.
 Elapsed time:       0 days  0 hours  1 minutes 10.0 seconds.
 File lengths (MBytes):  RWF=    170 Int=      0 D2E=      0 Chk=     13 Scr=      1
 Normal termination of Gaussian 16 at Tue Feb 11 13:59:25 2020.
 Initial command:
 /n/sw/g16_nehalem/g16/l1.exe "/scratch/Gau-274532.inp" -scrdir="/scratch/"
 Entering Link 1 = /n/sw/g16_nehalem/g16/l1.exe PID=    276559.
  
 Copyright (c) 1988,1990,1992,1993,1995,1998,2003,2009,2016,
            Gaussian, Inc.  All Rights Reserved.
  
 This is part of the Gaussian(R) 16 program.  It is based on
 the Gaussian(R) 09 system (copyright 2009, Gaussian, Inc.),
 the Gaussian(R) 03 system (copyright 2003, Gaussian, Inc.),
 the Gaussian(R) 98 system (copyright 1998, Gaussian, Inc.),
 the Gaussian(R) 94 system (copyright 1995, Gaussian, Inc.),
 the Gaussian 92(TM) system (copyright 1992, Gaussian, Inc.),
 the Gaussian 90(TM) system (copyright 1990, Gaussian, Inc.),
 the Gaussian 88(TM) system (copyright 1988, Gaussian, Inc.),
 the Gaussian 86(TM) system (copyright 1986, Carnegie Mellon
 University), and the Gaussian 82(TM) system (copyright 1983,
 Carnegie Mellon University). Gaussian is a federally registered
 trademark of Gaussian, Inc.
  
 This software contains proprietary and confidential information,
 including trade secrets, belonging to Gaussian, Inc.
  
 This software is provided under written license and may be
 used, copied, transmitted, or stored only in accord with that
 written license.
  
 The following legend is applicable only to US Government
 contracts under FAR:
  
                    RESTRICTED RIGHTS LEGEND
  
 Use, reproduction and disclosure by the US Government is
 subject to restrictions as set forth in subparagraphs (a)
 and (c) of the Commercial Computer Software - Restricted
 Rights clause in FAR 52.227-19.
  
 Gaussian, Inc.
 340 Quinnipiac St., Bldg. 40, Wallingford CT 06492
  
  
 ---------------------------------------------------------------
 Warning -- This program may not be used in any manner that
 competes with the business of Gaussian, Inc. or will provide
 assistance to any competitor of Gaussian, Inc.  The licensee
 of this program is prohibited from giving any competitor of
 Gaussian, Inc. access to this program.  By using this program,
 the user acknowledges that Gaussian, Inc. is engaged in the
 business of creating and licensing software in the field of
 computational chemistry and represents and warrants to the
 licensee that it is not a competitor of Gaussian, Inc. and that
 it will not use this program in any manner prohibited above.
 ---------------------------------------------------------------
  

 Cite this work as:
 Gaussian 16, Revision A.03,
 M. J. Frisch, G. W. Trucks, H. B. Schlegel, G. E. Scuseria, 
 M. A. Robb, J. R. Cheeseman, G. Scalmani, V. Barone, 
 G. A. Petersson, H. Nakatsuji, X. Li, M. Caricato, A. V. Marenich, 
 J. Bloino, B. G. Janesko, R. Gomperts, B. Mennucci, H. P. Hratchian, 
 J. V. Ortiz, A. F. Izmaylov, J. L. Sonnenberg, D. Williams-Young, 
 F. Ding, F. Lipparini, F. Egidi, J. Goings, B. Peng, A. Petrone, 
 T. Henderson, D. Ranasinghe, V. G. Zakrzewski, J. Gao, N. Rega, 
 G. Zheng, W. Liang, M. Hada, M. Ehara, K. Toyota, R. Fukuda, 
 J. Hasegawa, M. Ishida, T. Nakajima, Y. Honda, O. Kitao, H. Nakai, 
 T. Vreven, K. Throssell, J. A. Montgomery, Jr., J. E. Peralta, 
 F. Ogliaro, M. J. Bearpark, J. J. Heyd, E. N. Brothers, K. N. Kudin, 
 V. N. Staroverov, T. A. Keith, R. Kobayashi, J. Normand, 
 K. Raghavachari, A. P. Rendell, J. C. Burant, S. S. Iyengar, 
 J. Tomasi, M. Cossi, J. M. Millam, M. Klene, C. Adamo, R. Cammi, 
 J. W. Ochterski, R. L. Martin, K. Morokuma, O. Farkas, 
 J. B. Foresman, and D. J. Fox, Gaussian, Inc., Wallingford CT, 2016.
 
 ******************************************
 Gaussian 16:  ES64L-G16RevA.03 25-Dec-2016
                11-Feb-2020 
 ******************************************
 %chk=checkpoint.chk
 %mem=3GB
 %nprocshared=4
 Will use up to    4 processors via shared memory.
 -----------------------------------------
 #t pop=none jul-cc-pvdz guess=read ub3lyp
 -----------------------------------------
 -------------------------
 theory_abbreviation b3lyp
 -------------------------
 Symbolic Z-matrix:
 Charge =  0 Multiplicity = 6
 O                    -0.36949  -0.21675  -0.55851 
 C                    -1.39029  -1.1972   -0.40447 
 C                    -2.81708  -0.12841  -0.15553 
 C                    -2.02641   1.12171  -0.26575 
 C                    -1.91901   1.81551  -1.56901 
 Fe                    1.37931   0.04287   0.03391 
 Cl                    1.7973    2.05188  -0.81309 
 C                    -1.57127   1.84905   0.93923 
 Cl                    2.5755   -1.64074  -0.70883 
 Cl                    1.3026    0.13128   2.25277 
 H                    -3.44527  -0.2618   -1.03899 
 H                    -2.4348    2.4398    1.28898 
 H                    -1.27967   1.1814    1.75113 
 H                    -0.75131   2.53319   0.71256 
 H                    -2.66292   2.62998  -1.55648 
 H                    -0.92991   2.26818  -1.68527 
 H                    -2.14402   1.15943  -2.41078 
 C                    -3.59605  -0.37212   1.12656 
 H                    -4.40704   0.35721   1.24117 
 H                    -4.05156  -1.36602   1.09661 
 H                    -2.9675   -0.32157   2.01835 
 C                    -1.1585   -2.09192   0.7919 
 H                    -1.98201  -2.79893   0.92982 
 H                    -0.24146  -2.66642   0.60959 
 H                    -1.00642  -1.51986   1.7087 
 C                    -1.57044  -1.95939  -1.70046 
 H                    -0.64333  -2.50672  -1.90862 
 H                    -2.39672  -2.67494  -1.63289 
 H                    -1.74986  -1.27795  -2.53672 
 
                    Distance matrix (angstroms):
                    1          2          3          4          5
     1  O    0.000000
     2  C    1.423748   0.000000
     3  C    2.482116   1.799998   0.000000
     4  C    2.150011   2.408570   1.483278   0.000000
     5  C    2.748125   3.272935   2.565786   1.480330   0.000000
     6  Fe   1.864579   3.066047   4.204155   3.585051   4.073146
     7  Cl   3.147457   4.569933   5.145736   3.973104   3.799774
     8  C    2.820465   3.334352   2.580872   1.479234   2.532444
     9  Cl   3.274649   4.002113   5.627897   5.385629   5.734652
    10  Cl   3.289417   4.009661   4.779026   4.290236   5.274594
    11  H    3.113409   2.345320   1.092205   2.127243   2.631646
    12  H    3.838747   4.145663   2.971276   2.078781   2.970499
    13  H    2.849157   3.211942   2.777520   2.151506   3.440083
    14  H    3.053447   3.946115   3.479238   2.138977   2.661602
    15  H    3.789404   4.194517   3.097598   2.084707   1.103135
    16  H    2.785418   3.723078   3.412504   2.128793   1.093963
    17  H    2.910961   3.185448   2.682847   2.148582   1.090707
    18  C    3.643395   2.808946   1.519854   2.575622   3.855419
    19  H    4.457589   3.771613   2.171310   2.919363   4.026663
    20  H    4.197370   3.060077   2.150228   3.485121   4.666412
    21  H    3.660718   3.020654   2.187626   2.861082   4.305291
    22  C    2.441803   1.511800   2.739320   3.492743   4.628199
    23  H    3.388664   2.167026   3.001169   4.099119   5.247969
    24  H    2.716933   2.122906   3.696041   4.278100   5.258148
    25  H    2.691470   2.171846   2.947873   3.452052   4.764539
    26  C    2.404814   1.514263   2.700629   3.429209   3.793236
    27  H    2.672404   2.129619   3.668085   4.216326   4.519330
    28  H    3.362542   2.169251   2.973902   4.052253   4.516240
    29  H    2.635318   2.163868   2.851393   3.315442   3.245699
                    6          7          8          9         10
     6  Fe   0.000000
     7  Cl   2.219969   0.000000
     8  C    3.576009   3.802504   0.000000
     9  Cl   2.194783   3.775176   5.664846   0.000000
    10  Cl   2.221943   3.651426   3.596564   3.678501   0.000000
    11  H    4.951817   5.734867   3.446866   6.185482   5.790718
    12  H    4.676315   4.741291   1.103172   6.763518   4.497365
    13  H    3.363821   4.098867   1.090864   5.373847   2.832401
    14  H    3.346909   3.009098   1.091676   5.523559   3.515673
    15  H    5.055892   4.558549   2.833736   6.811649   6.039796
    16  H    3.638697   2.871443   2.734044   5.340513   5.005857
    17  H    4.431366   4.345466   3.467870   5.745557   5.889385
    18  C    5.110808   6.223047   3.011384   6.562482   5.051588
    19  H    5.919303   6.751723   3.218438   7.519987   5.802959
    20  H    5.710401   7.038341   4.063658   6.874086   5.678525
    21  H    4.792241   6.029396   2.797415   6.316850   4.300434
    22  C    3.401812   5.337023   3.965262   4.049507   3.624043
    23  H    4.491879   6.391508   4.666107   4.979711   4.596189
    24  H    3.209130   5.333190   4.718743   3.274979   3.593219
    25  H    3.307380   5.193999   3.501529   4.323105   2.890302
    26  C    3.964603   5.312196   4.633807   4.274774   5.315375
    27  H    3.790099   5.285613   5.286211   3.542636   5.297429
    28  H    4.941976   6.372190   5.269123   5.162024   6.054598
    29  H    4.259625   5.161500   4.678913   4.709734   5.851718
                   11         12         13         14         15
    11  H    0.000000
    12  H    3.706634   0.000000
    13  H    3.815420   1.769599   0.000000
    14  H    4.258787   1.781885   1.784692   0.000000
    15  H    3.040099   2.860916   3.866786   2.968523   0.000000
    16  H    3.625672   3.337710   3.621091   2.419030   1.775045
    17  H    2.365360   3.925826   4.250771   3.685383   1.778086
    18  C    2.173597   3.046603   2.858173   4.087146   4.133038
    19  H    2.550945   2.868661   3.274110   4.287035   4.004283
    20  H    2.479454   4.139473   3.821147   5.122792   4.993515
    21  H    3.095027   2.905320   2.275758   3.842679   4.645833
    22  C    3.454104   4.734181   3.413120   4.643668   5.484014
    23  H    3.529082   5.270516   4.124425   5.476616   6.009855
    24  H    4.331793   5.598731   4.145685   5.225556   6.213460
    25  H    3.883360   4.230287   2.715376   4.181454   5.534118
    26  C    2.614260   5.388577   4.675746   5.164966   4.719800
    27  H    3.694158   6.156465   5.234589   5.681801   5.530674
    28  H    2.697301   5.890617   5.250789   5.944166   5.312140
    29  H    2.479952   5.378364   4.965397   5.106826   4.131152
                   16         17         18         19         20
    16  H    0.000000
    17  H    1.797149   0.000000
    18  C    4.688914   4.119077   0.000000
    19  H    4.930144   4.370533   1.096700   0.000000
    20  H    5.539947   4.724232   1.093724   1.765444   0.000000
    21  H    4.957356   4.742218   1.092215   1.771164   1.765137
    22  C    5.019871   4.669007   3.001896   4.093052   2.998264
    23  H    5.798389   5.182130   2.921176   3.992358   2.522714
    24  H    5.485494   5.232535   4.096876   5.185875   4.055258
    25  H    5.086664   5.044081   2.891778   3.912308   3.109854
    26  C    4.275850   3.249703   3.822905   4.697462   3.785716
    27  H    4.788706   3.993101   4.742091   5.682323   4.684937
    28  H    5.156431   3.920632   3.788925   4.636328   3.449914
    29  H    3.737961   2.472252   4.201021   4.899675   4.301935
                   21         22         23         24         25
    21  H    0.000000
    22  C    2.812614   0.000000
    23  H    2.879832   1.094108   0.000000
    24  H    3.861898   1.097386   1.774723   0.000000
    25  H    2.318968   1.091275   1.787300   1.762898   0.000000
    26  C    4.296954   2.529651   2.791526   2.757245   3.483339
    27  H    5.059424   2.780339   3.151861   2.555068   3.767054
    28  H    4.381294   2.784376   2.599012   3.110298   3.799125
    29  H    4.811029   3.477354   3.792652   3.755315   4.316803
                   26         27         28         29
    26  C    0.000000
    27  H    1.096555   0.000000
    28  H    1.095138   1.782898   0.000000
    29  H    1.093566   1.768842   1.785196   0.000000
 Framework group  C1[X(C8H16Cl3FeO)]
 Deg. of freedom    81
                         Standard orientation:                         
 ---------------------------------------------------------------------
 Center     Atomic      Atomic             Coordinates (Angstroms)
 Number     Number       Type             X           Y           Z
 ---------------------------------------------------------------------
      1          8           0       -0.369488   -0.216748   -0.558510
      2          6           0       -1.390293   -1.197200   -0.404465
      3          6           0       -2.817080   -0.128413   -0.155533
      4          6           0       -2.026405    1.121707   -0.265746
      5          6           0       -1.919012    1.815508   -1.569005
      6         26           0        1.379311    0.042867    0.033907
      7         17           0        1.797303    2.051884   -0.813086
      8          6           0       -1.571272    1.849051    0.939226
      9         17           0        2.575503   -1.640742   -0.708829
     10         17           0        1.302599    0.131275    2.252765
     11          1           0       -3.445268   -0.261796   -1.038992
     12          1           0       -2.434797    2.439800    1.288982
     13          1           0       -1.279668    1.181399    1.751133
     14          1           0       -0.751310    2.533186    0.712559
     15          1           0       -2.662916    2.629975   -1.556477
     16          1           0       -0.929911    2.268185   -1.685270
     17          1           0       -2.144015    1.159429   -2.410775
     18          6           0       -3.596054   -0.372119    1.126560
     19          1           0       -4.407039    0.357208    1.241173
     20          1           0       -4.051562   -1.366024    1.096606
     21          1           0       -2.967497   -0.321565    2.018352
     22          6           0       -1.158497   -2.091915    0.791903
     23          1           0       -1.982011   -2.798933    0.929823
     24          1           0       -0.241456   -2.666418    0.609587
     25          1           0       -1.006423   -1.519861    1.708696
     26          6           0       -1.570437   -1.959390   -1.700461
     27          1           0       -0.643326   -2.506717   -1.908620
     28          1           0       -2.396723   -2.674941   -1.632891
     29          1           0       -1.749862   -1.277949   -2.536721
 ---------------------------------------------------------------------
 Rotational constants (GHZ):           0.5720061           0.3594262           0.3241680
   427 basis functions,  1056 primitive gaussians,   461 cartesian basis functions
    77 alpha electrons       72 beta electrons
       nuclear repulsion energy      1657.9250723264 Hartrees.
 NAtoms=   29 NActive=   29 NUniq=   29 SFac= 1.00D+00 NAtFMM=   60 NAOKFM=F Big=F
 Initial guess from the checkpoint file:  "checkpoint.chk"
 B after Tr=     0.000000    0.000000    0.000000
         Rot=    1.000000    0.000000    0.000000    0.000000 Ang=   0.00 deg.
 Initial guess <Sx>= 0.0000 <Sy>= 0.0000 <Sz>= 2.5000 <S**2>= 8.7626 S= 2.5021
 SCF Done:  E(UB3LYP) =  -3034.31953336     A.U. after   13 cycles
            NFock= 13  Conv=0.89D-08     -V/T= 2.0025
 <Sx>= 0.0000 <Sy>= 0.0000 <Sz>= 2.5000 <S**2>= 8.7619 S= 2.5020
 <L.S>= 0.000000000000E+00
 Annihilation of the first spin contaminant:
 S**2 before annihilation     8.7619,   after     8.7500
 1\1\GINC-HOLY7C04303\SP\UB3LYP\Jul-CC-pVDZ\C8H16Cl3Fe1O1(6)\EKWAN\11-F
 eb-2020\0\\#t pop=none jul-cc-pvdz guess=read ub3lyp\\theory_abbreviat
 ion b3lyp\\0,6\O,0,-0.369488,-0.216748,-0.55851\C,0,-1.390293,-1.1972,
 -0.404465\C,0,-2.81708,-0.128413,-0.155533\C,0,-2.026405,1.121707,-0.2
 65746\C,0,-1.919012,1.815508,-1.569005\Fe,0,1.379311,0.042867,0.033907
 \Cl,0,1.797303,2.051884,-0.813086\C,0,-1.571272,1.849051,0.939226\Cl,0
 ,2.575503,-1.640742,-0.708829\Cl,0,1.302599,0.131275,2.252765\H,0,-3.4
 45268,-0.261796,-1.038992\H,0,-2.434797,2.4398,1.288982\H,0,-1.279668,
 1.181399,1.751133\H,0,-0.75131,2.533186,0.712559\H,0,-2.662916,2.62997
 5,-1.556477\H,0,-0.929911,2.268185,-1.68527\H,0,-2.144015,1.159429,-2.
 410775\C,0,-3.596054,-0.372119,1.12656\H,0,-4.407039,0.357208,1.241173
 \H,0,-4.051562,-1.366024,1.096606\H,0,-2.967497,-0.321565,2.018352\C,0
 ,-1.158497,-2.091915,0.791903\H,0,-1.982011,-2.798933,0.929823\H,0,-0.
 241456,-2.666418,0.609587\H,0,-1.006423,-1.519861,1.708696\C,0,-1.5704
 37,-1.95939,-1.700461\H,0,-0.643326,-2.506717,-1.90862\H,0,-2.396723,-
 2.674941,-1.632891\H,0,-1.749862,-1.277949,-2.536721\\Version=ES64L-G1
 6RevA.03\HF=-3034.3195334\S2=8.761939\S2-1=0.\S2A=8.750045\RMSD=8.902e
 -09\PG=C01 [X(C8H16Cl3Fe1O1)]\\@


 KNOWING HOW CONTENTED, FREE, AND JOYFUL IS LIFE IN
 THE REALMS OF SCIENCE, ONE FERVENTLY WISHES THAT
 MANY WOULD ENTER HER PORTALS.
   --  DMITRI IVANOVICH MENDELEEV
 "FIRST PRINCIPLES OF CHEMISTRY", LONGMANS, GREEN,
 AND CO.  LONDON, 1891
 Job cpu time:       0 days  0 hours 54 minutes 28.2 seconds.
 Elapsed time:       0 days  0 hours 13 minutes 40.3 seconds.
 File lengths (MBytes):  RWF=    174 Int=      0 D2E=      0 Chk=     13 Scr=      1
 Normal termination of Gaussian 16 at Tue Feb 11 14:13:06 2020.
 Initial command:
 /n/sw/g16_nehalem/g16/l1.exe "/scratch/Gau-274532.inp" -scrdir="/scratch/"
 Entering Link 1 = /n/sw/g16_nehalem/g16/l1.exe PID=    278703.
  
 Copyright (c) 1988,1990,1992,1993,1995,1998,2003,2009,2016,
            Gaussian, Inc.  All Rights Reserved.
  
 This is part of the Gaussian(R) 16 program.  It is based on
 the Gaussian(R) 09 system (copyright 2009, Gaussian, Inc.),
 the Gaussian(R) 03 system (copyright 2003, Gaussian, Inc.),
 the Gaussian(R) 98 system (copyright 1998, Gaussian, Inc.),
 the Gaussian(R) 94 system (copyright 1995, Gaussian, Inc.),
 the Gaussian 92(TM) system (copyright 1992, Gaussian, Inc.),
 the Gaussian 90(TM) system (copyright 1990, Gaussian, Inc.),
 the Gaussian 88(TM) system (copyright 1988, Gaussian, Inc.),
 the Gaussian 86(TM) system (copyright 1986, Carnegie Mellon
 University), and the Gaussian 82(TM) system (copyright 1983,
 Carnegie Mellon University). Gaussian is a federally registered
 trademark of Gaussian, Inc.
  
 This software contains proprietary and confidential information,
 including trade secrets, belonging to Gaussian, Inc.
  
 This software is provided under written license and may be
 used, copied, transmitted, or stored only in accord with that
 written license.
  
 The following legend is applicable only to US Government
 contracts under FAR:
  
                    RESTRICTED RIGHTS LEGEND
  
 Use, reproduction and disclosure by the US Government is
 subject to restrictions as set forth in subparagraphs (a)
 and (c) of the Commercial Computer Software - Restricted
 Rights clause in FAR 52.227-19.
  
 Gaussian, Inc.
 340 Quinnipiac St., Bldg. 40, Wallingford CT 06492
  
  
 ---------------------------------------------------------------
 Warning -- This program may not be used in any manner that
 competes with the business of Gaussian, Inc. or will provide
 assistance to any competitor of Gaussian, Inc.  The licensee
 of this program is prohibited from giving any competitor of
 Gaussian, Inc. access to this program.  By using this program,
 the user acknowledges that Gaussian, Inc. is engaged in the
 business of creating and licensing software in the field of
 computational chemistry and represents and warrants to the
 licensee that it is not a competitor of Gaussian, Inc. and that
 it will not use this program in any manner prohibited above.
 ---------------------------------------------------------------
  

 Cite this work as:
 Gaussian 16, Revision A.03,
 M. J. Frisch, G. W. Trucks, H. B. Schlegel, G. E. Scuseria, 
 M. A. Robb, J. R. Cheeseman, G. Scalmani, V. Barone, 
 G. A. Petersson, H. Nakatsuji, X. Li, M. Caricato, A. V. Marenich, 
 J. Bloino, B. G. Janesko, R. Gomperts, B. Mennucci, H. P. Hratchian, 
 J. V. Ortiz, A. F. Izmaylov, J. L. Sonnenberg, D. Williams-Young, 
 F. Ding, F. Lipparini, F. Egidi, J. Goings, B. Peng, A. Petrone, 
 T. Henderson, D. Ranasinghe, V. G. Zakrzewski, J. Gao, N. Rega, 
 G. Zheng, W. Liang, M. Hada, M. Ehara, K. Toyota, R. Fukuda, 
 J. Hasegawa, M. Ishida, T. Nakajima, Y. Honda, O. Kitao, H. Nakai, 
 T. Vreven, K. Throssell, J. A. Montgomery, Jr., J. E. Peralta, 
 F. Ogliaro, M. J. Bearpark, J. J. Heyd, E. N. Brothers, K. N. Kudin, 
 V. N. Staroverov, T. A. Keith, R. Kobayashi, J. Normand, 
 K. Raghavachari, A. P. Rendell, J. C. Burant, S. S. Iyengar, 
 J. Tomasi, M. Cossi, J. M. Millam, M. Klene, C. Adamo, R. Cammi, 
 J. W. Ochterski, R. L. Martin, K. Morokuma, O. Farkas, 
 J. B. Foresman, and D. J. Fox, Gaussian, Inc., Wallingford CT, 2016.
 
 ******************************************
 Gaussian 16:  ES64L-G16RevA.03 25-Dec-2016
                11-Feb-2020 
 ******************************************
 %chk=checkpoint.chk
 %mem=3GB
 %nprocshared=4
 Will use up to    4 processors via shared memory.
 -------------------------------------------------------------------
 #t pop=none jul-cc-pvdz guess=read ub3lyp empiricaldispersion=gd3bj
 -------------------------------------------------------------------
 ------------------------------
 theory_abbreviation b3lyp_d3bj
 ------------------------------
 Symbolic Z-matrix:
 Charge =  0 Multiplicity = 6
 O                    -0.36949  -0.21675  -0.55851 
 C                    -1.39029  -1.1972   -0.40447 
 C                    -2.81708  -0.12841  -0.15553 
 C                    -2.02641   1.12171  -0.26575 
 C                    -1.91901   1.81551  -1.56901 
 Fe                    1.37931   0.04287   0.03391 
 Cl                    1.7973    2.05188  -0.81309 
 C                    -1.57127   1.84905   0.93923 
 Cl                    2.5755   -1.64074  -0.70883 
 Cl                    1.3026    0.13128   2.25277 
 H                    -3.44527  -0.2618   -1.03899 
 H                    -2.4348    2.4398    1.28898 
 H                    -1.27967   1.1814    1.75113 
 H                    -0.75131   2.53319   0.71256 
 H                    -2.66292   2.62998  -1.55648 
 H                    -0.92991   2.26818  -1.68527 
 H                    -2.14402   1.15943  -2.41078 
 C                    -3.59605  -0.37212   1.12656 
 H                    -4.40704   0.35721   1.24117 
 H                    -4.05156  -1.36602   1.09661 
 H                    -2.9675   -0.32157   2.01835 
 C                    -1.1585   -2.09192   0.7919 
 H                    -1.98201  -2.79893   0.92982 
 H                    -0.24146  -2.66642   0.60959 
 H                    -1.00642  -1.51986   1.7087 
 C                    -1.57044  -1.95939  -1.70046 
 H                    -0.64333  -2.50672  -1.90862 
 H                    -2.39672  -2.67494  -1.63289 
 H                    -1.74986  -1.27795  -2.53672 
 
                    Distance matrix (angstroms):
                    1          2          3          4          5
     1  O    0.000000
     2  C    1.423748   0.000000
     3  C    2.482116   1.799998   0.000000
     4  C    2.150011   2.408570   1.483278   0.000000
     5  C    2.748125   3.272935   2.565786   1.480330   0.000000
     6  Fe   1.864579   3.066047   4.204155   3.585051   4.073146
     7  Cl   3.147457   4.569933   5.145736   3.973104   3.799774
     8  C    2.820465   3.334352   2.580872   1.479234   2.532444
     9  Cl   3.274649   4.002113   5.627897   5.385629   5.734652
    10  Cl   3.289417   4.009661   4.779026   4.290236   5.274594
    11  H    3.113409   2.345320   1.092205   2.127243   2.631646
    12  H    3.838747   4.145663   2.971276   2.078781   2.970499
    13  H    2.849157   3.211942   2.777520   2.151506   3.440083
    14  H    3.053447   3.946115   3.479238   2.138977   2.661602
    15  H    3.789404   4.194517   3.097598   2.084707   1.103135
    16  H    2.785418   3.723078   3.412504   2.128793   1.093963
    17  H    2.910961   3.185448   2.682847   2.148582   1.090707
    18  C    3.643395   2.808946   1.519854   2.575622   3.855419
    19  H    4.457589   3.771613   2.171310   2.919363   4.026663
    20  H    4.197370   3.060077   2.150228   3.485121   4.666412
    21  H    3.660718   3.020654   2.187626   2.861082   4.305291
    22  C    2.441803   1.511800   2.739320   3.492743   4.628199
    23  H    3.388664   2.167026   3.001169   4.099119   5.247969
    24  H    2.716933   2.122906   3.696041   4.278100   5.258148
    25  H    2.691470   2.171846   2.947873   3.452052   4.764539
    26  C    2.404814   1.514263   2.700629   3.429209   3.793236
    27  H    2.672404   2.129619   3.668085   4.216326   4.519330
    28  H    3.362542   2.169251   2.973902   4.052253   4.516240
    29  H    2.635318   2.163868   2.851393   3.315442   3.245699
                    6          7          8          9         10
     6  Fe   0.000000
     7  Cl   2.219969   0.000000
     8  C    3.576009   3.802504   0.000000
     9  Cl   2.194783   3.775176   5.664846   0.000000
    10  Cl   2.221943   3.651426   3.596564   3.678501   0.000000
    11  H    4.951817   5.734867   3.446866   6.185482   5.790718
    12  H    4.676315   4.741291   1.103172   6.763518   4.497365
    13  H    3.363821   4.098867   1.090864   5.373847   2.832401
    14  H    3.346909   3.009098   1.091676   5.523559   3.515673
    15  H    5.055892   4.558549   2.833736   6.811649   6.039796
    16  H    3.638697   2.871443   2.734044   5.340513   5.005857
    17  H    4.431366   4.345466   3.467870   5.745557   5.889385
    18  C    5.110808   6.223047   3.011384   6.562482   5.051588
    19  H    5.919303   6.751723   3.218438   7.519987   5.802959
    20  H    5.710401   7.038341   4.063658   6.874086   5.678525
    21  H    4.792241   6.029396   2.797415   6.316850   4.300434
    22  C    3.401812   5.337023   3.965262   4.049507   3.624043
    23  H    4.491879   6.391508   4.666107   4.979711   4.596189
    24  H    3.209130   5.333190   4.718743   3.274979   3.593219
    25  H    3.307380   5.193999   3.501529   4.323105   2.890302
    26  C    3.964603   5.312196   4.633807   4.274774   5.315375
    27  H    3.790099   5.285613   5.286211   3.542636   5.297429
    28  H    4.941976   6.372190   5.269123   5.162024   6.054598
    29  H    4.259625   5.161500   4.678913   4.709734   5.851718
                   11         12         13         14         15
    11  H    0.000000
    12  H    3.706634   0.000000
    13  H    3.815420   1.769599   0.000000
    14  H    4.258787   1.781885   1.784692   0.000000
    15  H    3.040099   2.860916   3.866786   2.968523   0.000000
    16  H    3.625672   3.337710   3.621091   2.419030   1.775045
    17  H    2.365360   3.925826   4.250771   3.685383   1.778086
    18  C    2.173597   3.046603   2.858173   4.087146   4.133038
    19  H    2.550945   2.868661   3.274110   4.287035   4.004283
    20  H    2.479454   4.139473   3.821147   5.122792   4.993515
    21  H    3.095027   2.905320   2.275758   3.842679   4.645833
    22  C    3.454104   4.734181   3.413120   4.643668   5.484014
    23  H    3.529082   5.270516   4.124425   5.476616   6.009855
    24  H    4.331793   5.598731   4.145685   5.225556   6.213460
    25  H    3.883360   4.230287   2.715376   4.181454   5.534118
    26  C    2.614260   5.388577   4.675746   5.164966   4.719800
    27  H    3.694158   6.156465   5.234589   5.681801   5.530674
    28  H    2.697301   5.890617   5.250789   5.944166   5.312140
    29  H    2.479952   5.378364   4.965397   5.106826   4.131152
                   16         17         18         19         20
    16  H    0.000000
    17  H    1.797149   0.000000
    18  C    4.688914   4.119077   0.000000
    19  H    4.930144   4.370533   1.096700   0.000000
    20  H    5.539947   4.724232   1.093724   1.765444   0.000000
    21  H    4.957356   4.742218   1.092215   1.771164   1.765137
    22  C    5.019871   4.669007   3.001896   4.093052   2.998264
    23  H    5.798389   5.182130   2.921176   3.992358   2.522714
    24  H    5.485494   5.232535   4.096876   5.185875   4.055258
    25  H    5.086664   5.044081   2.891778   3.912308   3.109854
    26  C    4.275850   3.249703   3.822905   4.697462   3.785716
    27  H    4.788706   3.993101   4.742091   5.682323   4.684937
    28  H    5.156431   3.920632   3.788925   4.636328   3.449914
    29  H    3.737961   2.472252   4.201021   4.899675   4.301935
                   21         22         23         24         25
    21  H    0.000000
    22  C    2.812614   0.000000
    23  H    2.879832   1.094108   0.000000
    24  H    3.861898   1.097386   1.774723   0.000000
    25  H    2.318968   1.091275   1.787300   1.762898   0.000000
    26  C    4.296954   2.529651   2.791526   2.757245   3.483339
    27  H    5.059424   2.780339   3.151861   2.555068   3.767054
    28  H    4.381294   2.784376   2.599012   3.110298   3.799125
    29  H    4.811029   3.477354   3.792652   3.755315   4.316803
                   26         27         28         29
    26  C    0.000000
    27  H    1.096555   0.000000
    28  H    1.095138   1.782898   0.000000
    29  H    1.093566   1.768842   1.785196   0.000000
 Framework group  C1[X(C8H16Cl3FeO)]
 Deg. of freedom    81
                         Standard orientation:                         
 ---------------------------------------------------------------------
 Center     Atomic      Atomic             Coordinates (Angstroms)
 Number     Number       Type             X           Y           Z
 ---------------------------------------------------------------------
      1          8           0       -0.369488   -0.216748   -0.558510
      2          6           0       -1.390293   -1.197200   -0.404465
      3          6           0       -2.817080   -0.128413   -0.155533
      4          6           0       -2.026405    1.121707   -0.265746
      5          6           0       -1.919012    1.815508   -1.569005
      6         26           0        1.379311    0.042867    0.033907
      7         17           0        1.797303    2.051884   -0.813086
      8          6           0       -1.571272    1.849051    0.939226
      9         17           0        2.575503   -1.640742   -0.708829
     10         17           0        1.302599    0.131275    2.252765
     11          1           0       -3.445268   -0.261796   -1.038992
     12          1           0       -2.434797    2.439800    1.288982
     13          1           0       -1.279668    1.181399    1.751133
     14          1           0       -0.751310    2.533186    0.712559
     15          1           0       -2.662916    2.629975   -1.556477
     16          1           0       -0.929911    2.268185   -1.685270
     17          1           0       -2.144015    1.159429   -2.410775
     18          6           0       -3.596054   -0.372119    1.126560
     19          1           0       -4.407039    0.357208    1.241173
     20          1           0       -4.051562   -1.366024    1.096606
     21          1           0       -2.967497   -0.321565    2.018352
     22          6           0       -1.158497   -2.091915    0.791903
     23          1           0       -1.982011   -2.798933    0.929823
     24          1           0       -0.241456   -2.666418    0.609587
     25          1           0       -1.006423   -1.519861    1.708696
     26          6           0       -1.570437   -1.959390   -1.700461
     27          1           0       -0.643326   -2.506717   -1.908620
     28          1           0       -2.396723   -2.674941   -1.632891
     29          1           0       -1.749862   -1.277949   -2.536721
 ---------------------------------------------------------------------
 Rotational constants (GHZ):           0.5720061           0.3594262           0.3241680
   427 basis functions,  1056 primitive gaussians,   461 cartesian basis functions
    77 alpha electrons       72 beta electrons
       nuclear repulsion energy      1657.9250723264 Hartrees.
 NAtoms=   29 NActive=   29 NUniq=   29 SFac= 1.00D+00 NAtFMM=   60 NAOKFM=F Big=F
 Nuclear repulsion after empirical dispersion term =     1657.8563579687 Hartrees.
 Initial guess from the checkpoint file:  "checkpoint.chk"
 B after Tr=     0.000000    0.000000    0.000000
         Rot=    1.000000    0.000000    0.000000    0.000000 Ang=   0.00 deg.
 Initial guess <Sx>= 0.0000 <Sy>= 0.0000 <Sz>= 2.5000 <S**2>= 8.7619 S= 2.5020
 SCF Done:  E(UB3LYP) =  -3034.38824771     A.U. after    1 cycles
            NFock=  1  Conv=0.56D-08     -V/T= 2.0025
 <Sx>= 0.0000 <Sy>= 0.0000 <Sz>= 2.5000 <S**2>= 8.7619 S= 2.5020
 <L.S>= 0.000000000000E+00
 Annihilation of the first spin contaminant:
 S**2 before annihilation     8.7619,   after     8.7500
 1\1\GINC-HOLY7C04303\SP\UB3LYP\Jul-CC-pVDZ\C8H16Cl3Fe1O1(6)\EKWAN\11-F
 eb-2020\0\\#t pop=none jul-cc-pvdz guess=read ub3lyp empiricaldispersi
 on=gd3bj\\theory_abbreviation b3lyp_d3bj\\0,6\O,0,-0.369488,-0.216748,
 -0.55851\C,0,-1.390293,-1.1972,-0.404465\C,0,-2.81708,-0.128413,-0.155
 533\C,0,-2.026405,1.121707,-0.265746\C,0,-1.919012,1.815508,-1.569005\
 Fe,0,1.379311,0.042867,0.033907\Cl,0,1.797303,2.051884,-0.813086\C,0,-
 1.571272,1.849051,0.939226\Cl,0,2.575503,-1.640742,-0.708829\Cl,0,1.30
 2599,0.131275,2.252765\H,0,-3.445268,-0.261796,-1.038992\H,0,-2.434797
 ,2.4398,1.288982\H,0,-1.279668,1.181399,1.751133\H,0,-0.75131,2.533186
 ,0.712559\H,0,-2.662916,2.629975,-1.556477\H,0,-0.929911,2.268185,-1.6
 8527\H,0,-2.144015,1.159429,-2.410775\C,0,-3.596054,-0.372119,1.12656\
 H,0,-4.407039,0.357208,1.241173\H,0,-4.051562,-1.366024,1.096606\H,0,-
 2.967497,-0.321565,2.018352\C,0,-1.158497,-2.091915,0.791903\H,0,-1.98
 2011,-2.798933,0.929823\H,0,-0.241456,-2.666418,0.609587\H,0,-1.006423
 ,-1.519861,1.708696\C,0,-1.570437,-1.95939,-1.700461\H,0,-0.643326,-2.
 506717,-1.90862\H,0,-2.396723,-2.674941,-1.632891\H,0,-1.749862,-1.277
 949,-2.536721\\Version=ES64L-G16RevA.03\HF=-3034.3882477\S2=8.761939\S
 2-1=0.\S2A=8.750045\RMSD=5.620e-09\PG=C01 [X(C8H16Cl3Fe1O1)]\\@


 THE NUMBERS ARE MEANINGLESS, BUT THE TRENDS ARE IMPORTANT.
     -- LARRY BURGGRAF
 Job cpu time:       0 days  0 hours  4 minutes 48.2 seconds.
 Elapsed time:       0 days  0 hours  1 minutes 16.8 seconds.
 File lengths (MBytes):  RWF=    170 Int=      0 D2E=      0 Chk=     13 Scr=      1
 Normal termination of Gaussian 16 at Tue Feb 11 14:14:23 2020.
 Initial command:
 /n/sw/g16_nehalem/g16/l1.exe "/scratch/Gau-274532.inp" -scrdir="/scratch/"
 Entering Link 1 = /n/sw/g16_nehalem/g16/l1.exe PID=    278936.
  
 Copyright (c) 1988,1990,1992,1993,1995,1998,2003,2009,2016,
            Gaussian, Inc.  All Rights Reserved.
  
 This is part of the Gaussian(R) 16 program.  It is based on
 the Gaussian(R) 09 system (copyright 2009, Gaussian, Inc.),
 the Gaussian(R) 03 system (copyright 2003, Gaussian, Inc.),
 the Gaussian(R) 98 system (copyright 1998, Gaussian, Inc.),
 the Gaussian(R) 94 system (copyright 1995, Gaussian, Inc.),
 the Gaussian 92(TM) system (copyright 1992, Gaussian, Inc.),
 the Gaussian 90(TM) system (copyright 1990, Gaussian, Inc.),
 the Gaussian 88(TM) system (copyright 1988, Gaussian, Inc.),
 the Gaussian 86(TM) system (copyright 1986, Carnegie Mellon
 University), and the Gaussian 82(TM) system (copyright 1983,
 Carnegie Mellon University). Gaussian is a federally registered
 trademark of Gaussian, Inc.
  
 This software contains proprietary and confidential information,
 including trade secrets, belonging to Gaussian, Inc.
  
 This software is provided under written license and may be
 used, copied, transmitted, or stored only in accord with that
 written license.
  
 The following legend is applicable only to US Government
 contracts under FAR:
  
                    RESTRICTED RIGHTS LEGEND
  
 Use, reproduction and disclosure by the US Government is
 subject to restrictions as set forth in subparagraphs (a)
 and (c) of the Commercial Computer Software - Restricted
 Rights clause in FAR 52.227-19.
  
 Gaussian, Inc.
 340 Quinnipiac St., Bldg. 40, Wallingford CT 06492
  
  
 ---------------------------------------------------------------
 Warning -- This program may not be used in any manner that
 competes with the business of Gaussian, Inc. or will provide
 assistance to any competitor of Gaussian, Inc.  The licensee
 of this program is prohibited from giving any competitor of
 Gaussian, Inc. access to this program.  By using this program,
 the user acknowledges that Gaussian, Inc. is engaged in the
 business of creating and licensing software in the field of
 computational chemistry and represents and warrants to the
 licensee that it is not a competitor of Gaussian, Inc. and that
 it will not use this program in any manner prohibited above.
 ---------------------------------------------------------------
  

 Cite this work as:
 Gaussian 16, Revision A.03,
 M. J. Frisch, G. W. Trucks, H. B. Schlegel, G. E. Scuseria, 
 M. A. Robb, J. R. Cheeseman, G. Scalmani, V. Barone, 
 G. A. Petersson, H. Nakatsuji, X. Li, M. Caricato, A. V. Marenich, 
 J. Bloino, B. G. Janesko, R. Gomperts, B. Mennucci, H. P. Hratchian, 
 J. V. Ortiz, A. F. Izmaylov, J. L. Sonnenberg, D. Williams-Young, 
 F. Ding, F. Lipparini, F. Egidi, J. Goings, B. Peng, A. Petrone, 
 T. Henderson, D. Ranasinghe, V. G. Zakrzewski, J. Gao, N. Rega, 
 G. Zheng, W. Liang, M. Hada, M. Ehara, K. Toyota, R. Fukuda, 
 J. Hasegawa, M. Ishida, T. Nakajima, Y. Honda, O. Kitao, H. Nakai, 
 T. Vreven, K. Throssell, J. A. Montgomery, Jr., J. E. Peralta, 
 F. Ogliaro, M. J. Bearpark, J. J. Heyd, E. N. Brothers, K. N. Kudin, 
 V. N. Staroverov, T. A. Keith, R. Kobayashi, J. Normand, 
 K. Raghavachari, A. P. Rendell, J. C. Burant, S. S. Iyengar, 
 J. Tomasi, M. Cossi, J. M. Millam, M. Klene, C. Adamo, R. Cammi, 
 J. W. Ochterski, R. L. Martin, K. Morokuma, O. Farkas, 
 J. B. Foresman, and D. J. Fox, Gaussian, Inc., Wallingford CT, 2016.
 
 ******************************************
 Gaussian 16:  ES64L-G16RevA.03 25-Dec-2016
                11-Feb-2020 
 ******************************************
 %chk=checkpoint.chk
 %mem=3GB
 %nprocshared=4
 Will use up to    4 processors via shared memory.
 ----------------------------------------
 #t pop=none jul-cc-pvdz guess=read ub97d
 ----------------------------------------
 ------------------------
 theory_abbreviation b97d
 ------------------------
 Symbolic Z-matrix:
 Charge =  0 Multiplicity = 6
 O                    -0.36949  -0.21675  -0.55851 
 C                    -1.39029  -1.1972   -0.40447 
 C                    -2.81708  -0.12841  -0.15553 
 C                    -2.02641   1.12171  -0.26575 
 C                    -1.91901   1.81551  -1.56901 
 Fe                    1.37931   0.04287   0.03391 
 Cl                    1.7973    2.05188  -0.81309 
 C                    -1.57127   1.84905   0.93923 
 Cl                    2.5755   -1.64074  -0.70883 
 Cl                    1.3026    0.13128   2.25277 
 H                    -3.44527  -0.2618   -1.03899 
 H                    -2.4348    2.4398    1.28898 
 H                    -1.27967   1.1814    1.75113 
 H                    -0.75131   2.53319   0.71256 
 H                    -2.66292   2.62998  -1.55648 
 H                    -0.92991   2.26818  -1.68527 
 H                    -2.14402   1.15943  -2.41078 
 C                    -3.59605  -0.37212   1.12656 
 H                    -4.40704   0.35721   1.24117 
 H                    -4.05156  -1.36602   1.09661 
 H                    -2.9675   -0.32157   2.01835 
 C                    -1.1585   -2.09192   0.7919 
 H                    -1.98201  -2.79893   0.92982 
 H                    -0.24146  -2.66642   0.60959 
 H                    -1.00642  -1.51986   1.7087 
 C                    -1.57044  -1.95939  -1.70046 
 H                    -0.64333  -2.50672  -1.90862 
 H                    -2.39672  -2.67494  -1.63289 
 H                    -1.74986  -1.27795  -2.53672 
 
                    Distance matrix (angstroms):
                    1          2          3          4          5
     1  O    0.000000
     2  C    1.423748   0.000000
     3  C    2.482116   1.799998   0.000000
     4  C    2.150011   2.408570   1.483278   0.000000
     5  C    2.748125   3.272935   2.565786   1.480330   0.000000
     6  Fe   1.864579   3.066047   4.204155   3.585051   4.073146
     7  Cl   3.147457   4.569933   5.145736   3.973104   3.799774
     8  C    2.820465   3.334352   2.580872   1.479234   2.532444
     9  Cl   3.274649   4.002113   5.627897   5.385629   5.734652
    10  Cl   3.289417   4.009661   4.779026   4.290236   5.274594
    11  H    3.113409   2.345320   1.092205   2.127243   2.631646
    12  H    3.838747   4.145663   2.971276   2.078781   2.970499
    13  H    2.849157   3.211942   2.777520   2.151506   3.440083
    14  H    3.053447   3.946115   3.479238   2.138977   2.661602
    15  H    3.789404   4.194517   3.097598   2.084707   1.103135
    16  H    2.785418   3.723078   3.412504   2.128793   1.093963
    17  H    2.910961   3.185448   2.682847   2.148582   1.090707
    18  C    3.643395   2.808946   1.519854   2.575622   3.855419
    19  H    4.457589   3.771613   2.171310   2.919363   4.026663
    20  H    4.197370   3.060077   2.150228   3.485121   4.666412
    21  H    3.660718   3.020654   2.187626   2.861082   4.305291
    22  C    2.441803   1.511800   2.739320   3.492743   4.628199
    23  H    3.388664   2.167026   3.001169   4.099119   5.247969
    24  H    2.716933   2.122906   3.696041   4.278100   5.258148
    25  H    2.691470   2.171846   2.947873   3.452052   4.764539
    26  C    2.404814   1.514263   2.700629   3.429209   3.793236
    27  H    2.672404   2.129619   3.668085   4.216326   4.519330
    28  H    3.362542   2.169251   2.973902   4.052253   4.516240
    29  H    2.635318   2.163868   2.851393   3.315442   3.245699
                    6          7          8          9         10
     6  Fe   0.000000
     7  Cl   2.219969   0.000000
     8  C    3.576009   3.802504   0.000000
     9  Cl   2.194783   3.775176   5.664846   0.000000
    10  Cl   2.221943   3.651426   3.596564   3.678501   0.000000
    11  H    4.951817   5.734867   3.446866   6.185482   5.790718
    12  H    4.676315   4.741291   1.103172   6.763518   4.497365
    13  H    3.363821   4.098867   1.090864   5.373847   2.832401
    14  H    3.346909   3.009098   1.091676   5.523559   3.515673
    15  H    5.055892   4.558549   2.833736   6.811649   6.039796
    16  H    3.638697   2.871443   2.734044   5.340513   5.005857
    17  H    4.431366   4.345466   3.467870   5.745557   5.889385
    18  C    5.110808   6.223047   3.011384   6.562482   5.051588
    19  H    5.919303   6.751723   3.218438   7.519987   5.802959
    20  H    5.710401   7.038341   4.063658   6.874086   5.678525
    21  H    4.792241   6.029396   2.797415   6.316850   4.300434
    22  C    3.401812   5.337023   3.965262   4.049507   3.624043
    23  H    4.491879   6.391508   4.666107   4.979711   4.596189
    24  H    3.209130   5.333190   4.718743   3.274979   3.593219
    25  H    3.307380   5.193999   3.501529   4.323105   2.890302
    26  C    3.964603   5.312196   4.633807   4.274774   5.315375
    27  H    3.790099   5.285613   5.286211   3.542636   5.297429
    28  H    4.941976   6.372190   5.269123   5.162024   6.054598
    29  H    4.259625   5.161500   4.678913   4.709734   5.851718
                   11         12         13         14         15
    11  H    0.000000
    12  H    3.706634   0.000000
    13  H    3.815420   1.769599   0.000000
    14  H    4.258787   1.781885   1.784692   0.000000
    15  H    3.040099   2.860916   3.866786   2.968523   0.000000
    16  H    3.625672   3.337710   3.621091   2.419030   1.775045
    17  H    2.365360   3.925826   4.250771   3.685383   1.778086
    18  C    2.173597   3.046603   2.858173   4.087146   4.133038
    19  H    2.550945   2.868661   3.274110   4.287035   4.004283
    20  H    2.479454   4.139473   3.821147   5.122792   4.993515
    21  H    3.095027   2.905320   2.275758   3.842679   4.645833
    22  C    3.454104   4.734181   3.413120   4.643668   5.484014
    23  H    3.529082   5.270516   4.124425   5.476616   6.009855
    24  H    4.331793   5.598731   4.145685   5.225556   6.213460
    25  H    3.883360   4.230287   2.715376   4.181454   5.534118
    26  C    2.614260   5.388577   4.675746   5.164966   4.719800
    27  H    3.694158   6.156465   5.234589   5.681801   5.530674
    28  H    2.697301   5.890617   5.250789   5.944166   5.312140
    29  H    2.479952   5.378364   4.965397   5.106826   4.131152
                   16         17         18         19         20
    16  H    0.000000
    17  H    1.797149   0.000000
    18  C    4.688914   4.119077   0.000000
    19  H    4.930144   4.370533   1.096700   0.000000
    20  H    5.539947   4.724232   1.093724   1.765444   0.000000
    21  H    4.957356   4.742218   1.092215   1.771164   1.765137
    22  C    5.019871   4.669007   3.001896   4.093052   2.998264
    23  H    5.798389   5.182130   2.921176   3.992358   2.522714
    24  H    5.485494   5.232535   4.096876   5.185875   4.055258
    25  H    5.086664   5.044081   2.891778   3.912308   3.109854
[...]
 Rotational constants (GHZ):           0.5720061           0.3594262           0.3241680
   427 basis functions,  1056 primitive gaussians,   461 cartesian basis functions
    77 alpha electrons       72 beta electrons
       nuclear repulsion energy      1657.9250723264 Hartrees.
 NAtoms=   29 NActive=   29 NUniq=   29 SFac= 1.00D+00 NAtFMM=   60 NAOKFM=F Big=F
 Nuclear repulsion after empirical dispersion term =     1657.9226510748 Hartrees.
 Initial guess from the checkpoint file:  "checkpoint.chk"
 B after Tr=     0.000000    0.000000    0.000000
         Rot=    1.000000    0.000000    0.000000    0.000000 Ang=   0.00 deg.
 Initial guess <Sx>= 0.0000 <Sy>= 0.0000 <Sz>= 2.5000 <S**2>= 8.7617 S= 2.5019
 SCF Done:  E(UM06L) =  -3034.18347657     A.U. after   18 cycles
            NFock= 18  Conv=0.32D-08     -V/T= 2.0021
 <Sx>= 0.0000 <Sy>= 0.0000 <Sz>= 2.5000 <S**2>= 8.7621 S= 2.5020
 <L.S>= 0.000000000000E+00
 Annihilation of the first spin contaminant:
 S**2 before annihilation     8.7621,   after     8.7500
 1\1\GINC-HOLY7C04303\SP\UM06L\Jul-CC-pVDZ\C8H16Cl3Fe1O1(6)\EKWAN\11-Fe
 b-2020\0\\#t pop=none jul-cc-pvdz guess=read um06l empiricaldispersion
 =gd3\\theory_abbreviation m06l_d3\\0,6\O,0,-0.369488,-0.216748,-0.5585
 1\C,0,-1.390293,-1.1972,-0.404465\C,0,-2.81708,-0.128413,-0.155533\C,0
 ,-2.026405,1.121707,-0.265746\C,0,-1.919012,1.815508,-1.569005\Fe,0,1.
 379311,0.042867,0.033907\Cl,0,1.797303,2.051884,-0.813086\C,0,-1.57127
 2,1.849051,0.939226\Cl,0,2.575503,-1.640742,-0.708829\Cl,0,1.302599,0.
 131275,2.252765\H,0,-3.445268,-0.261796,-1.038992\H,0,-2.434797,2.4398
 ,1.288982\H,0,-1.279668,1.181399,1.751133\H,0,-0.75131,2.533186,0.7125
 59\H,0,-2.662916,2.629975,-1.556477\H,0,-0.929911,2.268185,-1.68527\H,
 0,-2.144015,1.159429,-2.410775\C,0,-3.596054,-0.372119,1.12656\H,0,-4.
 407039,0.357208,1.241173\H,0,-4.051562,-1.366024,1.096606\H,0,-2.96749
 7,-0.321565,2.018352\C,0,-1.158497,-2.091915,0.791903\H,0,-1.982011,-2
 .798933,0.929823\H,0,-0.241456,-2.666418,0.609587\H,0,-1.006423,-1.519
 861,1.708696\C,0,-1.570437,-1.95939,-1.700461\H,0,-0.643326,-2.506717,
 -1.90862\H,0,-2.396723,-2.674941,-1.632891\H,0,-1.749862,-1.277949,-2.
 536721\\Version=ES64L-G16RevA.03\HF=-3034.1834766\S2=8.762101\S2-1=0.\
 S2A=8.750047\RMSD=3.199e-09\PG=C01 [X(C8H16Cl3Fe1O1)]\\@


 HE WHO LOVES TO READ, AND KNOWS HOW TO REFLECT,
 HAS LAID BY A PERPETUAL FEAST FOR HIS OLD AGE.
 -- UNCLE ESEK, "SCRIBNER'S MONTHLY", SEPT. 1880
 Job cpu time:       0 days  1 hours 24 minutes 43.1 seconds.
 Elapsed time:       0 days  0 hours 21 minutes 41.7 seconds.
 File lengths (MBytes):  RWF=    174 Int=      0 D2E=      0 Chk=     13 Scr=      1
 Normal termination of Gaussian 16 at Tue Feb 11 23:00:50 2020.
 Initial command:
 /n/sw/g16_nehalem/g16/l1.exe "/scratch/Gau-274532.inp" -scrdir="/scratch/"
 Entering Link 1 = /n/sw/g16_nehalem/g16/l1.exe PID=    327849.
  
 Copyright (c) 1988,1990,1992,1993,1995,1998,2003,2009,2016,
            Gaussian, Inc.  All Rights Reserved.
  
 This is part of the Gaussian(R) 16 program.  It is based on
 the Gaussian(R) 09 system (copyright 2009, Gaussian, Inc.),
 the Gaussian(R) 03 system (copyright 2003, Gaussian, Inc.),
 the Gaussian(R) 98 system (copyright 1998, Gaussian, Inc.),
 the Gaussian(R) 94 system (copyright 1995, Gaussian, Inc.),
 the Gaussian 92(TM) system (copyright 1992, Gaussian, Inc.),
 the Gaussian 90(TM) system (copyright 1990, Gaussian, Inc.),
 the Gaussian 88(TM) system (copyright 1988, Gaussian, Inc.),
 the Gaussian 86(TM) system (copyright 1986, Carnegie Mellon
 University), and the Gaussian 82(TM) system (copyright 1983,
 Carnegie Mellon University). Gaussian is a federally registered
 trademark of Gaussian, Inc.
  
 This software contains proprietary and confidential information,
 including trade secrets, belonging to Gaussian, Inc.
  
 This software is provided under written license and may be
 used, copied, transmitted, or stored only in accord with that
 written license.
  
 The following legend is applicable only to US Government
 contracts under FAR:
  
                    RESTRICTED RIGHTS LEGEND
  
 Use, reproduction and disclosure by the US Government is
 subject to restrictions as set forth in subparagraphs (a)
 and (c) of the Commercial Computer Software - Restricted
 Rights clause in FAR 52.227-19.
  
 Gaussian, Inc.
 340 Quinnipiac St., Bldg. 40, Wallingford CT 06492
  
  
 ---------------------------------------------------------------
 Warning -- This program may not be used in any manner that
 competes with the business of Gaussian, Inc. or will provide
 assistance to any competitor of Gaussian, Inc.  The licensee
 of this program is prohibited from giving any competitor of
 Gaussian, Inc. access to this program.  By using this program,
 the user acknowledges that Gaussian, Inc. is engaged in the
 business of creating and licensing software in the field of
 computational chemistry and represents and warrants to the
 licensee that it is not a competitor of Gaussian, Inc. and that
 it will not use this program in any manner prohibited above.
 ---------------------------------------------------------------
  

 Cite this work as:
 Gaussian 16, Revision A.03,
 M. J. Frisch, G. W. Trucks, H. B. Schlegel, G. E. Scuseria, 
 M. A. Robb, J. R. Cheeseman, G. Scalmani, V. Barone, 
 G. A. Petersson, H. Nakatsuji, X. Li, M. Caricato, A. V. Marenich, 
 J. Bloino, B. G. Janesko, R. Gomperts, B. Mennucci, H. P. Hratchian, 
 J. V. Ortiz, A. F. Izmaylov, J. L. Sonnenberg, D. Williams-Young, 
 F. Ding, F. Lipparini, F. Egidi, J. Goings, B. Peng, A. Petrone, 
 T. Henderson, D. Ranasinghe, V. G. Zakrzewski, J. Gao, N. Rega, 
 G. Zheng, W. Liang, M. Hada, M. Ehara, K. Toyota, R. Fukuda, 
 J. Hasegawa, M. Ishida, T. Nakajima, Y. Honda, O. Kitao, H. Nakai, 
 T. Vreven, K. Throssell, J. A. Montgomery, Jr., J. E. Peralta, 
 F. Ogliaro, M. J. Bearpark, J. J. Heyd, E. N. Brothers, K. N. Kudin, 
 V. N. Staroverov, T. A. Keith, R. Kobayashi, J. Normand, 
 K. Raghavachari, A. P. Rendell, J. C. Burant, S. S. Iyengar, 
 J. Tomasi, M. Cossi, J. M. Millam, M. Klene, C. Adamo, R. Cammi, 
 J. W. Ochterski, R. L. Martin, K. Morokuma, O. Farkas, 
 J. B. Foresman, and D. J. Fox, Gaussian, Inc., Wallingford CT, 2016.
 
 ******************************************
 Gaussian 16:  ES64L-G16RevA.03 25-Dec-2016
                11-Feb-2020 
 ******************************************
 %chk=checkpoint.chk
 %mem=3GB
 %nprocshared=4
 Will use up to    4 processors via shared memory.
 -------------------------------------------------------------------
 #t pop=none jul-cc-pvdz guess=read ub97d3 empiricaldispersion=gd3bj
 -------------------------------------------------------------------
 ------------------------------
 theory_abbreviation b97d3_d3bj
 ------------------------------
 Symbolic Z-matrix:
 Charge =  0 Multiplicity = 6
 O                    -0.36949  -0.21675  -0.55851 
 C                    -1.39029  -1.1972   -0.40447 
 C                    -2.81708  -0.12841  -0.15553 
 C                    -2.02641   1.12171  -0.26575 
 C                    -1.91901   1.81551  -1.56901 
 Fe                    1.37931   0.04287   0.03391 
 Cl                    1.7973    2.05188  -0.81309 
 C                    -1.57127   1.84905   0.93923 
 Cl                    2.5755   -1.64074  -0.70883 
 Cl                    1.3026    0.13128   2.25277 
 H                    -3.44527  -0.2618   -1.03899 
 H                    -2.4348    2.4398    1.28898 
 H                    -1.27967   1.1814    1.75113 
 H                    -0.75131   2.53319   0.71256 
 H                    -2.66292   2.62998  -1.55648 
 H                    -0.92991   2.26818  -1.68527 
 H                    -2.14402   1.15943  -2.41078 
 C                    -3.59605  -0.37212   1.12656 
 H                    -4.40704   0.35721   1.24117 
 H                    -4.05156  -1.36602   1.09661 
 H                    -2.9675   -0.32157   2.01835 
 C                    -1.1585   -2.09192   0.7919 
 H                    -1.98201  -2.79893   0.92982 
 H                    -0.24146  -2.66642   0.60959 
 H                    -1.00642  -1.51986   1.7087 
 C                    -1.57044  -1.95939  -1.70046 
 H                    -0.64333  -2.50672  -1.90862 
 H                    -2.39672  -2.67494  -1.63289 
 H                    -1.74986  -1.27795  -2.53672 
 
                    Distance matrix (angstroms):
                    1          2          3          4          5
     1  O    0.000000
     2  C    1.423748   0.000000
     3  C    2.482116   1.799998   0.000000
     4  C    2.150011   2.408570   1.483278   0.000000
     5  C    2.748125   3.272935   2.565786   1.480330   0.000000
     6  Fe   1.864579   3.066047   4.204155   3.585051   4.073146
     7  Cl   3.147457   4.569933   5.145736   3.973104   3.799774
     8  C    2.820465   3.334352   2.580872   1.479234   2.532444
     9  Cl   3.274649   4.002113   5.627897   5.385629   5.734652
    10  Cl   3.289417   4.009661   4.779026   4.290236   5.274594
    11  H    3.113409   2.345320   1.092205   2.127243   2.631646
    12  H    3.838747   4.145663   2.971276   2.078781   2.970499
    13  H    2.849157   3.211942   2.777520   2.151506   3.440083
    14  H    3.053447   3.946115   3.479238   2.138977   2.661602
    15  H    3.789404   4.194517   3.097598   2.084707   1.103135
    16  H    2.785418   3.723078   3.412504   2.128793   1.093963
    17  H    2.910961   3.185448   2.682847   2.148582   1.090707
    18  C    3.643395   2.808946   1.519854   2.575622   3.855419
    19  H    4.457589   3.771613   2.171310   2.919363   4.026663
    20  H    4.197370   3.060077   2.150228   3.485121   4.666412
    21  H    3.660718   3.020654   2.187626   2.861082   4.305291
    22  C    2.441803   1.511800   2.739320   3.492743   4.628199
    23  H    3.388664   2.167026   3.001169   4.099119   5.247969
    24  H    2.716933   2.122906   3.696041   4.278100   5.258148
    25  H    2.691470   2.171846   2.947873   3.452052   4.764539
    26  C    2.404814   1.514263   2.700629   3.429209   3.793236
    27  H    2.672404   2.129619   3.668085   4.216326   4.519330
    28  H    3.362542   2.169251   2.973902   4.052253   4.516240
    29  H    2.635318   2.163868   2.851393   3.315442   3.245699
                    6          7          8          9         10
     6  Fe   0.000000
     7  Cl   2.219969   0.000000
     8  C    3.576009   3.802504   0.000000
     9  Cl   2.194783   3.775176   5.664846   0.000000
    10  Cl   2.221943   3.651426   3.596564   3.678501   0.000000
    11  H    4.951817   5.734867   3.446866   6.185482   5.790718
    12  H    4.676315   4.741291   1.103172   6.763518   4.497365
    13  H    3.363821   4.098867   1.090864   5.373847   2.832401
    14  H    3.346909   3.009098   1.091676   5.523559   3.515673
    15  H    5.055892   4.558549   2.833736   6.811649   6.039796
    16  H    3.638697   2.871443   2.734044   5.340513   5.005857
    17  H    4.431366   4.345466   3.467870   5.745557   5.889385
    18  C    5.110808   6.223047   3.011384   6.562482   5.051588
    19  H    5.919303   6.751723   3.218438   7.519987   5.802959
    20  H    5.710401   7.038341   4.063658   6.874086   5.678525
    21  H    4.792241   6.029396   2.797415   6.316850   4.300434
    22  C    3.401812   5.337023   3.965262   4.049507   3.624043
    23  H    4.491879   6.391508   4.666107   4.979711   4.596189
    24  H    3.209130   5.333190   4.718743   3.274979   3.593219
    25  H    3.307380   5.193999   3.501529   4.323105   2.890302
    26  C    3.964603   5.312196   4.633807   4.274774   5.315375
    27  H    3.790099   5.285613   5.286211   3.542636   5.297429
    28  H    4.941976   6.372190   5.269123   5.162024   6.054598
    29  H    4.259625   5.161500   4.678913   4.709734   5.851718
                   11         12         13         14         15
    11  H    0.000000
    12  H    3.706634   0.000000
    13  H    3.815420   1.769599   0.000000
    14  H    4.258787   1.781885   1.784692   0.000000
    15  H    3.040099   2.860916   3.866786   2.968523   0.000000
    16  H    3.625672   3.337710   3.621091   2.419030   1.775045
    17  H    2.365360   3.925826   4.250771   3.685383   1.778086
    18  C    2.173597   3.046603   2.858173   4.087146   4.133038
    19  H    2.550945   2.868661   3.274110   4.287035   4.004283
    20  H    2.479454   4.139473   3.821147   5.122792   4.993515
    21  H    3.095027   2.905320   2.275758   3.842679   4.645833
    22  C    3.454104   4.734181   3.413120   4.643668   5.484014
    23  H    3.529082   5.270516   4.124425   5.476616   6.009855
    24  H    4.331793   5.598731   4.145685   5.225556   6.213460
    25  H    3.883360   4.230287   2.715376   4.181454   5.534118
    26  C    2.614260   5.388577   4.675746   5.164966   4.719800
    27  H    3.694158   6.156465   5.234589   5.681801   5.530674
    28  H    2.697301   5.890617   5.250789   5.944166   5.312140
    29  H    2.479952   5.378364   4.965397   5.106826   4.131152
                   16         17         18         19         20
    16  H    0.000000
    17  H    1.797149   0.000000
    18  C    4.688914   4.119077   0.000000
    19  H    4.930144   4.370533   1.096700   0.000000
    20  H    5.539947   4.724232   1.093724   1.765444   0.000000
    21  H    4.957356   4.742218   1.092215   1.771164   1.765137
    22  C    5.019871   4.669007   3.001896   4.093052   2.998264
    23  H    5.798389   5.182130   2.921176   3.992358   2.522714
    24  H    5.485494   5.232535   4.096876   5.185875   4.055258
    25  H    5.086664   5.044081   2.891778   3.912308   3.109854
    26  C    4.275850   3.249703   3.822905   4.697462   3.785716
    27  H    4.788706   3.993101   4.742091   5.682323   4.684937
    28  H    5.156431   3.920632   3.788925   4.636328   3.449914
    29  H    3.737961   2.472252   4.201021   4.899675   4.301935
                   21         22         23         24         25
    21  H    0.000000
    22  C    2.812614   0.000000
    23  H    2.879832   1.094108   0.000000
    24  H    3.861898   1.097386   1.774723   0.000000
    25  H    2.318968   1.091275   1.787300   1.762898   0.000000
    26  C    4.296954   2.529651   2.791526   2.757245   3.483339
    27  H    5.059424   2.780339   3.151861   2.555068   3.767054
    28  H    4.381294   2.784376   2.599012   3.110298   3.799125
    29  H    4.811029   3.477354   3.792652   3.755315   4.316803
                   26         27         28         29
    26  C    0.000000
    27  H    1.096555   0.000000
    28  H    1.095138   1.782898   0.000000
    29  H    1.093566   1.768842   1.785196   0.000000
 Framework group  C1[X(C8H16Cl3FeO)]
 Deg. of freedom    81
                         Standard orientation:                         
 ---------------------------------------------------------------------
 Center     Atomic      Atomic             Coordinates (Angstroms)
 Number     Number       Type             X           Y           Z
 ---------------------------------------------------------------------
      1          8           0       -0.369488   -0.216748   -0.558510
      2          6           0       -1.390293   -1.197200   -0.404465
      3          6           0       -2.817080   -0.128413   -0.155533
      4          6           0       -2.026405    1.121707   -0.265746
      5          6           0       -1.919012    1.815508   -1.569005
      6         26           0        1.379311    0.042867    0.033907
      7         17           0        1.797303    2.051884   -0.813086
      8          6           0       -1.571272    1.849051    0.939226
      9         17           0        2.575503   -1.640742   -0.708829
     10         17           0        1.302599    0.131275    2.252765
     11          1           0       -3.445268   -0.261796   -1.038992
     12          1           0       -2.434797    2.439800    1.288982
     13          1           0       -1.279668    1.181399    1.751133
     14          1           0       -0.751310    2.533186    0.712559
     15          1           0       -2.662916    2.629975   -1.556477
     16          1           0       -0.929911    2.268185   -1.685270
     17          1           0       -2.144015    1.159429   -2.410775
     18          6           0       -3.596054   -0.372119    1.126560
     19          1           0       -4.407039    0.357208    1.241173
     20          1           0       -4.051562   -1.366024    1.096606
     21          1           0       -2.967497   -0.321565    2.018352
     22          6           0       -1.158497   -2.091915    0.791903
     23          1           0       -1.982011   -2.798933    0.929823
     24          1           0       -0.241456   -2.666418    0.609587
     25          1           0       -1.006423   -1.519861    1.708696
     26          6           0       -1.570437   -1.959390   -1.700461
     27          1           0       -0.643326   -2.506717   -1.908620
     28          1           0       -2.396723   -2.674941   -1.632891
     29          1           0       -1.749862   -1.277949   -2.536721
 ---------------------------------------------------------------------
 Rotational constants (GHZ):           0.5720061           0.3594262           0.3241680
   427 basis functions,  1056 primitive gaussians,   461 cartesian basis functions
    77 alpha electrons       72 beta electrons
       nuclear repulsion energy      1657.9250723264 Hartrees.
 NAtoms=   29 NActive=   29 NUniq=   29 SFac= 1.00D+00 NAtFMM=   60 NAOKFM=F Big=F
 Nuclear repulsion after empirical dispersion term =     1657.8246373122 Hartrees.
 Initial guess from the checkpoint file:  "checkpoint.chk"
 B after Tr=     0.000000    0.000000    0.000000
         Rot=    1.000000    0.000000    0.000000    0.000000 Ang=   0.00 deg.
 Initial guess <Sx>= 0.0000 <Sy>= 0.0000 <Sz>= 2.5000 <S**2>= 8.7621 S= 2.5020
 EnCoef did     3 forward-backward iterations
 SCF Done:  E(UB97D3) =  -3034.60608628     A.U. after   15 cycles
            NFock= 15  Conv=0.88D-08     -V/T= 2.0020
 <Sx>= 0.0000 <Sy>= 0.0000 <Sz>= 2.5000 <S**2>= 8.7604 S= 2.5017
 <L.S>= 0.000000000000E+00
 Annihilation of the first spin contaminant:
 S**2 before annihilation     8.7604,   after     8.7500
 1\1\GINC-HOLY7C04303\SP\UB97D3\Jul-CC-pVDZ\C8H16Cl3Fe1O1(6)\EKWAN\11-F
 eb-2020\0\\#t pop=none jul-cc-pvdz guess=read ub97d3 empiricaldispersi
 on=gd3bj\\theory_abbreviation b97d3_d3bj\\0,6\O,0,-0.369488,-0.216748,
 -0.55851\C,0,-1.390293,-1.1972,-0.404465\C,0,-2.81708,-0.128413,-0.155
 533\C,0,-2.026405,1.121707,-0.265746\C,0,-1.919012,1.815508,-1.569005\
 Fe,0,1.379311,0.042867,0.033907\Cl,0,1.797303,2.051884,-0.813086\C,0,-
 1.571272,1.849051,0.939226\Cl,0,2.575503,-1.640742,-0.708829\Cl,0,1.30
 2599,0.131275,2.252765\H,0,-3.445268,-0.261796,-1.038992\H,0,-2.434797
 ,2.4398,1.288982\H,0,-1.279668,1.181399,1.751133\H,0,-0.75131,2.533186
 ,0.712559\H,0,-2.662916,2.629975,-1.556477\H,0,-0.929911,2.268185,-1.6
 8527\H,0,-2.144015,1.159429,-2.410775\C,0,-3.596054,-0.372119,1.12656\
 H,0,-4.407039,0.357208,1.241173\H,0,-4.051562,-1.366024,1.096606\H,0,-
 2.967497,-0.321565,2.018352\C,0,-1.158497,-2.091915,0.791903\H,0,-1.98
 2011,-2.798933,0.929823\H,0,-0.241456,-2.666418,0.609587\H,0,-1.006423
 ,-1.519861,1.708696\C,0,-1.570437,-1.95939,-1.700461\H,0,-0.643326,-2.
 506717,-1.90862\H,0,-2.396723,-2.674941,-1.632891\H,0,-1.749862,-1.277
 949,-2.536721\\Version=ES64L-G16RevA.03\HF=-3034.6060863\S2=8.760426\S
 2-1=0.\S2A=8.750035\RMSD=8.778e-09\PG=C01 [X(C8H16Cl3Fe1O1)]\\@


 RESEARCH IS WHAT I AM DOING WHEN I DON'T KNOW WHAT I AM DOING.
     -- WERNER VON BRAUN
 Job cpu time:       0 days  0 hours 48 minutes 18.1 seconds.
 Elapsed time:       0 days  0 hours 12 minutes  9.2 seconds.
 File lengths (MBytes):  RWF=    174 Int=      0 D2E=      0 Chk=     13 Scr=      1
 Normal termination of Gaussian 16 at Tue Feb 11 23:13:00 2020.
