 Entering Gaussian System, Link 0=g16
 Input=simple-grid-215-265-b3lyp_d3bj-631gd-gas-singlepoint-DFT-juldz2-gas.gjf
 Output=simple-grid-215-265-b3lyp_d3bj-631gd-gas-singlepoint-DFT-juldz2-gas.out
 Initial command:
 /n/sw/g16_nehalem/g16/l1.exe "/scratch/Gau-75527.inp" -scrdir="/scratch/"
 Entering Link 1 = /n/sw/g16_nehalem/g16/l1.exe PID=     75529.
  
 Copyright (c) 1988,1990,1992,1993,1995,1998,2003,2009,2016,
            Gaussian, Inc.  All Rights Reserved.
  
 This is part of the Gaussian(R) 16 program.  It is based on
 the Gaussian(R) 09 system (copyright 2009, Gaussian, Inc.),
 the Gaussian(R) 03 system (copyright 2003, Gaussian, Inc.),
 the Gaussian(R) 98 system (copyright 1998, Gaussian, Inc.),
 the Gaussian(R) 94 system (copyright 1995, Gaussian, Inc.),
 the Gaussian 92(TM) system (copyright 1992, Gaussian, Inc.),
 the Gaussian 90(TM) system (copyright 1990, Gaussian, Inc.),
 the Gaussian 88(TM) system (copyright 1988, Gaussian, Inc.),
 the Gaussian 86(TM) system (copyright 1986, Carnegie Mellon
 University), and the Gaussian 82(TM) system (copyright 1983,
 Carnegie Mellon University). Gaussian is a federally registered
 trademark of Gaussian, Inc.
  
 This software contains proprietary and confidential information,
 including trade secrets, belonging to Gaussian, Inc.
  
 This software is provided under written license and may be
 used, copied, transmitted, or stored only in accord with that
 written license.
  
 The following legend is applicable only to US Government
 contracts under FAR:
  
                    RESTRICTED RIGHTS LEGEND
  
 Use, reproduction and disclosure by the US Government is
 subject to restrictions as set forth in subparagraphs (a)
 and (c) of the Commercial Computer Software - Restricted
 Rights clause in FAR 52.227-19.
  
 Gaussian, Inc.
 340 Quinnipiac St., Bldg. 40, Wallingford CT 06492
  
  
 ---------------------------------------------------------------
 Warning -- This program may not be used in any manner that
 competes with the business of Gaussian, Inc. or will provide
 assistance to any competitor of Gaussian, Inc.  The licensee
 of this program is prohibited from giving any competitor of
 Gaussian, Inc. access to this program.  By using this program,
 the user acknowledges that Gaussian, Inc. is engaged in the
 business of creating and licensing software in the field of
 computational chemistry and represents and warrants to the
 licensee that it is not a competitor of Gaussian, Inc. and that
 it will not use this program in any manner prohibited above.
 ---------------------------------------------------------------
  

 Cite this work as:
 Gaussian 16, Revision A.03,
 M. J. Frisch, G. W. Trucks, H. B. Schlegel, G. E. Scuseria, 
 M. A. Robb, J. R. Cheeseman, G. Scalmani, V. Barone, 
 G. A. Petersson, H. Nakatsuji, X. Li, M. Caricato, A. V. Marenich, 
 J. Bloino, B. G. Janesko, R. Gomperts, B. Mennucci, H. P. Hratchian, 
 J. V. Ortiz, A. F. Izmaylov, J. L. Sonnenberg, D. Williams-Young, 
 F. Ding, F. Lipparini, F. Egidi, J. Goings, B. Peng, A. Petrone, 
 T. Henderson, D. Ranasinghe, V. G. Zakrzewski, J. Gao, N. Rega, 
 G. Zheng, W. Liang, M. Hada, M. Ehara, K. Toyota, R. Fukuda, 
 J. Hasegawa, M. Ishida, T. Nakajima, Y. Honda, O. Kitao, H. Nakai, 
 T. Vreven, K. Throssell, J. A. Montgomery, Jr., J. E. Peralta, 
 F. Ogliaro, M. J. Bearpark, J. J. Heyd, E. N. Brothers, K. N. Kudin, 
 V. N. Staroverov, T. A. Keith, R. Kobayashi, J. Normand, 
 K. Raghavachari, A. P. Rendell, J. C. Burant, S. S. Iyengar, 
 J. Tomasi, M. Cossi, J. M. Millam, M. Klene, C. Adamo, R. Cammi, 
 J. W. Ochterski, R. L. Martin, K. Morokuma, O. Farkas, 
 J. B. Foresman, and D. J. Fox, Gaussian, Inc., Wallingford CT, 2016.
 
 ******************************************
 Gaussian 16:  ES64L-G16RevA.03 25-Dec-2016
                12-Feb-2020 
 ******************************************
 %chk=checkpoint.chk
 %mem=3GB
 %nprocshared=4
 Will use up to    4 processors via shared memory.
 --------------------------------
 #t pop=none jul-cc-pvdz upbe1pbe
 --------------------------------
 ------------------------
 theory_abbreviation pbe0
 ------------------------
 Symbolic Z-matrix:
 Charge =  0 Multiplicity = 6
 O                    -0.29046  -0.2154   -0.76538 
 C                    -1.17876  -1.13339  -0.60621 
 C                    -2.8062   -0.27868   0.50887 
 C                    -2.57492   0.93796  -0.07727 
 C                    -3.17578   1.30912  -1.39657 
 Fe                    1.43739   0.13432  -0.01711 
 Cl                    1.9989    2.07122  -0.86946 
 C                    -1.67221   1.96625   0.51257 
 Cl                    2.65015  -1.57847  -0.65205 
 Cl                    1.18946   0.21014   2.17924 
 H                    -3.57208  -0.89814   0.04536 
 H                    -2.22683   2.90412   0.64799 
 H                    -1.23162   1.67678   1.46487 
 H                    -0.85978   2.1877   -0.19242 
 H                    -3.72135   2.25528  -1.28959 
 H                    -2.38488   1.49253  -2.136 
 H                    -3.86763   0.556    -1.7787 
 C                    -2.57813  -0.54006   1.98305 
 H                    -3.32198   0.01502   2.56791 
 H                    -2.70661  -1.59804   2.22065 
 H                    -1.58841  -0.23298   2.32693 
 C                    -0.87058  -2.25926   0.35495 
 H                    -1.72932  -2.91049   0.52685 
 H                    -0.08141  -2.84538  -0.13627 
 H                    -0.46629  -1.90037   1.30058 
 C                    -1.88837  -1.5613   -1.87446 
 H                    -1.1757   -2.20543  -2.40609 
 H                    -2.79214  -2.14237  -1.6808 
 H                    -2.1071   -0.71613  -2.52446 
 
                    Distance matrix (angstroms):
                    1          2          3          4          5
     1  O    0.000000
     2  C    1.287289   0.000000
     3  C    2.820756   2.150001   0.000000
     4  C    2.649993   2.553336   1.370131   0.000000
     5  C    3.323795   3.252478   2.507665   1.496445   0.000000
     6  Fe   1.915118   2.966198   4.295955   4.092434   4.956245
     7  Cl   3.237383   4.520658   5.523657   4.778244   5.256989
     8  C    2.881318   3.332107   2.515085   1.490020   2.517404
     9  Cl   3.243145   3.854959   5.727906   5.827870   6.544763
    10  Cl   3.322963   3.895161   4.358252   4.448828   5.748868
    11  H    3.448537   2.491554   1.088645   2.092995   2.666117
    12  H    3.934284   4.355801   3.238092   2.124373   2.761294
    13  H    3.072478   3.491303   2.686455   2.174507   3.478899
    14  H    2.535212   3.361935   3.219218   2.125274   2.754217
    15  H    4.260291   4.291260   3.239281   2.125886   1.097415
    16  H    3.030212   3.269625   3.210926   2.140570   1.098151
    17  H    3.797106   3.385088   2.656376   2.170691   1.091732
    18  C    3.590643   3.002424   1.514441   2.535637   3.898518
    19  H    4.511547   3.998413   2.142878   2.899462   4.172903
    20  H    4.082383   3.246746   2.163518   3.424770   4.664326
    21  H    3.353715   3.095461   2.188705   2.850343   4.331539
    22  C    2.401881   1.512075   2.773624   3.648800   4.595110
    23  H    3.317178   2.178305   2.843662   3.986293   4.857658
    24  H    2.712245   2.087085   3.798506   4.531523   5.331354
    25  H    2.671743   2.175245   2.954967   3.794842   4.991662
    26  C    2.365328   1.514957   2.857931   3.153966   3.181993
    27  H    2.726860   2.094955   3.855892   4.154769   4.167915
    28  H    3.287791   2.185355   2.875448   3.479498   3.484352
    29  H    2.577838   2.171547   3.143438   2.990585   2.552613
                    6          7          8          9         10
     6  Fe   0.000000
     7  Cl   2.189385   0.000000
     8  C    3.647758   3.924035   0.000000
     9  Cl   2.192620   3.713714   5.710007   0.000000
    10  Cl   2.211601   3.662431   3.748454   3.653622   0.000000
    11  H    5.115130   6.378851   3.468791   6.298036   5.334226
    12  H    4.641195   4.566528   1.097974   6.750459   4.612303
    13  H    3.420380   4.005105   1.088485   5.490542   2.919411
    14  H    3.086114   2.940068   1.098219   5.168647   3.706066
    15  H    5.721039   5.738610   2.744136   7.463253   6.350708
    16  H    4.576474   4.599615   2.783376   6.081499   5.748191
    17  H    5.605733   6.126891   3.472549   6.950306   6.431107
    18  C    4.536495   5.992060   3.043782   5.946169   3.846560
    19  H    5.417392   6.659972   3.279250   6.969483   4.532355
    20  H    5.018098   6.719676   4.085548   6.078454   4.295413
    21  H    3.845112   5.328701   2.852292   5.352575   2.816867
    22  C    3.345794   5.337242   4.303763   3.724654   3.697263
    23  H    4.426597   6.377048   4.877096   4.726923   4.581269
    24  H    3.346568   5.388712   5.109152   3.054909   4.038923
    25  H    3.082241   5.153613   4.126250   3.691685   2.822730
    26  C    4.169590   5.414430   4.264760   4.700287   5.389200
    27  H    4.243800   5.543379   5.115466   4.255211   5.696860
    28  H    5.083310   6.431691   4.790180   5.567297   6.023899
    29  H    4.424189   5.231402   4.075266   5.184687   5.818084
                   11         12         13         14         15
    11  H    0.000000
    12  H    4.077996   0.000000
    13  H    3.758053   1.778799   0.000000
    14  H    4.115273   1.757379   1.773669   0.000000
    15  H    3.427602   2.531560   3.757725   3.065441   0.000000
    16  H    3.447184   3.125404   3.785522   2.566447   1.756237
    17  H    2.351398   3.754297   4.327294   3.771723   1.774317
    18  C    2.206990   3.710550   2.644992   3.889223   4.453209
    19  H    2.694382   3.637628   2.889250   4.289799   4.478679
    20  H    2.443521   4.793006   3.670318   4.854430   5.310328
    21  H    3.095633   3.614946   2.125472   3.568995   4.880586
    22  C    3.040812   5.346567   4.105438   4.480530   5.586812
    23  H    2.770761   5.837115   4.708567   5.221586   5.826906
    24  H    4.001184   6.186654   4.933204   5.093220   6.371507
    25  H    3.496558   5.158342   3.661784   4.369914   5.879949
    26  C    2.638240   5.139771   4.697606   4.235822   4.274128
    27  H    3.668951   6.044817   5.482604   4.929473   5.255939
    28  H    2.266276   5.586580   5.188093   4.969782   4.511740
    29  H    2.963651   4.815077   4.733622   3.927646   3.599997
                   16         17         18         19         20
    16  H    0.000000
    17  H    1.789784   0.000000
    18  C    4.597319   4.124918   0.000000
    19  H    5.018761   4.414005   1.097039   0.000000
    20  H    5.351218   4.688570   1.091917   1.761036   0.000000
    21  H    4.850721   4.761677   1.091831   1.767722   1.767780
    22  C    4.751192   4.632541   2.919259   4.009852   2.699822
    23  H    5.187205   4.680221   2.908599   3.906551   2.355120
    24  H    5.303052   5.348125   4.004952   5.098609   3.742005
    25  H    5.196418   5.204306   2.603089   3.664673   2.440688
    26  C    3.104963   2.899928   4.049573   4.926930   4.176212
    27  H    3.899999   3.907122   4.899470   5.854708   4.911142
    28  H    3.685860   2.906447   4.004621   4.794435   3.940168
    29  H    2.259698   2.296501   4.535473   5.286090   4.863461
                   21         22         23         24         25
    21  H    0.000000
    22  C    2.917156   0.000000
    23  H    3.229432   1.091367   0.000000
    24  H    3.893977   1.098923   1.777520   0.000000
    25  H    2.256711   1.089250   1.792833   1.762302   0.000000
    26  C    4.416565   2.548191   2.758960   2.816961   3.495439
    27  H    5.144159   2.778365   3.066872   2.599823   3.786248
    28  H    4.599635   2.801842   2.567742   3.198105   3.789029
    29  H    4.902905   3.493025   3.777355   3.786899   4.327306
                   26         27         28         29
    26  C    0.000000
    27  H    1.097927   0.000000
    28  H    1.091763   1.772824   0.000000
    29  H    1.088422   1.760555   1.793098   0.000000
 Framework group  C1[X(C8H16Cl3FeO)]
 Deg. of freedom    81
                         Standard orientation:                         
 ---------------------------------------------------------------------
 Center     Atomic      Atomic             Coordinates (Angstroms)
 Number     Number       Type             X           Y           Z
 ---------------------------------------------------------------------
      1          8           0       -0.290463   -0.215402   -0.765384
      2          6           0       -1.178759   -1.133392   -0.606210
      3          6           0       -2.806199   -0.278679    0.508873
      4          6           0       -2.574915    0.937958   -0.077267
      5          6           0       -3.175781    1.309118   -1.396565
      6         26           0        1.437385    0.134315   -0.017109
      7         17           0        1.998897    2.071222   -0.869459
      8          6           0       -1.672212    1.966251    0.512565
      9         17           0        2.650146   -1.578474   -0.652049
     10         17           0        1.189459    0.210139    2.179243
     11          1           0       -3.572075   -0.898142    0.045356
     12          1           0       -2.226834    2.904122    0.647990
     13          1           0       -1.231615    1.676776    1.464866
     14          1           0       -0.859783    2.187698   -0.192421
     15          1           0       -3.721353    2.255283   -1.289590
     16          1           0       -2.384875    1.492533   -2.135998
     17          1           0       -3.867632    0.555998   -1.778704
     18          6           0       -2.578131   -0.540060    1.983050
     19          1           0       -3.321983    0.015023    2.567910
     20          1           0       -2.706609   -1.598040    2.220650
     21          1           0       -1.588413   -0.232980    2.326932
     22          6           0       -0.870584   -2.259258    0.354948
     23          1           0       -1.729322   -2.910490    0.526845
     24          1           0       -0.081409   -2.845380   -0.136270
     25          1           0       -0.466292   -1.900367    1.300575
     26          6           0       -1.888370   -1.561296   -1.874455
     27          1           0       -1.175699   -2.205431   -2.406088
     28          1           0       -2.792141   -2.142366   -1.680801
     29          1           0       -2.107102   -0.716126   -2.524460
 ---------------------------------------------------------------------
 Rotational constants (GHZ):           0.5783648           0.3363283           0.3157534
   427 basis functions,  1056 primitive gaussians,   461 cartesian basis functions
    77 alpha electrons       72 beta electrons
       nuclear repulsion energy      1643.7640580239 Hartrees.
 NAtoms=   29 NActive=   29 NUniq=   29 SFac= 1.00D+00 NAtFMM=   60 NAOKFM=F Big=F
 ExpMin= 1.40D-02 ExpMax= 4.32D+06 ExpMxC= 4.91D+03 IAcc=3 IRadAn=         5 AccDes= 0.00D+00
 Harris functional with IExCor= 1009 and IRadAn=       5 diagonalized for initial guess.
 HarFok:  IExCor= 1009 AccDes= 0.00D+00 IRadAn=         5 IDoV= 1 UseB2=F ITyADJ=14
 ICtDFT=  3500011 ScaDFX=  1.000000  1.000000  1.000000  1.000000
 FoFCou: FMM=F IPFlag=           0 FMFlag=      100000 FMFlg1=           0
         NFxFlg=           0 DoJE=T BraDBF=F KetDBF=T FulRan=T
         wScrn=  0.000000 ICntrl=       500 IOpCl=  0 I1Cent=   200000004 NGrid=           0
         NMat0=    1 NMatS0=      1 NMatT0=    0 NMatD0=    1 NMtDS0=    0 NMtDT0=    0
 Petite list used in FoFCou.
 Initial guess <Sx>= 0.0000 <Sy>= 0.0000 <Sz>= 2.5000 <S**2>= 8.7500 S= 2.5000
 EnCoef did   100 forward-backward iterations
 SCF Done:  E(UPBE1PBE) =  -3033.11707468     A.U. after   20 cycles
            NFock= 20  Conv=0.98D-08     -V/T= 2.0021
 <Sx>= 0.0000 <Sy>= 0.0000 <Sz>= 2.5000 <S**2>= 8.7624 S= 2.5021
 <L.S>= 0.000000000000E+00
 Annihilation of the first spin contaminant:
 S**2 before annihilation     8.7624,   after     8.7500
 1\1\GINC-HOLY7C04201\SP\UPBE1PBE\Jul-CC-pVDZ\C8H16Cl3Fe1O1(6)\EKWAN\12
 -Feb-2020\0\\#t pop=none jul-cc-pvdz upbe1pbe\\theory_abbreviation pbe
 0\\0,6\O,0,-0.290463,-0.215402,-0.765384\C,0,-1.178759,-1.133392,-0.60
 621\C,0,-2.806199,-0.278679,0.508873\C,0,-2.574915,0.937958,-0.077267\
 C,0,-3.175781,1.309118,-1.396565\Fe,0,1.437385,0.134315,-0.017109\Cl,0
 ,1.998897,2.071222,-0.869459\C,0,-1.672212,1.966251,0.512565\Cl,0,2.65
 0146,-1.578474,-0.652049\Cl,0,1.189459,0.210139,2.179243\H,0,-3.572075
 ,-0.898142,0.045356\H,0,-2.226834,2.904122,0.64799\H,0,-1.231615,1.676
 776,1.464866\H,0,-0.859783,2.187698,-0.192421\H,0,-3.721353,2.255283,-
 1.28959\H,0,-2.384875,1.492533,-2.135998\H,0,-3.867632,0.555998,-1.778
 704\C,0,-2.578131,-0.54006,1.98305\H,0,-3.321983,0.015023,2.56791\H,0,
 -2.706609,-1.59804,2.22065\H,0,-1.588413,-0.23298,2.326932\C,0,-0.8705
 84,-2.259258,0.354948\H,0,-1.729322,-2.91049,0.526845\H,0,-0.081409,-2
 .84538,-0.13627\H,0,-0.466292,-1.900367,1.300575\C,0,-1.88837,-1.56129
 6,-1.874455\H,0,-1.175699,-2.205431,-2.406088\H,0,-2.792141,-2.142366,
 -1.680801\H,0,-2.107102,-0.716126,-2.52446\\Version=ES64L-G16RevA.03\H
 F=-3033.1170747\S2=8.762424\S2-1=0.\S2A=8.750048\RMSD=9.772e-09\PG=C01
  [X(C8H16Cl3Fe1O1)]\\@


 If your ship doesn't come in, swim out to it!
                          -- Jonathan Winters
 Job cpu time:       0 days  1 hours 22 minutes 32.8 seconds.
 Elapsed time:       0 days  0 hours 20 minutes 41.4 seconds.
 File lengths (MBytes):  RWF=    173 Int=      0 D2E=      0 Chk=     13 Scr=      1
 Normal termination of Gaussian 16 at Wed Feb 12 07:01:21 2020.
 Initial command:
 /n/sw/g16_nehalem/g16/l1.exe "/scratch/Gau-75527.inp" -scrdir="/scratch/"
 Entering Link 1 = /n/sw/g16_nehalem/g16/l1.exe PID=     77803.
  
 Copyright (c) 1988,1990,1992,1993,1995,1998,2003,2009,2016,
            Gaussian, Inc.  All Rights Reserved.
  
 This is part of the Gaussian(R) 16 program.  It is based on
 the Gaussian(R) 09 system (copyright 2009, Gaussian, Inc.),
 the Gaussian(R) 03 system (copyright 2003, Gaussian, Inc.),
 the Gaussian(R) 98 system (copyright 1998, Gaussian, Inc.),
 the Gaussian(R) 94 system (copyright 1995, Gaussian, Inc.),
 the Gaussian 92(TM) system (copyright 1992, Gaussian, Inc.),
 the Gaussian 90(TM) system (copyright 1990, Gaussian, Inc.),
 the Gaussian 88(TM) system (copyright 1988, Gaussian, Inc.),
 the Gaussian 86(TM) system (copyright 1986, Carnegie Mellon
 University), and the Gaussian 82(TM) system (copyright 1983,
 Carnegie Mellon University). Gaussian is a federally registered
 trademark of Gaussian, Inc.
  
 This software contains proprietary and confidential information,
 including trade secrets, belonging to Gaussian, Inc.
  
 This software is provided under written license and may be
 used, copied, transmitted, or stored only in accord with that
 written license.
  
 The following legend is applicable only to US Government
 contracts under FAR:
  
                    RESTRICTED RIGHTS LEGEND
  
 Use, reproduction and disclosure by the US Government is
 subject to restrictions as set forth in subparagraphs (a)
 and (c) of the Commercial Computer Software - Restricted
 Rights clause in FAR 52.227-19.
  
 Gaussian, Inc.
 340 Quinnipiac St., Bldg. 40, Wallingford CT 06492
  
  
 ---------------------------------------------------------------
 Warning -- This program may not be used in any manner that
 competes with the business of Gaussian, Inc. or will provide
 assistance to any competitor of Gaussian, Inc.  The licensee
 of this program is prohibited from giving any competitor of
 Gaussian, Inc. access to this program.  By using this program,
 the user acknowledges that Gaussian, Inc. is engaged in the
 business of creating and licensing software in the field of
 computational chemistry and represents and warrants to the
 licensee that it is not a competitor of Gaussian, Inc. and that
 it will not use this program in any manner prohibited above.
 ---------------------------------------------------------------
  

 Cite this work as:
 Gaussian 16, Revision A.03,
 M. J. Frisch, G. W. Trucks, H. B. Schlegel, G. E. Scuseria, 
 M. A. Robb, J. R. Cheeseman, G. Scalmani, V. Barone, 
 G. A. Petersson, H. Nakatsuji, X. Li, M. Caricato, A. V. Marenich, 
 J. Bloino, B. G. Janesko, R. Gomperts, B. Mennucci, H. P. Hratchian, 
 J. V. Ortiz, A. F. Izmaylov, J. L. Sonnenberg, D. Williams-Young, 
 F. Ding, F. Lipparini, F. Egidi, J. Goings, B. Peng, A. Petrone, 
 T. Henderson, D. Ranasinghe, V. G. Zakrzewski, J. Gao, N. Rega, 
 G. Zheng, W. Liang, M. Hada, M. Ehara, K. Toyota, R. Fukuda, 
 J. Hasegawa, M. Ishida, T. Nakajima, Y. Honda, O. Kitao, H. Nakai, 
 T. Vreven, K. Throssell, J. A. Montgomery, Jr., J. E. Peralta, 
 F. Ogliaro, M. J. Bearpark, J. J. Heyd, E. N. Brothers, K. N. Kudin, 
 V. N. Staroverov, T. A. Keith, R. Kobayashi, J. Normand, 
 K. Raghavachari, A. P. Rendell, J. C. Burant, S. S. Iyengar, 
 J. Tomasi, M. Cossi, J. M. Millam, M. Klene, C. Adamo, R. Cammi, 
 J. W. Ochterski, R. L. Martin, K. Morokuma, O. Farkas, 
 J. B. Foresman, and D. J. Fox, Gaussian, Inc., Wallingford CT, 2016.
 
 ******************************************
 Gaussian 16:  ES64L-G16RevA.03 25-Dec-2016
                12-Feb-2020 
 ******************************************
 %chk=checkpoint.chk
 %mem=3GB
 %nprocshared=4
 Will use up to    4 processors via shared memory.
 ---------------------------------------------------------------------
 #t pop=none jul-cc-pvdz guess=read upbe1pbe empiricaldispersion=gd3bj
 ---------------------------------------------------------------------
 -----------------------------
 theory_abbreviation pbe0_d3bj
 -----------------------------
 Symbolic Z-matrix:
 Charge =  0 Multiplicity = 6
 O                    -0.29046  -0.2154   -0.76538 
 C                    -1.17876  -1.13339  -0.60621 
 C                    -2.8062   -0.27868   0.50887 
 C                    -2.57492   0.93796  -0.07727 
 C                    -3.17578   1.30912  -1.39657 
 Fe                    1.43739   0.13432  -0.01711 
 Cl                    1.9989    2.07122  -0.86946 
 C                    -1.67221   1.96625   0.51257 
 Cl                    2.65015  -1.57847  -0.65205 
 Cl                    1.18946   0.21014   2.17924 
 H                    -3.57208  -0.89814   0.04536 
 H                    -2.22683   2.90412   0.64799 
 H                    -1.23162   1.67678   1.46487 
 H                    -0.85978   2.1877   -0.19242 
 H                    -3.72135   2.25528  -1.28959 
 H                    -2.38488   1.49253  -2.136 
 H                    -3.86763   0.556    -1.7787 
 C                    -2.57813  -0.54006   1.98305 
 H                    -3.32198   0.01502   2.56791 
 H                    -2.70661  -1.59804   2.22065 
 H                    -1.58841  -0.23298   2.32693 
 C                    -0.87058  -2.25926   0.35495 
 H                    -1.72932  -2.91049   0.52685 
 H                    -0.08141  -2.84538  -0.13627 
 H                    -0.46629  -1.90037   1.30058 
 C                    -1.88837  -1.5613   -1.87446 
 H                    -1.1757   -2.20543  -2.40609 
 H                    -2.79214  -2.14237  -1.6808 
 H                    -2.1071   -0.71613  -2.52446 
 
                    Distance matrix (angstroms):
                    1          2          3          4          5
     1  O    0.000000
     2  C    1.287289   0.000000
     3  C    2.820756   2.150001   0.000000
     4  C    2.649993   2.553336   1.370131   0.000000
     5  C    3.323795   3.252478   2.507665   1.496445   0.000000
     6  Fe   1.915118   2.966198   4.295955   4.092434   4.956245
     7  Cl   3.237383   4.520658   5.523657   4.778244   5.256989
     8  C    2.881318   3.332107   2.515085   1.490020   2.517404
     9  Cl   3.243145   3.854959   5.727906   5.827870   6.544763
    10  Cl   3.322963   3.895161   4.358252   4.448828   5.748868
    11  H    3.448537   2.491554   1.088645   2.092995   2.666117
    12  H    3.934284   4.355801   3.238092   2.124373   2.761294
    13  H    3.072478   3.491303   2.686455   2.174507   3.478899
    14  H    2.535212   3.361935   3.219218   2.125274   2.754217
    15  H    4.260291   4.291260   3.239281   2.125886   1.097415
    16  H    3.030212   3.269625   3.210926   2.140570   1.098151
    17  H    3.797106   3.385088   2.656376   2.170691   1.091732
    18  C    3.590643   3.002424   1.514441   2.535637   3.898518
    19  H    4.511547   3.998413   2.142878   2.899462   4.172903
    20  H    4.082383   3.246746   2.163518   3.424770   4.664326
    21  H    3.353715   3.095461   2.188705   2.850343   4.331539
    22  C    2.401881   1.512075   2.773624   3.648800   4.595110
    23  H    3.317178   2.178305   2.843662   3.986293   4.857658
    24  H    2.712245   2.087085   3.798506   4.531523   5.331354
    25  H    2.671743   2.175245   2.954967   3.794842   4.991662
    26  C    2.365328   1.514957   2.857931   3.153966   3.181993
    27  H    2.726860   2.094955   3.855892   4.154769   4.167915
    28  H    3.287791   2.185355   2.875448   3.479498   3.484352
    29  H    2.577838   2.171547   3.143438   2.990585   2.552613
                    6          7          8          9         10
     6  Fe   0.000000
     7  Cl   2.189385   0.000000
     8  C    3.647758   3.924035   0.000000
     9  Cl   2.192620   3.713714   5.710007   0.000000
    10  Cl   2.211601   3.662431   3.748454   3.653622   0.000000
    11  H    5.115130   6.378851   3.468791   6.298036   5.334226
    12  H    4.641195   4.566528   1.097974   6.750459   4.612303
    13  H    3.420380   4.005105   1.088485   5.490542   2.919411
    14  H    3.086114   2.940068   1.098219   5.168647   3.706066
    15  H    5.721039   5.738610   2.744136   7.463253   6.350708
    16  H    4.576474   4.599615   2.783376   6.081499   5.748191
    17  H    5.605733   6.126891   3.472549   6.950306   6.431107
    18  C    4.536495   5.992060   3.043782   5.946169   3.846560
    19  H    5.417392   6.659972   3.279250   6.969483   4.532355
    20  H    5.018098   6.719676   4.085548   6.078454   4.295413
    21  H    3.845112   5.328701   2.852292   5.352575   2.816867
    22  C    3.345794   5.337242   4.303763   3.724654   3.697263
    23  H    4.426597   6.377048   4.877096   4.726923   4.581269
    24  H    3.346568   5.388712   5.109152   3.054909   4.038923
    25  H    3.082241   5.153613   4.126250   3.691685   2.822730
    26  C    4.169590   5.414430   4.264760   4.700287   5.389200
    27  H    4.243800   5.543379   5.115466   4.255211   5.696860
    28  H    5.083310   6.431691   4.790180   5.567297   6.023899
    29  H    4.424189   5.231402   4.075266   5.184687   5.818084
                   11         12         13         14         15
    11  H    0.000000
    12  H    4.077996   0.000000
    13  H    3.758053   1.778799   0.000000
    14  H    4.115273   1.757379   1.773669   0.000000
    15  H    3.427602   2.531560   3.757725   3.065441   0.000000
    16  H    3.447184   3.125404   3.785522   2.566447   1.756237
    17  H    2.351398   3.754297   4.327294   3.771723   1.774317
    18  C    2.206990   3.710550   2.644992   3.889223   4.453209
    19  H    2.694382   3.637628   2.889250   4.289799   4.478679
    20  H    2.443521   4.793006   3.670318   4.854430   5.310328
    21  H    3.095633   3.614946   2.125472   3.568995   4.880586
    22  C    3.040812   5.346567   4.105438   4.480530   5.586812
    23  H    2.770761   5.837115   4.708567   5.221586   5.826906
    24  H    4.001184   6.186654   4.933204   5.093220   6.371507
    25  H    3.496558   5.158342   3.661784   4.369914   5.879949
    26  C    2.638240   5.139771   4.697606   4.235822   4.274128
    27  H    3.668951   6.044817   5.482604   4.929473   5.255939
    28  H    2.266276   5.586580   5.188093   4.969782   4.511740
    29  H    2.963651   4.815077   4.733622   3.927646   3.599997
                   16         17         18         19         20
    16  H    0.000000
    17  H    1.789784   0.000000
    18  C    4.597319   4.124918   0.000000
    19  H    5.018761   4.414005   1.097039   0.000000
    20  H    5.351218   4.688570   1.091917   1.761036   0.000000
    21  H    4.850721   4.761677   1.091831   1.767722   1.767780
    22  C    4.751192   4.632541   2.919259   4.009852   2.699822
    23  H    5.187205   4.680221   2.908599   3.906551   2.355120
    24  H    5.303052   5.348125   4.004952   5.098609   3.742005
    25  H    5.196418   5.204306   2.603089   3.664673   2.440688
    26  C    3.104963   2.899928   4.049573   4.926930   4.176212
    27  H    3.899999   3.907122   4.899470   5.854708   4.911142
    28  H    3.685860   2.906447   4.004621   4.794435   3.940168
    29  H    2.259698   2.296501   4.535473   5.286090   4.863461
                   21         22         23         24         25
    21  H    0.000000
    22  C    2.917156   0.000000
    23  H    3.229432   1.091367   0.000000
    24  H    3.893977   1.098923   1.777520   0.000000
    25  H    2.256711   1.089250   1.792833   1.762302   0.000000
    26  C    4.416565   2.548191   2.758960   2.816961   3.495439
    27  H    5.144159   2.778365   3.066872   2.599823   3.786248
    28  H    4.599635   2.801842   2.567742   3.198105   3.789029
    29  H    4.902905   3.493025   3.777355   3.786899   4.327306
                   26         27         28         29
    26  C    0.000000
    27  H    1.097927   0.000000
    28  H    1.091763   1.772824   0.000000
    29  H    1.088422   1.760555   1.793098   0.000000
 Framework group  C1[X(C8H16Cl3FeO)]
 Deg. of freedom    81
                         Standard orientation:                         
 ---------------------------------------------------------------------
 Center     Atomic      Atomic             Coordinates (Angstroms)
 Number     Number       Type             X           Y           Z
 ---------------------------------------------------------------------
      1          8           0       -0.290463   -0.215402   -0.765384
      2          6           0       -1.178759   -1.133392   -0.606210
      3          6           0       -2.806199   -0.278679    0.508873
      4          6           0       -2.574915    0.937958   -0.077267
      5          6           0       -3.175781    1.309118   -1.396565
      6         26           0        1.437385    0.134315   -0.017109
      7         17           0        1.998897    2.071222   -0.869459
      8          6           0       -1.672212    1.966251    0.512565
      9         17           0        2.650146   -1.578474   -0.652049
     10         17           0        1.189459    0.210139    2.179243
     11          1           0       -3.572075   -0.898142    0.045356
     12          1           0       -2.226834    2.904122    0.647990
     13          1           0       -1.231615    1.676776    1.464866
     14          1           0       -0.859783    2.187698   -0.192421
     15          1           0       -3.721353    2.255283   -1.289590
     16          1           0       -2.384875    1.492533   -2.135998
     17          1           0       -3.867632    0.555998   -1.778704
     18          6           0       -2.578131   -0.540060    1.983050
     19          1           0       -3.321983    0.015023    2.567910
     20          1           0       -2.706609   -1.598040    2.220650
     21          1           0       -1.588413   -0.232980    2.326932
     22          6           0       -0.870584   -2.259258    0.354948
     23          1           0       -1.729322   -2.910490    0.526845
     24          1           0       -0.081409   -2.845380   -0.136270
     25          1           0       -0.466292   -1.900367    1.300575
     26          6           0       -1.888370   -1.561296   -1.874455
     27          1           0       -1.175699   -2.205431   -2.406088
     28          1           0       -2.792141   -2.142366   -1.680801
     29          1           0       -2.107102   -0.716126   -2.524460
 ---------------------------------------------------------------------
 Rotational constants (GHZ):           0.5783648           0.3363283           0.3157534
   427 basis functions,  1056 primitive gaussians,   461 cartesian basis functions
    77 alpha electrons       72 beta electrons
       nuclear repulsion energy      1643.7640580239 Hartrees.
 NAtoms=   29 NActive=   29 NUniq=   29 SFac= 1.00D+00 NAtFMM=   60 NAOKFM=F Big=F
 Nuclear repulsion after empirical dispersion term =     1643.7264883661 Hartrees.
 Initial guess from the checkpoint file:  "checkpoint.chk"
 B after Tr=     0.000000    0.000000    0.000000
         Rot=    1.000000    0.000000    0.000000    0.000000 Ang=   0.00 deg.
 Initial guess <Sx>= 0.0000 <Sy>= 0.0000 <Sz>= 2.5000 <S**2>= 8.7624 S= 2.5021
 SCF Done:  E(UPBE1PBE) =  -3033.15464434     A.U. after    1 cycles
            NFock=  1  Conv=0.41D-08     -V/T= 2.0021
 <Sx>= 0.0000 <Sy>= 0.0000 <Sz>= 2.5000 <S**2>= 8.7624 S= 2.5021
 <L.S>= 0.000000000000E+00
 Annihilation of the first spin contaminant:
 S**2 before annihilation     8.7624,   after     8.7500
 1\1\GINC-HOLY7C04201\SP\UPBE1PBE\Jul-CC-pVDZ\C8H16Cl3Fe1O1(6)\EKWAN\12
 -Feb-2020\0\\#t pop=none jul-cc-pvdz guess=read upbe1pbe empiricaldisp
 ersion=gd3bj\\theory_abbreviation pbe0_d3bj\\0,6\O,0,-0.290463,-0.2154
 02,-0.765384\C,0,-1.178759,-1.133392,-0.60621\C,0,-2.806199,-0.278679,
 0.508873\C,0,-2.574915,0.937958,-0.077267\C,0,-3.175781,1.309118,-1.39
 6565\Fe,0,1.437385,0.134315,-0.017109\Cl,0,1.998897,2.071222,-0.869459
 \C,0,-1.672212,1.966251,0.512565\Cl,0,2.650146,-1.578474,-0.652049\Cl,
 0,1.189459,0.210139,2.179243\H,0,-3.572075,-0.898142,0.045356\H,0,-2.2
 26834,2.904122,0.64799\H,0,-1.231615,1.676776,1.464866\H,0,-0.859783,2
 .187698,-0.192421\H,0,-3.721353,2.255283,-1.28959\H,0,-2.384875,1.4925
 33,-2.135998\H,0,-3.867632,0.555998,-1.778704\C,0,-2.578131,-0.54006,1
 .98305\H,0,-3.321983,0.015023,2.56791\H,0,-2.706609,-1.59804,2.22065\H
 ,0,-1.588413,-0.23298,2.326932\C,0,-0.870584,-2.259258,0.354948\H,0,-1
 .729322,-2.91049,0.526845\H,0,-0.081409,-2.84538,-0.13627\H,0,-0.46629
 2,-1.900367,1.300575\C,0,-1.88837,-1.561296,-1.874455\H,0,-1.175699,-2
 .205431,-2.406088\H,0,-2.792141,-2.142366,-1.680801\H,0,-2.107102,-0.7
 16126,-2.52446\\Version=ES64L-G16RevA.03\HF=-3033.1546443\S2=8.762424\
 S2-1=0.\S2A=8.750048\RMSD=4.098e-09\PG=C01 [X(C8H16Cl3Fe1O1)]\\@


 "I COULD HAVE DONE IT IN A MUCH MORE COMPLICATED WAY"
 SAID THE RED QUEEN, IMMENSELY PROUD.

                                      -- LEWIS CARROLL
 Job cpu time:       0 days  0 hours  4 minutes 27.7 seconds.
 Elapsed time:       0 days  0 hours  1 minutes  7.3 seconds.
 File lengths (MBytes):  RWF=    170 Int=      0 D2E=      0 Chk=     13 Scr=      1
 Normal termination of Gaussian 16 at Wed Feb 12 07:02:29 2020.
 Initial command:
 /n/sw/g16_nehalem/g16/l1.exe "/scratch/Gau-75527.inp" -scrdir="/scratch/"
 Entering Link 1 = /n/sw/g16_nehalem/g16/l1.exe PID=     77895.
  
 Copyright (c) 1988,1990,1992,1993,1995,1998,2003,2009,2016,
            Gaussian, Inc.  All Rights Reserved.
  
 This is part of the Gaussian(R) 16 program.  It is based on
 the Gaussian(R) 09 system (copyright 2009, Gaussian, Inc.),
 the Gaussian(R) 03 system (copyright 2003, Gaussian, Inc.),
 the Gaussian(R) 98 system (copyright 1998, Gaussian, Inc.),
 the Gaussian(R) 94 system (copyright 1995, Gaussian, Inc.),
 the Gaussian 92(TM) system (copyright 1992, Gaussian, Inc.),
 the Gaussian 90(TM) system (copyright 1990, Gaussian, Inc.),
 the Gaussian 88(TM) system (copyright 1988, Gaussian, Inc.),
 the Gaussian 86(TM) system (copyright 1986, Carnegie Mellon
 University), and the Gaussian 82(TM) system (copyright 1983,
 Carnegie Mellon University). Gaussian is a federally registered
 trademark of Gaussian, Inc.
  
 This software contains proprietary and confidential information,
 including trade secrets, belonging to Gaussian, Inc.
  
 This software is provided under written license and may be
 used, copied, transmitted, or stored only in accord with that
 written license.
  
 The following legend is applicable only to US Government
 contracts under FAR:
  
                    RESTRICTED RIGHTS LEGEND
  
 Use, reproduction and disclosure by the US Government is
 subject to restrictions as set forth in subparagraphs (a)
 and (c) of the Commercial Computer Software - Restricted
 Rights clause in FAR 52.227-19.
  
 Gaussian, Inc.
 340 Quinnipiac St., Bldg. 40, Wallingford CT 06492
  
  
 ---------------------------------------------------------------
 Warning -- This program may not be used in any manner that
 competes with the business of Gaussian, Inc. or will provide
 assistance to any competitor of Gaussian, Inc.  The licensee
 of this program is prohibited from giving any competitor of
 Gaussian, Inc. access to this program.  By using this program,
 the user acknowledges that Gaussian, Inc. is engaged in the
 business of creating and licensing software in the field of
 computational chemistry and represents and warrants to the
 licensee that it is not a competitor of Gaussian, Inc. and that
 it will not use this program in any manner prohibited above.
 ---------------------------------------------------------------
  

 Cite this work as:
 Gaussian 16, Revision A.03,
 M. J. Frisch, G. W. Trucks, H. B. Schlegel, G. E. Scuseria, 
 M. A. Robb, J. R. Cheeseman, G. Scalmani, V. Barone, 
 G. A. Petersson, H. Nakatsuji, X. Li, M. Caricato, A. V. Marenich, 
 J. Bloino, B. G. Janesko, R. Gomperts, B. Mennucci, H. P. Hratchian, 
 J. V. Ortiz, A. F. Izmaylov, J. L. Sonnenberg, D. Williams-Young, 
 F. Ding, F. Lipparini, F. Egidi, J. Goings, B. Peng, A. Petrone, 
 T. Henderson, D. Ranasinghe, V. G. Zakrzewski, J. Gao, N. Rega, 
 G. Zheng, W. Liang, M. Hada, M. Ehara, K. Toyota, R. Fukuda, 
 J. Hasegawa, M. Ishida, T. Nakajima, Y. Honda, O. Kitao, H. Nakai, 
 T. Vreven, K. Throssell, J. A. Montgomery, Jr., J. E. Peralta, 
 F. Ogliaro, M. J. Bearpark, J. J. Heyd, E. N. Brothers, K. N. Kudin, 
 V. N. Staroverov, T. A. Keith, R. Kobayashi, J. Normand, 
 K. Raghavachari, A. P. Rendell, J. C. Burant, S. S. Iyengar, 
 J. Tomasi, M. Cossi, J. M. Millam, M. Klene, C. Adamo, R. Cammi, 
 J. W. Ochterski, R. L. Martin, K. Morokuma, O. Farkas, 
 J. B. Foresman, and D. J. Fox, Gaussian, Inc., Wallingford CT, 2016.
 
 ******************************************
 Gaussian 16:  ES64L-G16RevA.03 25-Dec-2016
                12-Feb-2020 
 ******************************************
 %chk=checkpoint.chk
 %mem=3GB
 %nprocshared=4
 Will use up to    4 processors via shared memory.
 -----------------------------------------
 #t pop=none jul-cc-pvdz guess=read ub3lyp
 -----------------------------------------
 -------------------------
 theory_abbreviation b3lyp
 -------------------------
 Symbolic Z-matrix:
 Charge =  0 Multiplicity = 6
 O                    -0.29046  -0.2154   -0.76538 
 C                    -1.17876  -1.13339  -0.60621 
 C                    -2.8062   -0.27868   0.50887 
 C                    -2.57492   0.93796  -0.07727 
 C                    -3.17578   1.30912  -1.39657 
 Fe                    1.43739   0.13432  -0.01711 
 Cl                    1.9989    2.07122  -0.86946 
 C                    -1.67221   1.96625   0.51257 
 Cl                    2.65015  -1.57847  -0.65205 
 Cl                    1.18946   0.21014   2.17924 
 H                    -3.57208  -0.89814   0.04536 
 H                    -2.22683   2.90412   0.64799 
 H                    -1.23162   1.67678   1.46487 
 H                    -0.85978   2.1877   -0.19242 
 H                    -3.72135   2.25528  -1.28959 
 H                    -2.38488   1.49253  -2.136 
 H                    -3.86763   0.556    -1.7787 
 C                    -2.57813  -0.54006   1.98305 
 H                    -3.32198   0.01502   2.56791 
 H                    -2.70661  -1.59804   2.22065 
 H                    -1.58841  -0.23298   2.32693 
 C                    -0.87058  -2.25926   0.35495 
 H                    -1.72932  -2.91049   0.52685 
 H                    -0.08141  -2.84538  -0.13627 
 H                    -0.46629  -1.90037   1.30058 
 C                    -1.88837  -1.5613   -1.87446 
 H                    -1.1757   -2.20543  -2.40609 
 H                    -2.79214  -2.14237  -1.6808 
 H                    -2.1071   -0.71613  -2.52446 
 
                    Distance matrix (angstroms):
                    1          2          3          4          5
     1  O    0.000000
     2  C    1.287289   0.000000
     3  C    2.820756   2.150001   0.000000
     4  C    2.649993   2.553336   1.370131   0.000000
     5  C    3.323795   3.252478   2.507665   1.496445   0.000000
     6  Fe   1.915118   2.966198   4.295955   4.092434   4.956245
     7  Cl   3.237383   4.520658   5.523657   4.778244   5.256989
     8  C    2.881318   3.332107   2.515085   1.490020   2.517404
     9  Cl   3.243145   3.854959   5.727906   5.827870   6.544763
    10  Cl   3.322963   3.895161   4.358252   4.448828   5.748868
    11  H    3.448537   2.491554   1.088645   2.092995   2.666117
    12  H    3.934284   4.355801   3.238092   2.124373   2.761294
    13  H    3.072478   3.491303   2.686455   2.174507   3.478899
    14  H    2.535212   3.361935   3.219218   2.125274   2.754217
    15  H    4.260291   4.291260   3.239281   2.125886   1.097415
    16  H    3.030212   3.269625   3.210926   2.140570   1.098151
    17  H    3.797106   3.385088   2.656376   2.170691   1.091732
    18  C    3.590643   3.002424   1.514441   2.535637   3.898518
    19  H    4.511547   3.998413   2.142878   2.899462   4.172903
    20  H    4.082383   3.246746   2.163518   3.424770   4.664326
    21  H    3.353715   3.095461   2.188705   2.850343   4.331539
    22  C    2.401881   1.512075   2.773624   3.648800   4.595110
    23  H    3.317178   2.178305   2.843662   3.986293   4.857658
    24  H    2.712245   2.087085   3.798506   4.531523   5.331354
    25  H    2.671743   2.175245   2.954967   3.794842   4.991662
    26  C    2.365328   1.514957   2.857931   3.153966   3.181993
    27  H    2.726860   2.094955   3.855892   4.154769   4.167915
    28  H    3.287791   2.185355   2.875448   3.479498   3.484352
    29  H    2.577838   2.171547   3.143438   2.990585   2.552613
                    6          7          8          9         10
     6  Fe   0.000000
     7  Cl   2.189385   0.000000
     8  C    3.647758   3.924035   0.000000
     9  Cl   2.192620   3.713714   5.710007   0.000000
    10  Cl   2.211601   3.662431   3.748454   3.653622   0.000000
    11  H    5.115130   6.378851   3.468791   6.298036   5.334226
    12  H    4.641195   4.566528   1.097974   6.750459   4.612303
    13  H    3.420380   4.005105   1.088485   5.490542   2.919411
    14  H    3.086114   2.940068   1.098219   5.168647   3.706066
    15  H    5.721039   5.738610   2.744136   7.463253   6.350708
    16  H    4.576474   4.599615   2.783376   6.081499   5.748191
    17  H    5.605733   6.126891   3.472549   6.950306   6.431107
    18  C    4.536495   5.992060   3.043782   5.946169   3.846560
    19  H    5.417392   6.659972   3.279250   6.969483   4.532355
    20  H    5.018098   6.719676   4.085548   6.078454   4.295413
    21  H    3.845112   5.328701   2.852292   5.352575   2.816867
    22  C    3.345794   5.337242   4.303763   3.724654   3.697263
    23  H    4.426597   6.377048   4.877096   4.726923   4.581269
    24  H    3.346568   5.388712   5.109152   3.054909   4.038923
    25  H    3.082241   5.153613   4.126250   3.691685   2.822730
    26  C    4.169590   5.414430   4.264760   4.700287   5.389200
    27  H    4.243800   5.543379   5.115466   4.255211   5.696860
    28  H    5.083310   6.431691   4.790180   5.567297   6.023899
    29  H    4.424189   5.231402   4.075266   5.184687   5.818084
                   11         12         13         14         15
    11  H    0.000000
    12  H    4.077996   0.000000
    13  H    3.758053   1.778799   0.000000
    14  H    4.115273   1.757379   1.773669   0.000000
    15  H    3.427602   2.531560   3.757725   3.065441   0.000000
    16  H    3.447184   3.125404   3.785522   2.566447   1.756237
    17  H    2.351398   3.754297   4.327294   3.771723   1.774317
    18  C    2.206990   3.710550   2.644992   3.889223   4.453209
    19  H    2.694382   3.637628   2.889250   4.289799   4.478679
    20  H    2.443521   4.793006   3.670318   4.854430   5.310328
    21  H    3.095633   3.614946   2.125472   3.568995   4.880586
    22  C    3.040812   5.346567   4.105438   4.480530   5.586812
    23  H    2.770761   5.837115   4.708567   5.221586   5.826906
    24  H    4.001184   6.186654   4.933204   5.093220   6.371507
    25  H    3.496558   5.158342   3.661784   4.369914   5.879949
    26  C    2.638240   5.139771   4.697606   4.235822   4.274128
    27  H    3.668951   6.044817   5.482604   4.929473   5.255939
    28  H    2.266276   5.586580   5.188093   4.969782   4.511740
    29  H    2.963651   4.815077   4.733622   3.927646   3.599997
                   16         17         18         19         20
    16  H    0.000000
    17  H    1.789784   0.000000
    18  C    4.597319   4.124918   0.000000
    19  H    5.018761   4.414005   1.097039   0.000000
    20  H    5.351218   4.688570   1.091917   1.761036   0.000000
    21  H    4.850721   4.761677   1.091831   1.767722   1.767780
    22  C    4.751192   4.632541   2.919259   4.009852   2.699822
    23  H    5.187205   4.680221   2.908599   3.906551   2.355120
    24  H    5.303052   5.348125   4.004952   5.098609   3.742005
    25  H    5.196418   5.204306   2.603089   3.664673   2.440688
    26  C    3.104963   2.899928   4.049573   4.926930   4.176212
    27  H    3.899999   3.907122   4.899470   5.854708   4.911142
    28  H    3.685860   2.906447   4.004621   4.794435   3.940168
    29  H    2.259698   2.296501   4.535473   5.286090   4.863461
                   21         22         23         24         25
    21  H    0.000000
    22  C    2.917156   0.000000
    23  H    3.229432   1.091367   0.000000
    24  H    3.893977   1.098923   1.777520   0.000000
    25  H    2.256711   1.089250   1.792833   1.762302   0.000000
    26  C    4.416565   2.548191   2.758960   2.816961   3.495439
    27  H    5.144159   2.778365   3.066872   2.599823   3.786248
    28  H    4.599635   2.801842   2.567742   3.198105   3.789029
    29  H    4.902905   3.493025   3.777355   3.786899   4.327306
                   26         27         28         29
    26  C    0.000000
    27  H    1.097927   0.000000
    28  H    1.091763   1.772824   0.000000
    29  H    1.088422   1.760555   1.793098   0.000000
 Framework group  C1[X(C8H16Cl3FeO)]
 Deg. of freedom    81
                         Standard orientation:                         
 ---------------------------------------------------------------------
 Center     Atomic      Atomic             Coordinates (Angstroms)
 Number     Number       Type             X           Y           Z
 ---------------------------------------------------------------------
      1          8           0       -0.290463   -0.215402   -0.765384
      2          6           0       -1.178759   -1.133392   -0.606210
      3          6           0       -2.806199   -0.278679    0.508873
      4          6           0       -2.574915    0.937958   -0.077267
      5          6           0       -3.175781    1.309118   -1.396565
      6         26           0        1.437385    0.134315   -0.017109
      7         17           0        1.998897    2.071222   -0.869459
      8          6           0       -1.672212    1.966251    0.512565
      9         17           0        2.650146   -1.578474   -0.652049
     10         17           0        1.189459    0.210139    2.179243
     11          1           0       -3.572075   -0.898142    0.045356
     12          1           0       -2.226834    2.904122    0.647990
     13          1           0       -1.231615    1.676776    1.464866
     14          1           0       -0.859783    2.187698   -0.192421
     15          1           0       -3.721353    2.255283   -1.289590
     16          1           0       -2.384875    1.492533   -2.135998
     17          1           0       -3.867632    0.555998   -1.778704
     18          6           0       -2.578131   -0.540060    1.983050
     19          1           0       -3.321983    0.015023    2.567910
     20          1           0       -2.706609   -1.598040    2.220650
     21          1           0       -1.588413   -0.232980    2.326932
     22          6           0       -0.870584   -2.259258    0.354948
     23          1           0       -1.729322   -2.910490    0.526845
     24          1           0       -0.081409   -2.845380   -0.136270
     25          1           0       -0.466292   -1.900367    1.300575
     26          6           0       -1.888370   -1.561296   -1.874455
     27          1           0       -1.175699   -2.205431   -2.406088
     28          1           0       -2.792141   -2.142366   -1.680801
     29          1           0       -2.107102   -0.716126   -2.524460
 ---------------------------------------------------------------------
 Rotational constants (GHZ):           0.5783648           0.3363283           0.3157534
   427 basis functions,  1056 primitive gaussians,   461 cartesian basis functions
    77 alpha electrons       72 beta electrons
       nuclear repulsion energy      1643.7640580239 Hartrees.
 NAtoms=   29 NActive=   29 NUniq=   29 SFac= 1.00D+00 NAtFMM=   60 NAOKFM=F Big=F
 Initial guess from the checkpoint file:  "checkpoint.chk"
 B after Tr=     0.000000    0.000000    0.000000
         Rot=    1.000000    0.000000    0.000000    0.000000 Ang=   0.00 deg.
 Initial guess <Sx>= 0.0000 <Sy>= 0.0000 <Sz>= 2.5000 <S**2>= 8.7624 S= 2.5021
 SCF Done:  E(UB3LYP) =  -3034.33198361     A.U. after   13 cycles
            NFock= 13  Conv=0.78D-08     -V/T= 2.0024
 <Sx>= 0.0000 <Sy>= 0.0000 <Sz>= 2.5000 <S**2>= 8.7617 S= 2.5019
 <L.S>= 0.000000000000E+00
 Annihilation of the first spin contaminant:
 S**2 before annihilation     8.7617,   after     8.7500
 1\1\GINC-HOLY7C04201\SP\UB3LYP\Jul-CC-pVDZ\C8H16Cl3Fe1O1(6)\EKWAN\12-F
 eb-2020\0\\#t pop=none jul-cc-pvdz guess=read ub3lyp\\theory_abbreviat
 ion b3lyp\\0,6\O,0,-0.290463,-0.215402,-0.765384\C,0,-1.178759,-1.1333
 92,-0.60621\C,0,-2.806199,-0.278679,0.508873\C,0,-2.574915,0.937958,-0
 .077267\C,0,-3.175781,1.309118,-1.396565\Fe,0,1.437385,0.134315,-0.017
 109\Cl,0,1.998897,2.071222,-0.869459\C,0,-1.672212,1.966251,0.512565\C
 l,0,2.650146,-1.578474,-0.652049\Cl,0,1.189459,0.210139,2.179243\H,0,-
 3.572075,-0.898142,0.045356\H,0,-2.226834,2.904122,0.64799\H,0,-1.2316
 15,1.676776,1.464866\H,0,-0.859783,2.187698,-0.192421\H,0,-3.721353,2.
 255283,-1.28959\H,0,-2.384875,1.492533,-2.135998\H,0,-3.867632,0.55599
 8,-1.778704\C,0,-2.578131,-0.54006,1.98305\H,0,-3.321983,0.015023,2.56
 791\H,0,-2.706609,-1.59804,2.22065\H,0,-1.588413,-0.23298,2.326932\C,0
 ,-0.870584,-2.259258,0.354948\H,0,-1.729322,-2.91049,0.526845\H,0,-0.0
 81409,-2.84538,-0.13627\H,0,-0.466292,-1.900367,1.300575\C,0,-1.88837,
 -1.561296,-1.874455\H,0,-1.175699,-2.205431,-2.406088\H,0,-2.792141,-2
 .142366,-1.680801\H,0,-2.107102,-0.716126,-2.52446\\Version=ES64L-G16R
 evA.03\HF=-3034.3319836\S2=8.761699\S2-1=0.\S2A=8.750042\RMSD=7.843e-0
 9\PG=C01 [X(C8H16Cl3Fe1O1)]\\@


 A politician is a person who can make waves and then
 make you think he's the only one who can save the ship.
 -- Ivern Ball
 Job cpu time:       0 days  0 hours 52 minutes 35.5 seconds.
 Elapsed time:       0 days  0 hours 13 minutes 11.0 seconds.
 File lengths (MBytes):  RWF=    174 Int=      0 D2E=      0 Chk=     13 Scr=      1
 Normal termination of Gaussian 16 at Wed Feb 12 07:15:41 2020.
 Initial command:
 /n/sw/g16_nehalem/g16/l1.exe "/scratch/Gau-75527.inp" -scrdir="/scratch/"
 Entering Link 1 = /n/sw/g16_nehalem/g16/l1.exe PID=     78743.
  
 Copyright (c) 1988,1990,1992,1993,1995,1998,2003,2009,2016,
            Gaussian, Inc.  All Rights Reserved.
  
 This is part of the Gaussian(R) 16 program.  It is based on
 the Gaussian(R) 09 system (copyright 2009, Gaussian, Inc.),
 the Gaussian(R) 03 system (copyright 2003, Gaussian, Inc.),
 the Gaussian(R) 98 system (copyright 1998, Gaussian, Inc.),
 the Gaussian(R) 94 system (copyright 1995, Gaussian, Inc.),
 the Gaussian 92(TM) system (copyright 1992, Gaussian, Inc.),
 the Gaussian 90(TM) system (copyright 1990, Gaussian, Inc.),
 the Gaussian 88(TM) system (copyright 1988, Gaussian, Inc.),
 the Gaussian 86(TM) system (copyright 1986, Carnegie Mellon
 University), and the Gaussian 82(TM) system (copyright 1983,
 Carnegie Mellon University). Gaussian is a federally registered
 trademark of Gaussian, Inc.
  
 This software contains proprietary and confidential information,
 including trade secrets, belonging to Gaussian, Inc.
  
 This software is provided under written license and may be
 used, copied, transmitted, or stored only in accord with that
 written license.
  
 The following legend is applicable only to US Government
 contracts under FAR:
  
                    RESTRICTED RIGHTS LEGEND
  
 Use, reproduction and disclosure by the US Government is
 subject to restrictions as set forth in subparagraphs (a)
 and (c) of the Commercial Computer Software - Restricted
 Rights clause in FAR 52.227-19.
  
 Gaussian, Inc.
 340 Quinnipiac St., Bldg. 40, Wallingford CT 06492
  
  
 ---------------------------------------------------------------
 Warning -- This program may not be used in any manner that
 competes with the business of Gaussian, Inc. or will provide
 assistance to any competitor of Gaussian, Inc.  The licensee
 of this program is prohibited from giving any competitor of
 Gaussian, Inc. access to this program.  By using this program,
 the user acknowledges that Gaussian, Inc. is engaged in the
 business of creating and licensing software in the field of
 computational chemistry and represents and warrants to the
 licensee that it is not a competitor of Gaussian, Inc. and that
 it will not use this program in any manner prohibited above.
 ---------------------------------------------------------------
  

 Cite this work as:
 Gaussian 16, Revision A.03,
 M. J. Frisch, G. W. Trucks, H. B. Schlegel, G. E. Scuseria, 
 M. A. Robb, J. R. Cheeseman, G. Scalmani, V. Barone, 
 G. A. Petersson, H. Nakatsuji, X. Li, M. Caricato, A. V. Marenich, 
 J. Bloino, B. G. Janesko, R. Gomperts, B. Mennucci, H. P. Hratchian, 
 J. V. Ortiz, A. F. Izmaylov, J. L. Sonnenberg, D. Williams-Young, 
 F. Ding, F. Lipparini, F. Egidi, J. Goings, B. Peng, A. Petrone, 
 T. Henderson, D. Ranasinghe, V. G. Zakrzewski, J. Gao, N. Rega, 
 G. Zheng, W. Liang, M. Hada, M. Ehara, K. Toyota, R. Fukuda, 
 J. Hasegawa, M. Ishida, T. Nakajima, Y. Honda, O. Kitao, H. Nakai, 
 T. Vreven, K. Throssell, J. A. Montgomery, Jr., J. E. Peralta, 
 F. Ogliaro, M. J. Bearpark, J. J. Heyd, E. N. Brothers, K. N. Kudin, 
 V. N. Staroverov, T. A. Keith, R. Kobayashi, J. Normand, 
 K. Raghavachari, A. P. Rendell, J. C. Burant, S. S. Iyengar, 
 J. Tomasi, M. Cossi, J. M. Millam, M. Klene, C. Adamo, R. Cammi, 
 J. W. Ochterski, R. L. Martin, K. Morokuma, O. Farkas, 
 J. B. Foresman, and D. J. Fox, Gaussian, Inc., Wallingford CT, 2016.
 
 ******************************************
 Gaussian 16:  ES64L-G16RevA.03 25-Dec-2016
                12-Feb-2020 
 ******************************************
 %chk=checkpoint.chk
 %mem=3GB
 %nprocshared=4
 Will use up to    4 processors via shared memory.
 -------------------------------------------------------------------
 #t pop=none jul-cc-pvdz guess=read ub3lyp empiricaldispersion=gd3bj
 -------------------------------------------------------------------
 ------------------------------
 theory_abbreviation b3lyp_d3bj
 ------------------------------
 Symbolic Z-matrix:
 Charge =  0 Multiplicity = 6
 O                    -0.29046  -0.2154   -0.76538 
 C                    -1.17876  -1.13339  -0.60621 
 C                    -2.8062   -0.27868   0.50887 
 C                    -2.57492   0.93796  -0.07727 
 C                    -3.17578   1.30912  -1.39657 
 Fe                    1.43739   0.13432  -0.01711 
 Cl                    1.9989    2.07122  -0.86946 
 C                    -1.67221   1.96625   0.51257 
 Cl                    2.65015  -1.57847  -0.65205 
 Cl                    1.18946   0.21014   2.17924 
 H                    -3.57208  -0.89814   0.04536 
 H                    -2.22683   2.90412   0.64799 
 H                    -1.23162   1.67678   1.46487 
 H                    -0.85978   2.1877   -0.19242 
 H                    -3.72135   2.25528  -1.28959 
 H                    -2.38488   1.49253  -2.136 
 H                    -3.86763   0.556    -1.7787 
 C                    -2.57813  -0.54006   1.98305 
 H                    -3.32198   0.01502   2.56791 
 H                    -2.70661  -1.59804   2.22065 
 H                    -1.58841  -0.23298   2.32693 
 C                    -0.87058  -2.25926   0.35495 
 H                    -1.72932  -2.91049   0.52685 
 H                    -0.08141  -2.84538  -0.13627 
 H                    -0.46629  -1.90037   1.30058 
 C                    -1.88837  -1.5613   -1.87446 
 H                    -1.1757   -2.20543  -2.40609 
 H                    -2.79214  -2.14237  -1.6808 
 H                    -2.1071   -0.71613  -2.52446 
 
                    Distance matrix (angstroms):
                    1          2          3          4          5
     1  O    0.000000
     2  C    1.287289   0.000000
     3  C    2.820756   2.150001   0.000000
     4  C    2.649993   2.553336   1.370131   0.000000
     5  C    3.323795   3.252478   2.507665   1.496445   0.000000
     6  Fe   1.915118   2.966198   4.295955   4.092434   4.956245
     7  Cl   3.237383   4.520658   5.523657   4.778244   5.256989
     8  C    2.881318   3.332107   2.515085   1.490020   2.517404
     9  Cl   3.243145   3.854959   5.727906   5.827870   6.544763
    10  Cl   3.322963   3.895161   4.358252   4.448828   5.748868
    11  H    3.448537   2.491554   1.088645   2.092995   2.666117
    12  H    3.934284   4.355801   3.238092   2.124373   2.761294
    13  H    3.072478   3.491303   2.686455   2.174507   3.478899
    14  H    2.535212   3.361935   3.219218   2.125274   2.754217
    15  H    4.260291   4.291260   3.239281   2.125886   1.097415
    16  H    3.030212   3.269625   3.210926   2.140570   1.098151
    17  H    3.797106   3.385088   2.656376   2.170691   1.091732
    18  C    3.590643   3.002424   1.514441   2.535637   3.898518
    19  H    4.511547   3.998413   2.142878   2.899462   4.172903
    20  H    4.082383   3.246746   2.163518   3.424770   4.664326
    21  H    3.353715   3.095461   2.188705   2.850343   4.331539
    22  C    2.401881   1.512075   2.773624   3.648800   4.595110
    23  H    3.317178   2.178305   2.843662   3.986293   4.857658
    24  H    2.712245   2.087085   3.798506   4.531523   5.331354
    25  H    2.671743   2.175245   2.954967   3.794842   4.991662
    26  C    2.365328   1.514957   2.857931   3.153966   3.181993
    27  H    2.726860   2.094955   3.855892   4.154769   4.167915
    28  H    3.287791   2.185355   2.875448   3.479498   3.484352
    29  H    2.577838   2.171547   3.143438   2.990585   2.552613
                    6          7          8          9         10
     6  Fe   0.000000
     7  Cl   2.189385   0.000000
     8  C    3.647758   3.924035   0.000000
     9  Cl   2.192620   3.713714   5.710007   0.000000
    10  Cl   2.211601   3.662431   3.748454   3.653622   0.000000
    11  H    5.115130   6.378851   3.468791   6.298036   5.334226
    12  H    4.641195   4.566528   1.097974   6.750459   4.612303
    13  H    3.420380   4.005105   1.088485   5.490542   2.919411
    14  H    3.086114   2.940068   1.098219   5.168647   3.706066
    15  H    5.721039   5.738610   2.744136   7.463253   6.350708
    16  H    4.576474   4.599615   2.783376   6.081499   5.748191
    17  H    5.605733   6.126891   3.472549   6.950306   6.431107
    18  C    4.536495   5.992060   3.043782   5.946169   3.846560
    19  H    5.417392   6.659972   3.279250   6.969483   4.532355
    20  H    5.018098   6.719676   4.085548   6.078454   4.295413
    21  H    3.845112   5.328701   2.852292   5.352575   2.816867
    22  C    3.345794   5.337242   4.303763   3.724654   3.697263
    23  H    4.426597   6.377048   4.877096   4.726923   4.581269
    24  H    3.346568   5.388712   5.109152   3.054909   4.038923
    25  H    3.082241   5.153613   4.126250   3.691685   2.822730
    26  C    4.169590   5.414430   4.264760   4.700287   5.389200
    27  H    4.243800   5.543379   5.115466   4.255211   5.696860
    28  H    5.083310   6.431691   4.790180   5.567297   6.023899
    29  H    4.424189   5.231402   4.075266   5.184687   5.818084
                   11         12         13         14         15
    11  H    0.000000
    12  H    4.077996   0.000000
    13  H    3.758053   1.778799   0.000000
    14  H    4.115273   1.757379   1.773669   0.000000
    15  H    3.427602   2.531560   3.757725   3.065441   0.000000
    16  H    3.447184   3.125404   3.785522   2.566447   1.756237
    17  H    2.351398   3.754297   4.327294   3.771723   1.774317
    18  C    2.206990   3.710550   2.644992   3.889223   4.453209
    19  H    2.694382   3.637628   2.889250   4.289799   4.478679
    20  H    2.443521   4.793006   3.670318   4.854430   5.310328
    21  H    3.095633   3.614946   2.125472   3.568995   4.880586
    22  C    3.040812   5.346567   4.105438   4.480530   5.586812
    23  H    2.770761   5.837115   4.708567   5.221586   5.826906
    24  H    4.001184   6.186654   4.933204   5.093220   6.371507
    25  H    3.496558   5.158342   3.661784   4.369914   5.879949
    26  C    2.638240   5.139771   4.697606   4.235822   4.274128
    27  H    3.668951   6.044817   5.482604   4.929473   5.255939
    28  H    2.266276   5.586580   5.188093   4.969782   4.511740
    29  H    2.963651   4.815077   4.733622   3.927646   3.599997
                   16         17         18         19         20
    16  H    0.000000
    17  H    1.789784   0.000000
    18  C    4.597319   4.124918   0.000000
    19  H    5.018761   4.414005   1.097039   0.000000
    20  H    5.351218   4.688570   1.091917   1.761036   0.000000
    21  H    4.850721   4.761677   1.091831   1.767722   1.767780
    22  C    4.751192   4.632541   2.919259   4.009852   2.699822
    23  H    5.187205   4.680221   2.908599   3.906551   2.355120
    24  H    5.303052   5.348125   4.004952   5.098609   3.742005
    25  H    5.196418   5.204306   2.603089   3.664673   2.440688
    26  C    3.104963   2.899928   4.049573   4.926930   4.176212
    27  H    3.899999   3.907122   4.899470   5.854708   4.911142
    28  H    3.685860   2.906447   4.004621   4.794435   3.940168
    29  H    2.259698   2.296501   4.535473   5.286090   4.863461
                   21         22         23         24         25
    21  H    0.000000
    22  C    2.917156   0.000000
    23  H    3.229432   1.091367   0.000000
    24  H    3.893977   1.098923   1.777520   0.000000
    25  H    2.256711   1.089250   1.792833   1.762302   0.000000
    26  C    4.416565   2.548191   2.758960   2.816961   3.495439
    27  H    5.144159   2.778365   3.066872   2.599823   3.786248
    28  H    4.599635   2.801842   2.567742   3.198105   3.789029
    29  H    4.902905   3.493025   3.777355   3.786899   4.327306
                   26         27         28         29
    26  C    0.000000
    27  H    1.097927   0.000000
    28  H    1.091763   1.772824   0.000000
    29  H    1.088422   1.760555   1.793098   0.000000
 Framework group  C1[X(C8H16Cl3FeO)]
 Deg. of freedom    81
                         Standard orientation:                         
 ---------------------------------------------------------------------
 Center     Atomic      Atomic             Coordinates (Angstroms)
 Number     Number       Type             X           Y           Z
 ---------------------------------------------------------------------
      1          8           0       -0.290463   -0.215402   -0.765384
      2          6           0       -1.178759   -1.133392   -0.606210
      3          6           0       -2.806199   -0.278679    0.508873
      4          6           0       -2.574915    0.937958   -0.077267
      5          6           0       -3.175781    1.309118   -1.396565
      6         26           0        1.437385    0.134315   -0.017109
      7         17           0        1.998897    2.071222   -0.869459
      8          6           0       -1.672212    1.966251    0.512565
      9         17           0        2.650146   -1.578474   -0.652049
     10         17           0        1.189459    0.210139    2.179243
     11          1           0       -3.572075   -0.898142    0.045356
     12          1           0       -2.226834    2.904122    0.647990
     13          1           0       -1.231615    1.676776    1.464866
     14          1           0       -0.859783    2.187698   -0.192421
     15          1           0       -3.721353    2.255283   -1.289590
     16          1           0       -2.384875    1.492533   -2.135998
     17          1           0       -3.867632    0.555998   -1.778704
     18          6           0       -2.578131   -0.540060    1.983050
     19          1           0       -3.321983    0.015023    2.567910
     20          1           0       -2.706609   -1.598040    2.220650
     21          1           0       -1.588413   -0.232980    2.326932
     22          6           0       -0.870584   -2.259258    0.354948
     23          1           0       -1.729322   -2.910490    0.526845
     24          1           0       -0.081409   -2.845380   -0.136270
     25          1           0       -0.466292   -1.900367    1.300575
     26          6           0       -1.888370   -1.561296   -1.874455
     27          1           0       -1.175699   -2.205431   -2.406088
     28          1           0       -2.792141   -2.142366   -1.680801
     29          1           0       -2.107102   -0.716126   -2.524460
 ---------------------------------------------------------------------
 Rotational constants (GHZ):           0.5783648           0.3363283           0.3157534
   427 basis functions,  1056 primitive gaussians,   461 cartesian basis functions
    77 alpha electrons       72 beta electrons
       nuclear repulsion energy      1643.7640580239 Hartrees.
 NAtoms=   29 NActive=   29 NUniq=   29 SFac= 1.00D+00 NAtFMM=   60 NAOKFM=F Big=F
 Nuclear repulsion after empirical dispersion term =     1643.6940374512 Hartrees.
 Initial guess from the checkpoint file:  "checkpoint.chk"
 B after Tr=     0.000000    0.000000    0.000000
         Rot=    1.000000    0.000000    0.000000    0.000000 Ang=   0.00 deg.
 Initial guess <Sx>= 0.0000 <Sy>= 0.0000 <Sz>= 2.5000 <S**2>= 8.7617 S= 2.5019
 SCF Done:  E(UB3LYP) =  -3034.40200418     A.U. after    1 cycles
            NFock=  1  Conv=0.49D-08     -V/T= 2.0024
 <Sx>= 0.0000 <Sy>= 0.0000 <Sz>= 2.5000 <S**2>= 8.7617 S= 2.5019
 <L.S>= 0.000000000000E+00
 Annihilation of the first spin contaminant:
 S**2 before annihilation     8.7617,   after     8.7500
 1\1\GINC-HOLY7C04201\SP\UB3LYP\Jul-CC-pVDZ\C8H16Cl3Fe1O1(6)\EKWAN\12-F
 eb-2020\0\\#t pop=none jul-cc-pvdz guess=read ub3lyp empiricaldispersi
 on=gd3bj\\theory_abbreviation b3lyp_d3bj\\0,6\O,0,-0.290463,-0.215402,
 -0.765384\C,0,-1.178759,-1.133392,-0.60621\C,0,-2.806199,-0.278679,0.5
 08873\C,0,-2.574915,0.937958,-0.077267\C,0,-3.175781,1.309118,-1.39656
 5\Fe,0,1.437385,0.134315,-0.017109\Cl,0,1.998897,2.071222,-0.869459\C,
 0,-1.672212,1.966251,0.512565\Cl,0,2.650146,-1.578474,-0.652049\Cl,0,1
 .189459,0.210139,2.179243\H,0,-3.572075,-0.898142,0.045356\H,0,-2.2268
 34,2.904122,0.64799\H,0,-1.231615,1.676776,1.464866\H,0,-0.859783,2.18
 7698,-0.192421\H,0,-3.721353,2.255283,-1.28959\H,0,-2.384875,1.492533,
 -2.135998\H,0,-3.867632,0.555998,-1.778704\C,0,-2.578131,-0.54006,1.98
 305\H,0,-3.321983,0.015023,2.56791\H,0,-2.706609,-1.59804,2.22065\H,0,
 -1.588413,-0.23298,2.326932\C,0,-0.870584,-2.259258,0.354948\H,0,-1.72
 9322,-2.91049,0.526845\H,0,-0.081409,-2.84538,-0.13627\H,0,-0.466292,-
 1.900367,1.300575\C,0,-1.88837,-1.561296,-1.874455\H,0,-1.175699,-2.20
 5431,-2.406088\H,0,-2.792141,-2.142366,-1.680801\H,0,-2.107102,-0.7161
 26,-2.52446\\Version=ES64L-G16RevA.03\HF=-3034.4020042\S2=8.761699\S2-
 1=0.\S2A=8.750042\RMSD=4.858e-09\PG=C01 [X(C8H16Cl3Fe1O1)]\\@


 THEORY:  SUPPOSITION WHICH HAS SCIENTIFIC BASIS,
          BUT NOT EXPERIMENTALLY PROVEN.
 FACT:    A THEORY WHICH HAS BEEN PROVEN BY ENOUGH 
          MONEY TO PAY FOR THE EXPERIMENTS.

                          --  THE WIZARD OF ID
 Job cpu time:       0 days  0 hours  4 minutes 26.1 seconds.
 Elapsed time:       0 days  0 hours  1 minutes  6.9 seconds.
 File lengths (MBytes):  RWF=    170 Int=      0 D2E=      0 Chk=     13 Scr=      1
 Normal termination of Gaussian 16 at Wed Feb 12 07:16:48 2020.
 Initial command:
 /n/sw/g16_nehalem/g16/l1.exe "/scratch/Gau-75527.inp" -scrdir="/scratch/"
 Entering Link 1 = /n/sw/g16_nehalem/g16/l1.exe PID=     78827.
  
 Copyright (c) 1988,1990,1992,1993,1995,1998,2003,2009,2016,
            Gaussian, Inc.  All Rights Reserved.
  
 This is part of the Gaussian(R) 16 program.  It is based on
 the Gaussian(R) 09 system (copyright 2009, Gaussian, Inc.),
 the Gaussian(R) 03 system (copyright 2003, Gaussian, Inc.),
 the Gaussian(R) 98 system (copyright 1998, Gaussian, Inc.),
 the Gaussian(R) 94 system (copyright 1995, Gaussian, Inc.),
 the Gaussian 92(TM) system (copyright 1992, Gaussian, Inc.),
 the Gaussian 90(TM) system (copyright 1990, Gaussian, Inc.),
 the Gaussian 88(TM) system (copyright 1988, Gaussian, Inc.),
 the Gaussian 86(TM) system (copyright 1986, Carnegie Mellon
 University), and the Gaussian 82(TM) system (copyright 1983,
 Carnegie Mellon University). Gaussian is a federally registered
 trademark of Gaussian, Inc.
  
 This software contains proprietary and confidential information,
 including trade secrets, belonging to Gaussian, Inc.
  
 This software is provided under written license and may be
 used, copied, transmitted, or stored only in accord with that
 written license.
  
 The following legend is applicable only to US Government
 contracts under FAR:
  
                    RESTRICTED RIGHTS LEGEND
  
 Use, reproduction and disclosure by the US Government is
 subject to restrictions as set forth in subparagraphs (a)
 and (c) of the Commercial Computer Software - Restricted
 Rights clause in FAR 52.227-19.
  
 Gaussian, Inc.
 340 Quinnipiac St., Bldg. 40, Wallingford CT 06492
  
  
 ---------------------------------------------------------------
 Warning -- This program may not be used in any manner that
 competes with the business of Gaussian, Inc. or will provide
 assistance to any competitor of Gaussian, Inc.  The licensee
 of this program is prohibited from giving any competitor of
 Gaussian, Inc. access to this program.  By using this program,
 the user acknowledges that Gaussian, Inc. is engaged in the
 business of creating and licensing software in the field of
 computational chemistry and represents and warrants to the
 licensee that it is not a competitor of Gaussian, Inc. and that
 it will not use this program in any manner prohibited above.
 ---------------------------------------------------------------
  

 Cite this work as:
 Gaussian 16, Revision A.03,
 M. J. Frisch, G. W. Trucks, H. B. Schlegel, G. E. Scuseria, 
 M. A. Robb, J. R. Cheeseman, G. Scalmani, V. Barone, 
 G. A. Petersson, H. Nakatsuji, X. Li, M. Caricato, A. V. Marenich, 
 J. Bloino, B. G. Janesko, R. Gomperts, B. Mennucci, H. P. Hratchian, 
 J. V. Ortiz, A. F. Izmaylov, J. L. Sonnenberg, D. Williams-Young, 
 F. Ding, F. Lipparini, F. Egidi, J. Goings, B. Peng, A. Petrone, 
 T. Henderson, D. Ranasinghe, V. G. Zakrzewski, J. Gao, N. Rega, 
 G. Zheng, W. Liang, M. Hada, M. Ehara, K. Toyota, R. Fukuda, 
 J. Hasegawa, M. Ishida, T. Nakajima, Y. Honda, O. Kitao, H. Nakai, 
 T. Vreven, K. Throssell, J. A. Montgomery, Jr., J. E. Peralta, 
 F. Ogliaro, M. J. Bearpark, J. J. Heyd, E. N. Brothers, K. N. Kudin, 
 V. N. Staroverov, T. A. Keith, R. Kobayashi, J. Normand, 
 K. Raghavachari, A. P. Rendell, J. C. Burant, S. S. Iyengar, 
 J. Tomasi, M. Cossi, J. M. Millam, M. Klene, C. Adamo, R. Cammi, 
 J. W. Ochterski, R. L. Martin, K. Morokuma, O. Farkas, 
 J. B. Foresman, and D. J. Fox, Gaussian, Inc., Wallingford CT, 2016.
 
 ******************************************
 Gaussian 16:  ES64L-G16RevA.03 25-Dec-2016
                12-Feb-2020 
 ******************************************
 %chk=checkpoint.chk
 %mem=3GB
 %nprocshared=4
 Will use up to    4 processors via shared memory.
 ----------------------------------------
 #t pop=none jul-cc-pvdz guess=read ub97d
 ----------------------------------------
 ------------------------
 theory_abbreviation b97d
 ------------------------
 Symbolic Z-matrix:
 Charge =  0 Multiplicity = 6
 O                    -0.29046  -0.2154   -0.76538 
 C                    -1.17876  -1.13339  -0.60621 
 C                    -2.8062   -0.27868   0.50887 
 C                    -2.57492   0.93796  -0.07727 
 C                    -3.17578   1.30912  -1.39657 
 Fe                    1.43739   0.13432  -0.01711 
 Cl                    1.9989    2.07122  -0.86946 
 C                    -1.67221   1.96625   0.51257 
 Cl                    2.65015  -1.57847  -0.65205 
 Cl                    1.18946   0.21014   2.17924 
 H                    -3.57208  -0.89814   0.04536 
 H                    -2.22683   2.90412   0.64799 
 H                    -1.23162   1.67678   1.46487 
 H                    -0.85978   2.1877   -0.19242 
 H                    -3.72135   2.25528  -1.28959 
 H                    -2.38488   1.49253  -2.136 
 H                    -3.86763   0.556    -1.7787 
 C                    -2.57813  -0.54006   1.98305 
 H                    -3.32198   0.01502   2.56791 
 H                    -2.70661  -1.59804   2.22065 
 H                    -1.58841  -0.23298   2.32693 
 C                    -0.87058  -2.25926   0.35495 
 H                    -1.72932  -2.91049   0.52685 
 H                    -0.08141  -2.84538  -0.13627 
 H                    -0.46629  -1.90037   1.30058 
 C                    -1.88837  -1.5613   -1.87446 
 H                    -1.1757   -2.20543  -2.40609 
 H                    -2.79214  -2.14237  -1.6808 
 H                    -2.1071   -0.71613  -2.52446 
 
                    Distance matrix (angstroms):
                    1          2          3          4          5
     1  O    0.000000
     2  C    1.287289   0.000000
     3  C    2.820756   2.150001   0.000000
     4  C    2.649993   2.553336   1.370131   0.000000
     5  C    3.323795   3.252478   2.507665   1.496445   0.000000
     6  Fe   1.915118   2.966198   4.295955   4.092434   4.956245
     7  Cl   3.237383   4.520658   5.523657   4.778244   5.256989
     8  C    2.881318   3.332107   2.515085   1.490020   2.517404
     9  Cl   3.243145   3.854959   5.727906   5.827870   6.544763
    10  Cl   3.322963   3.895161   4.358252   4.448828   5.748868
    11  H    3.448537   2.491554   1.088645   2.092995   2.666117
    12  H    3.934284   4.355801   3.238092   2.124373   2.761294
    13  H    3.072478   3.491303   2.686455   2.174507   3.478899
    14  H    2.535212   3.361935   3.219218   2.125274   2.754217
    15  H    4.260291   4.291260   3.239281   2.125886   1.097415
    16  H    3.030212   3.269625   3.210926   2.140570   1.098151
    17  H    3.797106   3.385088   2.656376   2.170691   1.091732
    18  C    3.590643   3.002424   1.514441   2.535637   3.898518
    19  H    4.511547   3.998413   2.142878   2.899462   4.172903
    20  H    4.082383   3.246746   2.163518   3.424770   4.664326
    21  H    3.353715   3.095461   2.188705   2.850343   4.331539
    22  C    2.401881   1.512075   2.773624   3.648800   4.595110
    23  H    3.317178   2.178305   2.843662   3.986293   4.857658
    24  H    2.712245   2.087085   3.798506   4.531523   5.331354
    25  H    2.671743   2.175245   2.954967   3.794842   4.991662
    26  C    2.365328   1.514957   2.857931   3.153966   3.181993
    27  H    2.726860   2.094955   3.855892   4.154769   4.167915
    28  H    3.287791   2.185355   2.875448   3.479498   3.484352
    29  H    2.577838   2.171547   3.143438   2.990585   2.552613
                    6          7          8          9         10
     6  Fe   0.000000
     7  Cl   2.189385   0.000000
     8  C    3.647758   3.924035   0.000000
     9  Cl   2.192620   3.713714   5.710007   0.000000
    10  Cl   2.211601   3.662431   3.748454   3.653622   0.000000
    11  H    5.115130   6.378851   3.468791   6.298036   5.334226
    12  H    4.641195   4.566528   1.097974   6.750459   4.612303
    13  H    3.420380   4.005105   1.088485   5.490542   2.919411
    14  H    3.086114   2.940068   1.098219   5.168647   3.706066
    15  H    5.721039   5.738610   2.744136   7.463253   6.350708
    16  H    4.576474   4.599615   2.783376   6.081499   5.748191
    17  H    5.605733   6.126891   3.472549   6.950306   6.431107
    18  C    4.536495   5.992060   3.043782   5.946169   3.846560
    19  H    5.417392   6.659972   3.279250   6.969483   4.532355
    20  H    5.018098   6.719676   4.085548   6.078454   4.295413
    21  H    3.845112   5.328701   2.852292   5.352575   2.816867
    22  C    3.345794   5.337242   4.303763   3.724654   3.697263
    23  H    4.426597   6.377048   4.877096   4.726923   4.581269
    24  H    3.346568   5.388712   5.109152   3.054909   4.038923
    25  H    3.082241   5.153613   4.126250   3.691685   2.822730
    26  C    4.169590   5.414430   4.264760   4.700287   5.389200
    27  H    4.243800   5.543379   5.115466   4.255211   5.696860
    28  H    5.083310   6.431691   4.790180   5.567297   6.023899
    29  H    4.424189   5.231402   4.075266   5.184687   5.818084
                   11         12         13         14         15
    11  H    0.000000
    12  H    4.077996   0.000000
    13  H    3.758053   1.778799   0.000000
    14  H    4.115273   1.757379   1.773669   0.000000
    15  H    3.427602   2.531560   3.757725   3.065441   0.000000
    16  H    3.447184   3.125404   3.785522   2.566447   1.756237
    17  H    2.351398   3.754297   4.327294   3.771723   1.774317
    18  C    2.206990   3.710550   2.644992   3.889223   4.453209
    19  H    2.694382   3.637628   2.889250   4.289799   4.478679
    20  H    2.443521   4.793006   3.670318   4.854430   5.310328
    21  H    3.095633   3.614946   2.125472   3.568995   4.880586
    22  C    3.040812   5.346567   4.105438   4.480530   5.586812
    23  H    2.770761   5.837115   4.708567   5.221586   5.826906
    24  H    4.001184   6.186654   4.933204   5.093220   6.371507
    25  H    3.496558   5.158342   3.661784   4.369914   5.879949
    26  C    2.638240   5.139771   4.697606   4.235822   4.274128
    27  H    3.668951   6.044817   5.482604   4.929473   5.255939
    28  H    2.266276   5.586580   5.188093   4.969782   4.511740
    29  H    2.963651   4.815077   4.733622   3.927646   3.599997
                   16         17         18         19         20
    16  H    0.000000
    17  H    1.789784   0.000000
    18  C    4.597319   4.124918   0.000000
    19  H    5.018761   4.414005   1.097039   0.000000
    20  H    5.351218   4.688570   1.091917   1.761036   0.000000
    21  H    4.850721   4.761677   1.091831   1.767722   1.767780
    22  C    4.751192   4.632541   2.919259   4.009852   2.699822
    23  H    5.187205   4.680221   2.908599   3.906551   2.355120
    24  H    5.303052   5.348125   4.004952   5.098609   3.742005
    25  H    5.196418   5.204306   2.603089   3.664673   2.440688
[...]
 Rotational constants (GHZ):           0.5783648           0.3363283           0.3157534
   427 basis functions,  1056 primitive gaussians,   461 cartesian basis functions
    77 alpha electrons       72 beta electrons
       nuclear repulsion energy      1643.7640580239 Hartrees.
 NAtoms=   29 NActive=   29 NUniq=   29 SFac= 1.00D+00 NAtFMM=   60 NAOKFM=F Big=F
 Nuclear repulsion after empirical dispersion term =     1643.7616163119 Hartrees.
 Initial guess from the checkpoint file:  "checkpoint.chk"
 B after Tr=     0.000000    0.000000    0.000000
         Rot=    1.000000    0.000000    0.000000    0.000000 Ang=   0.00 deg.
 Initial guess <Sx>= 0.0000 <Sy>= 0.0000 <Sz>= 2.5000 <S**2>= 8.7614 S= 2.5019
 SCF Done:  E(UM06L) =  -3034.19968468     A.U. after   18 cycles
            NFock= 18  Conv=0.22D-08     -V/T= 2.0020
 <Sx>= 0.0000 <Sy>= 0.0000 <Sz>= 2.5000 <S**2>= 8.7615 S= 2.5019
 <L.S>= 0.000000000000E+00
 Annihilation of the first spin contaminant:
 S**2 before annihilation     8.7615,   after     8.7500
 1\1\GINC-HOLY7C04201\SP\UM06L\Jul-CC-pVDZ\C8H16Cl3Fe1O1(6)\EKWAN\12-Fe
 b-2020\0\\#t pop=none jul-cc-pvdz guess=read um06l empiricaldispersion
 =gd3\\theory_abbreviation m06l_d3\\0,6\O,0,-0.290463,-0.215402,-0.7653
 84\C,0,-1.178759,-1.133392,-0.60621\C,0,-2.806199,-0.278679,0.508873\C
 ,0,-2.574915,0.937958,-0.077267\C,0,-3.175781,1.309118,-1.396565\Fe,0,
 1.437385,0.134315,-0.017109\Cl,0,1.998897,2.071222,-0.869459\C,0,-1.67
 2212,1.966251,0.512565\Cl,0,2.650146,-1.578474,-0.652049\Cl,0,1.189459
 ,0.210139,2.179243\H,0,-3.572075,-0.898142,0.045356\H,0,-2.226834,2.90
 4122,0.64799\H,0,-1.231615,1.676776,1.464866\H,0,-0.859783,2.187698,-0
 .192421\H,0,-3.721353,2.255283,-1.28959\H,0,-2.384875,1.492533,-2.1359
 98\H,0,-3.867632,0.555998,-1.778704\C,0,-2.578131,-0.54006,1.98305\H,0
 ,-3.321983,0.015023,2.56791\H,0,-2.706609,-1.59804,2.22065\H,0,-1.5884
 13,-0.23298,2.326932\C,0,-0.870584,-2.259258,0.354948\H,0,-1.729322,-2
 .91049,0.526845\H,0,-0.081409,-2.84538,-0.13627\H,0,-0.466292,-1.90036
 7,1.300575\C,0,-1.88837,-1.561296,-1.874455\H,0,-1.175699,-2.205431,-2
 .406088\H,0,-2.792141,-2.142366,-1.680801\H,0,-2.107102,-0.716126,-2.5
 2446\\Version=ES64L-G16RevA.03\HF=-3034.1996847\S2=8.7615\S2-1=0.\S2A=
 8.750042\RMSD=2.198e-09\PG=C01 [X(C8H16Cl3Fe1O1)]\\@


 THE MOST INCOMPREHENSIBLE THING ABOUT THE WORLD
 IS THAT IT IS COMPREHENSIBLE. -- A. EINSTEIN
 Job cpu time:       0 days  1 hours 18 minutes  2.0 seconds.
 Elapsed time:       0 days  0 hours 19 minutes 33.6 seconds.
 File lengths (MBytes):  RWF=    174 Int=      0 D2E=      0 Chk=     13 Scr=      1
 Normal termination of Gaussian 16 at Wed Feb 12 16:29:55 2020.
 Initial command:
 /n/sw/g16_nehalem/g16/l1.exe "/scratch/Gau-75527.inp" -scrdir="/scratch/"
 Entering Link 1 = /n/sw/g16_nehalem/g16/l1.exe PID=    120990.
  
 Copyright (c) 1988,1990,1992,1993,1995,1998,2003,2009,2016,
            Gaussian, Inc.  All Rights Reserved.
  
 This is part of the Gaussian(R) 16 program.  It is based on
 the Gaussian(R) 09 system (copyright 2009, Gaussian, Inc.),
 the Gaussian(R) 03 system (copyright 2003, Gaussian, Inc.),
 the Gaussian(R) 98 system (copyright 1998, Gaussian, Inc.),
 the Gaussian(R) 94 system (copyright 1995, Gaussian, Inc.),
 the Gaussian 92(TM) system (copyright 1992, Gaussian, Inc.),
 the Gaussian 90(TM) system (copyright 1990, Gaussian, Inc.),
 the Gaussian 88(TM) system (copyright 1988, Gaussian, Inc.),
 the Gaussian 86(TM) system (copyright 1986, Carnegie Mellon
 University), and the Gaussian 82(TM) system (copyright 1983,
 Carnegie Mellon University). Gaussian is a federally registered
 trademark of Gaussian, Inc.
  
 This software contains proprietary and confidential information,
 including trade secrets, belonging to Gaussian, Inc.
  
 This software is provided under written license and may be
 used, copied, transmitted, or stored only in accord with that
 written license.
  
 The following legend is applicable only to US Government
 contracts under FAR:
  
                    RESTRICTED RIGHTS LEGEND
  
 Use, reproduction and disclosure by the US Government is
 subject to restrictions as set forth in subparagraphs (a)
 and (c) of the Commercial Computer Software - Restricted
 Rights clause in FAR 52.227-19.
  
 Gaussian, Inc.
 340 Quinnipiac St., Bldg. 40, Wallingford CT 06492
  
  
 ---------------------------------------------------------------
 Warning -- This program may not be used in any manner that
 competes with the business of Gaussian, Inc. or will provide
 assistance to any competitor of Gaussian, Inc.  The licensee
 of this program is prohibited from giving any competitor of
 Gaussian, Inc. access to this program.  By using this program,
 the user acknowledges that Gaussian, Inc. is engaged in the
 business of creating and licensing software in the field of
 computational chemistry and represents and warrants to the
 licensee that it is not a competitor of Gaussian, Inc. and that
 it will not use this program in any manner prohibited above.
 ---------------------------------------------------------------
  

 Cite this work as:
 Gaussian 16, Revision A.03,
 M. J. Frisch, G. W. Trucks, H. B. Schlegel, G. E. Scuseria, 
 M. A. Robb, J. R. Cheeseman, G. Scalmani, V. Barone, 
 G. A. Petersson, H. Nakatsuji, X. Li, M. Caricato, A. V. Marenich, 
 J. Bloino, B. G. Janesko, R. Gomperts, B. Mennucci, H. P. Hratchian, 
 J. V. Ortiz, A. F. Izmaylov, J. L. Sonnenberg, D. Williams-Young, 
 F. Ding, F. Lipparini, F. Egidi, J. Goings, B. Peng, A. Petrone, 
 T. Henderson, D. Ranasinghe, V. G. Zakrzewski, J. Gao, N. Rega, 
 G. Zheng, W. Liang, M. Hada, M. Ehara, K. Toyota, R. Fukuda, 
 J. Hasegawa, M. Ishida, T. Nakajima, Y. Honda, O. Kitao, H. Nakai, 
 T. Vreven, K. Throssell, J. A. Montgomery, Jr., J. E. Peralta, 
 F. Ogliaro, M. J. Bearpark, J. J. Heyd, E. N. Brothers, K. N. Kudin, 
 V. N. Staroverov, T. A. Keith, R. Kobayashi, J. Normand, 
 K. Raghavachari, A. P. Rendell, J. C. Burant, S. S. Iyengar, 
 J. Tomasi, M. Cossi, J. M. Millam, M. Klene, C. Adamo, R. Cammi, 
 J. W. Ochterski, R. L. Martin, K. Morokuma, O. Farkas, 
 J. B. Foresman, and D. J. Fox, Gaussian, Inc., Wallingford CT, 2016.
 
 ******************************************
 Gaussian 16:  ES64L-G16RevA.03 25-Dec-2016
                12-Feb-2020 
 ******************************************
 %chk=checkpoint.chk
 %mem=3GB
 %nprocshared=4
 Will use up to    4 processors via shared memory.
 -------------------------------------------------------------------
 #t pop=none jul-cc-pvdz guess=read ub97d3 empiricaldispersion=gd3bj
 -------------------------------------------------------------------
 ------------------------------
 theory_abbreviation b97d3_d3bj
 ------------------------------
 Symbolic Z-matrix:
 Charge =  0 Multiplicity = 6
 O                    -0.29046  -0.2154   -0.76538 
 C                    -1.17876  -1.13339  -0.60621 
 C                    -2.8062   -0.27868   0.50887 
 C                    -2.57492   0.93796  -0.07727 
 C                    -3.17578   1.30912  -1.39657 
 Fe                    1.43739   0.13432  -0.01711 
 Cl                    1.9989    2.07122  -0.86946 
 C                    -1.67221   1.96625   0.51257 
 Cl                    2.65015  -1.57847  -0.65205 
 Cl                    1.18946   0.21014   2.17924 
 H                    -3.57208  -0.89814   0.04536 
 H                    -2.22683   2.90412   0.64799 
 H                    -1.23162   1.67678   1.46487 
 H                    -0.85978   2.1877   -0.19242 
 H                    -3.72135   2.25528  -1.28959 
 H                    -2.38488   1.49253  -2.136 
 H                    -3.86763   0.556    -1.7787 
 C                    -2.57813  -0.54006   1.98305 
 H                    -3.32198   0.01502   2.56791 
 H                    -2.70661  -1.59804   2.22065 
 H                    -1.58841  -0.23298   2.32693 
 C                    -0.87058  -2.25926   0.35495 
 H                    -1.72932  -2.91049   0.52685 
 H                    -0.08141  -2.84538  -0.13627 
 H                    -0.46629  -1.90037   1.30058 
 C                    -1.88837  -1.5613   -1.87446 
 H                    -1.1757   -2.20543  -2.40609 
 H                    -2.79214  -2.14237  -1.6808 
 H                    -2.1071   -0.71613  -2.52446 
 
                    Distance matrix (angstroms):
                    1          2          3          4          5
     1  O    0.000000
     2  C    1.287289   0.000000
     3  C    2.820756   2.150001   0.000000
     4  C    2.649993   2.553336   1.370131   0.000000
     5  C    3.323795   3.252478   2.507665   1.496445   0.000000
     6  Fe   1.915118   2.966198   4.295955   4.092434   4.956245
     7  Cl   3.237383   4.520658   5.523657   4.778244   5.256989
     8  C    2.881318   3.332107   2.515085   1.490020   2.517404
     9  Cl   3.243145   3.854959   5.727906   5.827870   6.544763
    10  Cl   3.322963   3.895161   4.358252   4.448828   5.748868
    11  H    3.448537   2.491554   1.088645   2.092995   2.666117
    12  H    3.934284   4.355801   3.238092   2.124373   2.761294
    13  H    3.072478   3.491303   2.686455   2.174507   3.478899
    14  H    2.535212   3.361935   3.219218   2.125274   2.754217
    15  H    4.260291   4.291260   3.239281   2.125886   1.097415
    16  H    3.030212   3.269625   3.210926   2.140570   1.098151
    17  H    3.797106   3.385088   2.656376   2.170691   1.091732
    18  C    3.590643   3.002424   1.514441   2.535637   3.898518
    19  H    4.511547   3.998413   2.142878   2.899462   4.172903
    20  H    4.082383   3.246746   2.163518   3.424770   4.664326
    21  H    3.353715   3.095461   2.188705   2.850343   4.331539
    22  C    2.401881   1.512075   2.773624   3.648800   4.595110
    23  H    3.317178   2.178305   2.843662   3.986293   4.857658
    24  H    2.712245   2.087085   3.798506   4.531523   5.331354
    25  H    2.671743   2.175245   2.954967   3.794842   4.991662
    26  C    2.365328   1.514957   2.857931   3.153966   3.181993
    27  H    2.726860   2.094955   3.855892   4.154769   4.167915
    28  H    3.287791   2.185355   2.875448   3.479498   3.484352
    29  H    2.577838   2.171547   3.143438   2.990585   2.552613
                    6          7          8          9         10
     6  Fe   0.000000
     7  Cl   2.189385   0.000000
     8  C    3.647758   3.924035   0.000000
     9  Cl   2.192620   3.713714   5.710007   0.000000
    10  Cl   2.211601   3.662431   3.748454   3.653622   0.000000
    11  H    5.115130   6.378851   3.468791   6.298036   5.334226
    12  H    4.641195   4.566528   1.097974   6.750459   4.612303
    13  H    3.420380   4.005105   1.088485   5.490542   2.919411
    14  H    3.086114   2.940068   1.098219   5.168647   3.706066
    15  H    5.721039   5.738610   2.744136   7.463253   6.350708
    16  H    4.576474   4.599615   2.783376   6.081499   5.748191
    17  H    5.605733   6.126891   3.472549   6.950306   6.431107
    18  C    4.536495   5.992060   3.043782   5.946169   3.846560
    19  H    5.417392   6.659972   3.279250   6.969483   4.532355
    20  H    5.018098   6.719676   4.085548   6.078454   4.295413
    21  H    3.845112   5.328701   2.852292   5.352575   2.816867
    22  C    3.345794   5.337242   4.303763   3.724654   3.697263
    23  H    4.426597   6.377048   4.877096   4.726923   4.581269
    24  H    3.346568   5.388712   5.109152   3.054909   4.038923
    25  H    3.082241   5.153613   4.126250   3.691685   2.822730
    26  C    4.169590   5.414430   4.264760   4.700287   5.389200
    27  H    4.243800   5.543379   5.115466   4.255211   5.696860
    28  H    5.083310   6.431691   4.790180   5.567297   6.023899
    29  H    4.424189   5.231402   4.075266   5.184687   5.818084
                   11         12         13         14         15
    11  H    0.000000
    12  H    4.077996   0.000000
    13  H    3.758053   1.778799   0.000000
    14  H    4.115273   1.757379   1.773669   0.000000
    15  H    3.427602   2.531560   3.757725   3.065441   0.000000
    16  H    3.447184   3.125404   3.785522   2.566447   1.756237
    17  H    2.351398   3.754297   4.327294   3.771723   1.774317
    18  C    2.206990   3.710550   2.644992   3.889223   4.453209
    19  H    2.694382   3.637628   2.889250   4.289799   4.478679
    20  H    2.443521   4.793006   3.670318   4.854430   5.310328
    21  H    3.095633   3.614946   2.125472   3.568995   4.880586
    22  C    3.040812   5.346567   4.105438   4.480530   5.586812
    23  H    2.770761   5.837115   4.708567   5.221586   5.826906
    24  H    4.001184   6.186654   4.933204   5.093220   6.371507
    25  H    3.496558   5.158342   3.661784   4.369914   5.879949
    26  C    2.638240   5.139771   4.697606   4.235822   4.274128
    27  H    3.668951   6.044817   5.482604   4.929473   5.255939
    28  H    2.266276   5.586580   5.188093   4.969782   4.511740
    29  H    2.963651   4.815077   4.733622   3.927646   3.599997
                   16         17         18         19         20
    16  H    0.000000
    17  H    1.789784   0.000000
    18  C    4.597319   4.124918   0.000000
    19  H    5.018761   4.414005   1.097039   0.000000
    20  H    5.351218   4.688570   1.091917   1.761036   0.000000
    21  H    4.850721   4.761677   1.091831   1.767722   1.767780
    22  C    4.751192   4.632541   2.919259   4.009852   2.699822
    23  H    5.187205   4.680221   2.908599   3.906551   2.355120
    24  H    5.303052   5.348125   4.004952   5.098609   3.742005
    25  H    5.196418   5.204306   2.603089   3.664673   2.440688
    26  C    3.104963   2.899928   4.049573   4.926930   4.176212
    27  H    3.899999   3.907122   4.899470   5.854708   4.911142
    28  H    3.685860   2.906447   4.004621   4.794435   3.940168
    29  H    2.259698   2.296501   4.535473   5.286090   4.863461
                   21         22         23         24         25
    21  H    0.000000
    22  C    2.917156   0.000000
    23  H    3.229432   1.091367   0.000000
    24  H    3.893977   1.098923   1.777520   0.000000
    25  H    2.256711   1.089250   1.792833   1.762302   0.000000
    26  C    4.416565   2.548191   2.758960   2.816961   3.495439
    27  H    5.144159   2.778365   3.066872   2.599823   3.786248
    28  H    4.599635   2.801842   2.567742   3.198105   3.789029
    29  H    4.902905   3.493025   3.777355   3.786899   4.327306
                   26         27         28         29
    26  C    0.000000
    27  H    1.097927   0.000000
    28  H    1.091763   1.772824   0.000000
    29  H    1.088422   1.760555   1.793098   0.000000
 Framework group  C1[X(C8H16Cl3FeO)]
 Deg. of freedom    81
                         Standard orientation:                         
 ---------------------------------------------------------------------
 Center     Atomic      Atomic             Coordinates (Angstroms)
 Number     Number       Type             X           Y           Z
 ---------------------------------------------------------------------
      1          8           0       -0.290463   -0.215402   -0.765384
      2          6           0       -1.178759   -1.133392   -0.606210
      3          6           0       -2.806199   -0.278679    0.508873
      4          6           0       -2.574915    0.937958   -0.077267
      5          6           0       -3.175781    1.309118   -1.396565
      6         26           0        1.437385    0.134315   -0.017109
      7         17           0        1.998897    2.071222   -0.869459
      8          6           0       -1.672212    1.966251    0.512565
      9         17           0        2.650146   -1.578474   -0.652049
     10         17           0        1.189459    0.210139    2.179243
     11          1           0       -3.572075   -0.898142    0.045356
     12          1           0       -2.226834    2.904122    0.647990
     13          1           0       -1.231615    1.676776    1.464866
     14          1           0       -0.859783    2.187698   -0.192421
     15          1           0       -3.721353    2.255283   -1.289590
     16          1           0       -2.384875    1.492533   -2.135998
     17          1           0       -3.867632    0.555998   -1.778704
     18          6           0       -2.578131   -0.540060    1.983050
     19          1           0       -3.321983    0.015023    2.567910
     20          1           0       -2.706609   -1.598040    2.220650
     21          1           0       -1.588413   -0.232980    2.326932
     22          6           0       -0.870584   -2.259258    0.354948
     23          1           0       -1.729322   -2.910490    0.526845
     24          1           0       -0.081409   -2.845380   -0.136270
     25          1           0       -0.466292   -1.900367    1.300575
     26          6           0       -1.888370   -1.561296   -1.874455
     27          1           0       -1.175699   -2.205431   -2.406088
     28          1           0       -2.792141   -2.142366   -1.680801
     29          1           0       -2.107102   -0.716126   -2.524460
 ---------------------------------------------------------------------
 Rotational constants (GHZ):           0.5783648           0.3363283           0.3157534
   427 basis functions,  1056 primitive gaussians,   461 cartesian basis functions
    77 alpha electrons       72 beta electrons
       nuclear repulsion energy      1643.7640580239 Hartrees.
 NAtoms=   29 NActive=   29 NUniq=   29 SFac= 1.00D+00 NAtFMM=   60 NAOKFM=F Big=F
 Nuclear repulsion after empirical dispersion term =     1643.6609771757 Hartrees.
 Initial guess from the checkpoint file:  "checkpoint.chk"
 B after Tr=     0.000000    0.000000    0.000000
         Rot=    1.000000    0.000000    0.000000    0.000000 Ang=   0.00 deg.
 Initial guess <Sx>= 0.0000 <Sy>= 0.0000 <Sz>= 2.5000 <S**2>= 8.7615 S= 2.5019
 EnCoef did     2 forward-backward iterations
 SCF Done:  E(UB97D3) =  -3034.62226446     A.U. after   15 cycles
            NFock= 15  Conv=0.66D-08     -V/T= 2.0019
 <Sx>= 0.0000 <Sy>= 0.0000 <Sz>= 2.5000 <S**2>= 8.7595 S= 2.5016
 <L.S>= 0.000000000000E+00
 Annihilation of the first spin contaminant:
 S**2 before annihilation     8.7595,   after     8.7500
 1\1\GINC-HOLY7C04201\SP\UB97D3\Jul-CC-pVDZ\C8H16Cl3Fe1O1(6)\EKWAN\12-F
 eb-2020\0\\#t pop=none jul-cc-pvdz guess=read ub97d3 empiricaldispersi
 on=gd3bj\\theory_abbreviation b97d3_d3bj\\0,6\O,0,-0.290463,-0.215402,
 -0.765384\C,0,-1.178759,-1.133392,-0.60621\C,0,-2.806199,-0.278679,0.5
 08873\C,0,-2.574915,0.937958,-0.077267\C,0,-3.175781,1.309118,-1.39656
 5\Fe,0,1.437385,0.134315,-0.017109\Cl,0,1.998897,2.071222,-0.869459\C,
 0,-1.672212,1.966251,0.512565\Cl,0,2.650146,-1.578474,-0.652049\Cl,0,1
 .189459,0.210139,2.179243\H,0,-3.572075,-0.898142,0.045356\H,0,-2.2268
 34,2.904122,0.64799\H,0,-1.231615,1.676776,1.464866\H,0,-0.859783,2.18
 7698,-0.192421\H,0,-3.721353,2.255283,-1.28959\H,0,-2.384875,1.492533,
 -2.135998\H,0,-3.867632,0.555998,-1.778704\C,0,-2.578131,-0.54006,1.98
 305\H,0,-3.321983,0.015023,2.56791\H,0,-2.706609,-1.59804,2.22065\H,0,
 -1.588413,-0.23298,2.326932\C,0,-0.870584,-2.259258,0.354948\H,0,-1.72
 9322,-2.91049,0.526845\H,0,-0.081409,-2.84538,-0.13627\H,0,-0.466292,-
 1.900367,1.300575\C,0,-1.88837,-1.561296,-1.874455\H,0,-1.175699,-2.20
 5431,-2.406088\H,0,-2.792141,-2.142366,-1.680801\H,0,-2.107102,-0.7161
 26,-2.52446\\Version=ES64L-G16RevA.03\HF=-3034.6222645\S2=8.759533\S2-
 1=0.\S2A=8.750029\RMSD=6.578e-09\PG=C01 [X(C8H16Cl3Fe1O1)]\\@


 THE BEST WAY TO CONVINCE A FOOL THAT HE IS WRONG 
 IS TO LET HIM HAVE HIS OWN WAY.

                                         JOSH BILLINGS
 Job cpu time:       0 days  0 hours 47 minutes 29.9 seconds.
 Elapsed time:       0 days  0 hours 11 minutes 54.4 seconds.
 File lengths (MBytes):  RWF=    174 Int=      0 D2E=      0 Chk=     13 Scr=      1
 Normal termination of Gaussian 16 at Wed Feb 12 16:41:50 2020.
