 Entering Gaussian System, Link 0=g16
 Input=simple-grid-160-245-b3lyp_d3bj-631gd-gas-singlepoint-DFT-juldz2-gas.gjf
 Output=simple-grid-160-245-b3lyp_d3bj-631gd-gas-singlepoint-DFT-juldz2-gas.out
 Initial command:
 /n/sw/g16_nehalem/g16/l1.exe "/scratch/Gau-439078.inp" -scrdir="/scratch/"
 Entering Link 1 = /n/sw/g16_nehalem/g16/l1.exe PID=    439079.
  
 Copyright (c) 1988,1990,1992,1993,1995,1998,2003,2009,2016,
            Gaussian, Inc.  All Rights Reserved.
  
 This is part of the Gaussian(R) 16 program.  It is based on
 the Gaussian(R) 09 system (copyright 2009, Gaussian, Inc.),
 the Gaussian(R) 03 system (copyright 2003, Gaussian, Inc.),
 the Gaussian(R) 98 system (copyright 1998, Gaussian, Inc.),
 the Gaussian(R) 94 system (copyright 1995, Gaussian, Inc.),
 the Gaussian 92(TM) system (copyright 1992, Gaussian, Inc.),
 the Gaussian 90(TM) system (copyright 1990, Gaussian, Inc.),
 the Gaussian 88(TM) system (copyright 1988, Gaussian, Inc.),
 the Gaussian 86(TM) system (copyright 1986, Carnegie Mellon
 University), and the Gaussian 82(TM) system (copyright 1983,
 Carnegie Mellon University). Gaussian is a federally registered
 trademark of Gaussian, Inc.
  
 This software contains proprietary and confidential information,
 including trade secrets, belonging to Gaussian, Inc.
  
 This software is provided under written license and may be
 used, copied, transmitted, or stored only in accord with that
 written license.
  
 The following legend is applicable only to US Government
 contracts under FAR:
  
                    RESTRICTED RIGHTS LEGEND
  
 Use, reproduction and disclosure by the US Government is
 subject to restrictions as set forth in subparagraphs (a)
 and (c) of the Commercial Computer Software - Restricted
 Rights clause in FAR 52.227-19.
  
 Gaussian, Inc.
 340 Quinnipiac St., Bldg. 40, Wallingford CT 06492
  
  
 ---------------------------------------------------------------
 Warning -- This program may not be used in any manner that
 competes with the business of Gaussian, Inc. or will provide
 assistance to any competitor of Gaussian, Inc.  The licensee
 of this program is prohibited from giving any competitor of
 Gaussian, Inc. access to this program.  By using this program,
 the user acknowledges that Gaussian, Inc. is engaged in the
 business of creating and licensing software in the field of
 computational chemistry and represents and warrants to the
 licensee that it is not a competitor of Gaussian, Inc. and that
 it will not use this program in any manner prohibited above.
 ---------------------------------------------------------------
  

 Cite this work as:
 Gaussian 16, Revision A.03,
 M. J. Frisch, G. W. Trucks, H. B. Schlegel, G. E. Scuseria, 
 M. A. Robb, J. R. Cheeseman, G. Scalmani, V. Barone, 
 G. A. Petersson, H. Nakatsuji, X. Li, M. Caricato, A. V. Marenich, 
 J. Bloino, B. G. Janesko, R. Gomperts, B. Mennucci, H. P. Hratchian, 
 J. V. Ortiz, A. F. Izmaylov, J. L. Sonnenberg, D. Williams-Young, 
 F. Ding, F. Lipparini, F. Egidi, J. Goings, B. Peng, A. Petrone, 
 T. Henderson, D. Ranasinghe, V. G. Zakrzewski, J. Gao, N. Rega, 
 G. Zheng, W. Liang, M. Hada, M. Ehara, K. Toyota, R. Fukuda, 
 J. Hasegawa, M. Ishida, T. Nakajima, Y. Honda, O. Kitao, H. Nakai, 
 T. Vreven, K. Throssell, J. A. Montgomery, Jr., J. E. Peralta, 
 F. Ogliaro, M. J. Bearpark, J. J. Heyd, E. N. Brothers, K. N. Kudin, 
 V. N. Staroverov, T. A. Keith, R. Kobayashi, J. Normand, 
 K. Raghavachari, A. P. Rendell, J. C. Burant, S. S. Iyengar, 
 J. Tomasi, M. Cossi, J. M. Millam, M. Klene, C. Adamo, R. Cammi, 
 J. W. Ochterski, R. L. Martin, K. Morokuma, O. Farkas, 
 J. B. Foresman, and D. J. Fox, Gaussian, Inc., Wallingford CT, 2016.
 
 ******************************************
 Gaussian 16:  ES64L-G16RevA.03 25-Dec-2016
                11-Feb-2020 
 ******************************************
 %chk=checkpoint.chk
 %mem=3GB
 %nprocshared=4
 Will use up to    4 processors via shared memory.
 --------------------------------
 #t pop=none jul-cc-pvdz upbe1pbe
 --------------------------------
 ------------------------
 theory_abbreviation pbe0
 ------------------------
 Symbolic Z-matrix:
 Charge =  0 Multiplicity = 6
 O                    -0.30859  -0.3296   -0.72237 
 C                    -1.38411  -1.21353  -0.47671 
 C                    -2.52305  -0.36486   0.25989 
 C                    -2.24189   1.04976  -0.1205 
 C                    -2.63188   1.55442  -1.45333 
 Fe                    1.34098   0.06693  -0.03156 
 Cl                    1.56304   2.1966   -0.72747 
 C                    -1.55569   1.98717   0.76058 
 Cl                    2.86013  -1.3414   -0.75066 
 Cl                    1.12346   0.05417   2.1945 
 H                    -3.4762   -0.64508  -0.20574 
 H                    -2.14233   2.9117    0.85178 
 H                    -1.27676   1.59204   1.73318 
 H                    -0.62866   2.30257   0.22923 
 H                    -2.83032   2.62957  -1.44717 
 H                    -1.73306   1.40212  -2.07481 
 H                    -3.45642   1.00092  -1.90429 
 C                    -2.62591  -0.58016   1.77586 
 H                    -3.3539    0.10888   2.21765 
 H                    -2.97237  -1.59703   1.97409 
 H                    -1.66598  -0.44557   2.27807 
 C                    -0.92696  -2.40907   0.36074 
 H                    -1.73996  -3.12164   0.53515 
 H                    -0.13709  -2.91829  -0.20151 
 H                    -0.50613  -2.09919   1.3182 
 C                    -1.89934  -1.71473  -1.83247 
 H                    -1.08411  -2.23929  -2.33832 
 H                    -2.74067  -2.40556  -1.70757 
 H                    -2.21245  -0.89287  -2.48127 
 
                    Distance matrix (angstroms):
                    1          2          3          4          5
     1  O    0.000000
     2  C    1.413657   0.000000
     3  C    2.422786   1.600001   0.000000
     4  C    2.450002   2.446457   1.491605   0.000000
     5  C    3.079205   3.189402   2.574989   1.477564   0.000000
     6  Fe   1.831818   3.043664   3.898995   3.716295   4.474115
     7  Cl   3.143996   4.514152   4.922609   4.020093   4.305418
     8  C    3.020230   3.435809   2.592005   1.458048   2.499367
     9  Cl   3.326458   4.254992   5.563584   5.669684   6.248332
    10  Cl   3.272032   3.876899   4.149145   4.204292   5.446104
    11  H    3.224931   2.184810   1.097187   2.098399   2.665931
    12  H    4.043085   4.399692   3.351284   2.102871   2.719445
    13  H    3.264926   3.573001   2.748323   2.159096   3.462892
    14  H    2.817142   3.664974   3.271827   2.072288   2.720961
    15  H    3.954882   4.219325   3.460493   2.145245   1.093320
    16  H    2.618598   3.085015   3.032670   2.049971   1.103320
    17  H    3.616075   3.352047   2.723996   2.158553   1.090684
    18  C    3.416704   2.649014   1.534640   2.529882   3.870935
    19  H    4.255565   3.590039   2.178892   2.754772   4.010856
    20  H    3.996624   2.945516   2.158394   3.453471   4.668494
    21  H    3.295235   2.873677   2.194120   2.884585   4.342378
    22  C    2.424813   1.529584   2.595479   3.731510   4.680481
    23  H    3.380184   2.188918   2.879040   4.252340   5.158986
    24  H    2.646135   2.130027   3.525018   4.492459   5.272212
    25  H    2.708209   2.185620   2.862855   3.872808   5.054611
    26  C    2.383563   1.534517   2.566927   3.269642   3.371604
    27  H    2.619095   2.146579   3.512087   4.132438   4.191788
    28  H    3.345930   2.185453   2.843009   3.834945   3.969629
    29  H    2.652487   2.192545   2.808776   3.057434   2.687346
                    6          7          8          9         10
     6  Fe   0.000000
     7  Cl   2.251461   0.000000
     8  C    3.564480   3.461886   0.000000
     9  Cl   2.192784   3.768341   5.732597   0.000000
    10  Cl   2.236702   3.649820   3.601459   3.692914   0.000000
    11  H    4.872635   5.808727   3.398654   6.397722   5.235169
    12  H    4.583280   4.090864   1.098736   6.758789   4.542445
    13  H    3.506113   3.805887   1.086227   5.646977   2.887719
    14  H    2.990914   2.393747   1.114099   5.139095   3.462305
    15  H    5.096155   4.472920   2.628973   6.973868   5.960440
    16  H    3.925220   3.648400   2.900550   5.511590   5.310721
    17  H    5.233974   5.292400   3.418620   6.834910   6.218660
    18  C    4.407008   5.614653   2.960965   6.087641   3.825624
    19  H    5.206017   6.099883   2.980694   7.037634   4.477754
    20  H    5.039490   6.500773   4.040555   6.442645   4.421639
    21  H    3.826079   5.142070   2.869342   5.519184   2.835085
    22  C    3.380544   5.347572   4.458935   4.088664   3.692488
    23  H    4.469938   6.386522   5.117096   5.097385   4.586759
    24  H    3.335434   5.415639   5.196303   3.430951   4.020614
    25  H    3.150521   5.188456   4.255687   4.023199   2.839093
    26  C    4.113060   5.339246   4.532770   4.895116   5.336928
    27  H    4.064589   5.411039   5.261990   4.345553   5.538936
    28  H    5.057879   6.376708   5.176097   5.780747   6.017303
    29  H    4.421447   5.184104   4.385834   5.378400   5.821345
                   11         12         13         14         15
    11  H    0.000000
    12  H    3.943126   0.000000
    13  H    3.688040   1.807650   0.000000
    14  H    4.121453   1.746374   1.785157   0.000000
    15  H    3.561130   2.416214   3.688449   2.786493   0.000000
    16  H    3.274600   3.318325   3.839936   2.709082   1.761970
    17  H    2.365332   3.601920   4.281533   3.773914   1.803734
    18  C    2.157300   3.644289   2.557429   3.832914   4.553246
    19  H    2.540907   3.345038   2.597875   4.024058   4.478714
    20  H    2.431402   4.719877   3.619848   4.872832   5.439612
    21  H    3.079934   3.678646   2.144810   3.581349   4.968855
    22  C    3.151379   5.479860   4.244387   4.722910   5.681479
    23  H    3.113968   6.055026   4.885546   5.545327   6.180198
    24  H    4.039454   6.254534   5.038344   5.261612   6.291572
    25  H    3.641172   5.291858   3.793581   4.536124   5.950654
    26  C    2.505374   5.354256   4.902667   4.690833   4.459605
    27  H    3.579323   6.150552   5.594044   5.237200   5.248732
    28  H    2.428124   5.931402   5.473808   5.511652   5.042655
    29  H    2.614679   5.058547   4.981154   4.479514   3.722725
                   16         17         18         19         20
    16  H    0.000000
    17  H    1.777635   0.000000
    18  C    4.422022   4.090606   0.000000
    19  H    4.767052   4.218603   1.095410   0.000000
    20  H    5.188876   4.693135   1.092415   1.764946   0.000000
    21  H    4.729272   4.773898   1.091690   1.777675   1.767749
    22  C    4.594223   4.812125   2.869480   3.959575   2.728739
    23  H    5.222674   5.088475   2.963680   3.983952   2.431835
    24  H    4.972154   5.410878   3.946021   5.036266   3.810224
    25  H    5.027630   5.357173   2.647712   3.714081   2.600905
    26  C    3.130671   3.131195   3.851648   4.673836   3.956660
    27  H    3.708158   4.039207   4.696422   5.605600   4.751313
    28  H    3.955827   3.486416   3.934403   4.701678   3.776508
    29  H    2.379491   2.338117   4.288582   4.938247   4.574236
                   21         22         23         24         25
    21  H    0.000000
    22  C    2.842124   0.000000
    23  H    3.194466   1.095049   0.000000
    24  H    3.821021   1.095139   1.775730   0.000000
    25  H    2.236314   1.090801   1.783502   1.765394   0.000000
    26  C    4.308335   2.497557   2.758699   2.685912   3.466342
    27  H    4.986694   2.708960   3.076610   2.433898   3.704567
    28  H    4.569665   2.750900   2.558119   3.051190   3.773894
    29  H    4.811451   3.468198   3.780144   3.688738   4.336210
                   26         27         28         29
    26  C    0.000000
    27  H    1.093462   0.000000
    28  H    1.095763   1.780369   0.000000
    29  H    1.092905   1.762511   1.779294   0.000000
 Framework group  C1[X(C8H16Cl3FeO)]
 Deg. of freedom    81
                         Standard orientation:                         
 ---------------------------------------------------------------------
 Center     Atomic      Atomic             Coordinates (Angstroms)
 Number     Number       Type             X           Y           Z
 ---------------------------------------------------------------------
      1          8           0       -0.308594   -0.329598   -0.722366
      2          6           0       -1.384113   -1.213530   -0.476706
      3          6           0       -2.523054   -0.364855    0.259885
      4          6           0       -2.241891    1.049761   -0.120503
      5          6           0       -2.631881    1.554424   -1.453327
      6         26           0        1.340983    0.066933   -0.031558
      7         17           0        1.563040    2.196599   -0.727469
      8          6           0       -1.555694    1.987167    0.760581
      9         17           0        2.860125   -1.341400   -0.750663
     10         17           0        1.123461    0.054165    2.194505
     11          1           0       -3.476202   -0.645080   -0.205735
     12          1           0       -2.142330    2.911700    0.851781
     13          1           0       -1.276760    1.592035    1.733184
     14          1           0       -0.628655    2.302572    0.229228
     15          1           0       -2.830317    2.629568   -1.447168
     16          1           0       -1.733062    1.402118   -2.074811
     17          1           0       -3.456416    1.000920   -1.904289
     18          6           0       -2.625908   -0.580158    1.775862
     19          1           0       -3.353899    0.108884    2.217649
     20          1           0       -2.972372   -1.597034    1.974094
     21          1           0       -1.665982   -0.445565    2.278071
     22          6           0       -0.926962   -2.409073    0.360741
     23          1           0       -1.739959   -3.121639    0.535151
     24          1           0       -0.137087   -2.918289   -0.201508
     25          1           0       -0.506132   -2.099195    1.318198
     26          6           0       -1.899338   -1.714727   -1.832467
     27          1           0       -1.084106   -2.239290   -2.338322
     28          1           0       -2.740673   -2.405561   -1.707565
     29          1           0       -2.212448   -0.892867   -2.481273
 ---------------------------------------------------------------------
 Rotational constants (GHZ):           0.5671732           0.3669403           0.3330448
   427 basis functions,  1056 primitive gaussians,   461 cartesian basis functions
    77 alpha electrons       72 beta electrons
       nuclear repulsion energy      1664.9744962798 Hartrees.
 NAtoms=   29 NActive=   29 NUniq=   29 SFac= 1.00D+00 NAtFMM=   60 NAOKFM=F Big=F
 ExpMin= 1.40D-02 ExpMax= 4.32D+06 ExpMxC= 4.91D+03 IAcc=3 IRadAn=         5 AccDes= 0.00D+00
 Harris functional with IExCor= 1009 and IRadAn=       5 diagonalized for initial guess.
 HarFok:  IExCor= 1009 AccDes= 0.00D+00 IRadAn=         5 IDoV= 1 UseB2=F ITyADJ=14
 ICtDFT=  3500011 ScaDFX=  1.000000  1.000000  1.000000  1.000000
 FoFCou: FMM=F IPFlag=           0 FMFlag=      100000 FMFlg1=           0
         NFxFlg=           0 DoJE=T BraDBF=F KetDBF=T FulRan=T
         wScrn=  0.000000 ICntrl=       500 IOpCl=  0 I1Cent=   200000004 NGrid=           0
         NMat0=    1 NMatS0=      1 NMatT0=    0 NMatD0=    1 NMtDS0=    0 NMtDT0=    0
 Petite list used in FoFCou.
 Initial guess <Sx>= 0.0000 <Sy>= 0.0000 <Sz>= 2.5000 <S**2>= 8.7500 S= 2.5000
 EnCoef did     5 forward-backward iterations
 EnCoef did     6 forward-backward iterations
 EnCoef did    12 forward-backward iterations
 SCF Done:  E(UPBE1PBE) =  -3033.10469463     A.U. after   20 cycles
            NFock= 20  Conv=0.78D-08     -V/T= 2.0021
 <Sx>= 0.0000 <Sy>= 0.0000 <Sz>= 2.5000 <S**2>= 8.7626 S= 2.5021
 <L.S>= 0.000000000000E+00
 Annihilation of the first spin contaminant:
 S**2 before annihilation     8.7626,   after     8.7501
 1\1\GINC-HOLY7C24302\SP\UPBE1PBE\Jul-CC-pVDZ\C8H16Cl3Fe1O1(6)\EKWAN\11
 -Feb-2020\0\\#t pop=none jul-cc-pvdz upbe1pbe\\theory_abbreviation pbe
 0\\0,6\O,0,-0.308594,-0.329598,-0.722366\C,0,-1.384113,-1.21353,-0.476
 706\C,0,-2.523054,-0.364855,0.259885\C,0,-2.241891,1.049761,-0.120503\
 C,0,-2.631881,1.554424,-1.453327\Fe,0,1.340983,0.066933,-0.031558\Cl,0
 ,1.56304,2.196599,-0.727469\C,0,-1.555694,1.987167,0.760581\Cl,0,2.860
 125,-1.341399,-0.750663\Cl,0,1.123461,0.054165,2.194505\H,0,-3.476202,
 -0.645081,-0.205735\H,0,-2.14233,2.9117,0.851781\H,0,-1.27676,1.592035
 ,1.733184\H,0,-0.628655,2.302572,0.229228\H,0,-2.830317,2.629568,-1.44
 7168\H,0,-1.733062,1.402118,-2.074811\H,0,-3.456416,1.000919,-1.904289
 \C,0,-2.625908,-0.580158,1.775862\H,0,-3.353899,0.108883,2.217649\H,0,
 -2.972372,-1.597034,1.974094\H,0,-1.665982,-0.445565,2.278071\C,0,-0.9
 26962,-2.409073,0.360741\H,0,-1.739958,-3.121639,0.535151\H,0,-0.13708
 6,-2.918289,-0.201508\H,0,-0.506132,-2.099195,1.318198\C,0,-1.899338,-
 1.714727,-1.832467\H,0,-1.084106,-2.23929,-2.338322\H,0,-2.740673,-2.4
 05561,-1.707565\H,0,-2.212448,-0.892867,-2.481273\\Version=ES64L-G16Re
 vA.03\HF=-3033.1046946\S2=8.762645\S2-1=0.\S2A=8.75005\RMSD=7.782e-09\
 PG=C01 [X(C8H16Cl3Fe1O1)]\\@


 OUR LITTLE SYSTEMS HAVE THEIR DAY,    
   THEY HAVE THEIR DAY AND CEASE TO BE.
   THEY ARE BUT BROKEN LIGHTS OF THEE, 
 AND THOU, OH LORD, ART MORE THAN THEY.
          -------------------          
 LET KNOWLEDGE GROW FROM MORE TO MORE, 
   BUT MORE OF REVERENCE IN US DWELL.  
   THAT MIND AND SOUL, ACCORDING WELL, 
 MAY MAKE ONE MUSIC AS BEFORE.....     
          -------------------          
                    LORD TENNYSON      
 Job cpu time:       0 days  1 hours 25 minutes 18.5 seconds.
 Elapsed time:       0 days  0 hours 21 minutes 25.3 seconds.
 File lengths (MBytes):  RWF=    173 Int=      0 D2E=      0 Chk=     13 Scr=      1
 Normal termination of Gaussian 16 at Tue Feb 11 13:55:31 2020.
 Initial command:
 /n/sw/g16_nehalem/g16/l1.exe "/scratch/Gau-439078.inp" -scrdir="/scratch/"
 Entering Link 1 = /n/sw/g16_nehalem/g16/l1.exe PID=    456835.
  
 Copyright (c) 1988,1990,1992,1993,1995,1998,2003,2009,2016,
            Gaussian, Inc.  All Rights Reserved.
  
 This is part of the Gaussian(R) 16 program.  It is based on
 the Gaussian(R) 09 system (copyright 2009, Gaussian, Inc.),
 the Gaussian(R) 03 system (copyright 2003, Gaussian, Inc.),
 the Gaussian(R) 98 system (copyright 1998, Gaussian, Inc.),
 the Gaussian(R) 94 system (copyright 1995, Gaussian, Inc.),
 the Gaussian 92(TM) system (copyright 1992, Gaussian, Inc.),
 the Gaussian 90(TM) system (copyright 1990, Gaussian, Inc.),
 the Gaussian 88(TM) system (copyright 1988, Gaussian, Inc.),
 the Gaussian 86(TM) system (copyright 1986, Carnegie Mellon
 University), and the Gaussian 82(TM) system (copyright 1983,
 Carnegie Mellon University). Gaussian is a federally registered
 trademark of Gaussian, Inc.
  
 This software contains proprietary and confidential information,
 including trade secrets, belonging to Gaussian, Inc.
  
 This software is provided under written license and may be
 used, copied, transmitted, or stored only in accord with that
 written license.
  
 The following legend is applicable only to US Government
 contracts under FAR:
  
                    RESTRICTED RIGHTS LEGEND
  
 Use, reproduction and disclosure by the US Government is
 subject to restrictions as set forth in subparagraphs (a)
 and (c) of the Commercial Computer Software - Restricted
 Rights clause in FAR 52.227-19.
  
 Gaussian, Inc.
 340 Quinnipiac St., Bldg. 40, Wallingford CT 06492
  
  
 ---------------------------------------------------------------
 Warning -- This program may not be used in any manner that
 competes with the business of Gaussian, Inc. or will provide
 assistance to any competitor of Gaussian, Inc.  The licensee
 of this program is prohibited from giving any competitor of
 Gaussian, Inc. access to this program.  By using this program,
 the user acknowledges that Gaussian, Inc. is engaged in the
 business of creating and licensing software in the field of
 computational chemistry and represents and warrants to the
 licensee that it is not a competitor of Gaussian, Inc. and that
 it will not use this program in any manner prohibited above.
 ---------------------------------------------------------------
  

 Cite this work as:
 Gaussian 16, Revision A.03,
 M. J. Frisch, G. W. Trucks, H. B. Schlegel, G. E. Scuseria, 
 M. A. Robb, J. R. Cheeseman, G. Scalmani, V. Barone, 
 G. A. Petersson, H. Nakatsuji, X. Li, M. Caricato, A. V. Marenich, 
 J. Bloino, B. G. Janesko, R. Gomperts, B. Mennucci, H. P. Hratchian, 
 J. V. Ortiz, A. F. Izmaylov, J. L. Sonnenberg, D. Williams-Young, 
 F. Ding, F. Lipparini, F. Egidi, J. Goings, B. Peng, A. Petrone, 
 T. Henderson, D. Ranasinghe, V. G. Zakrzewski, J. Gao, N. Rega, 
 G. Zheng, W. Liang, M. Hada, M. Ehara, K. Toyota, R. Fukuda, 
 J. Hasegawa, M. Ishida, T. Nakajima, Y. Honda, O. Kitao, H. Nakai, 
 T. Vreven, K. Throssell, J. A. Montgomery, Jr., J. E. Peralta, 
 F. Ogliaro, M. J. Bearpark, J. J. Heyd, E. N. Brothers, K. N. Kudin, 
 V. N. Staroverov, T. A. Keith, R. Kobayashi, J. Normand, 
 K. Raghavachari, A. P. Rendell, J. C. Burant, S. S. Iyengar, 
 J. Tomasi, M. Cossi, J. M. Millam, M. Klene, C. Adamo, R. Cammi, 
 J. W. Ochterski, R. L. Martin, K. Morokuma, O. Farkas, 
 J. B. Foresman, and D. J. Fox, Gaussian, Inc., Wallingford CT, 2016.
 
 ******************************************
 Gaussian 16:  ES64L-G16RevA.03 25-Dec-2016
                11-Feb-2020 
 ******************************************
 %chk=checkpoint.chk
 %mem=3GB
 %nprocshared=4
 Will use up to    4 processors via shared memory.
 ---------------------------------------------------------------------
 #t pop=none jul-cc-pvdz guess=read upbe1pbe empiricaldispersion=gd3bj
 ---------------------------------------------------------------------
 -----------------------------
 theory_abbreviation pbe0_d3bj
 -----------------------------
 Symbolic Z-matrix:
 Charge =  0 Multiplicity = 6
 O                    -0.30859  -0.3296   -0.72237 
 C                    -1.38411  -1.21353  -0.47671 
 C                    -2.52305  -0.36486   0.25989 
 C                    -2.24189   1.04976  -0.1205 
 C                    -2.63188   1.55442  -1.45333 
 Fe                    1.34098   0.06693  -0.03156 
 Cl                    1.56304   2.1966   -0.72747 
 C                    -1.55569   1.98717   0.76058 
 Cl                    2.86013  -1.3414   -0.75066 
 Cl                    1.12346   0.05417   2.1945 
 H                    -3.4762   -0.64508  -0.20574 
 H                    -2.14233   2.9117    0.85178 
 H                    -1.27676   1.59204   1.73318 
 H                    -0.62866   2.30257   0.22923 
 H                    -2.83032   2.62957  -1.44717 
 H                    -1.73306   1.40212  -2.07481 
 H                    -3.45642   1.00092  -1.90429 
 C                    -2.62591  -0.58016   1.77586 
 H                    -3.3539    0.10888   2.21765 
 H                    -2.97237  -1.59703   1.97409 
 H                    -1.66598  -0.44557   2.27807 
 C                    -0.92696  -2.40907   0.36074 
 H                    -1.73996  -3.12164   0.53515 
 H                    -0.13709  -2.91829  -0.20151 
 H                    -0.50613  -2.09919   1.3182 
 C                    -1.89934  -1.71473  -1.83247 
 H                    -1.08411  -2.23929  -2.33832 
 H                    -2.74067  -2.40556  -1.70757 
 H                    -2.21245  -0.89287  -2.48127 
 
                    Distance matrix (angstroms):
                    1          2          3          4          5
     1  O    0.000000
     2  C    1.413657   0.000000
     3  C    2.422786   1.600001   0.000000
     4  C    2.450002   2.446457   1.491605   0.000000
     5  C    3.079205   3.189402   2.574989   1.477564   0.000000
     6  Fe   1.831818   3.043664   3.898995   3.716295   4.474115
     7  Cl   3.143996   4.514152   4.922609   4.020093   4.305418
     8  C    3.020230   3.435809   2.592005   1.458048   2.499367
     9  Cl   3.326458   4.254992   5.563584   5.669684   6.248332
    10  Cl   3.272032   3.876899   4.149145   4.204292   5.446104
    11  H    3.224931   2.184810   1.097187   2.098399   2.665931
    12  H    4.043085   4.399692   3.351284   2.102871   2.719445
    13  H    3.264926   3.573001   2.748323   2.159096   3.462892
    14  H    2.817142   3.664974   3.271827   2.072288   2.720961
    15  H    3.954882   4.219325   3.460493   2.145245   1.093320
    16  H    2.618598   3.085015   3.032670   2.049971   1.103320
    17  H    3.616075   3.352047   2.723996   2.158553   1.090684
    18  C    3.416704   2.649014   1.534640   2.529882   3.870935
    19  H    4.255565   3.590039   2.178892   2.754772   4.010856
    20  H    3.996624   2.945516   2.158394   3.453471   4.668494
    21  H    3.295235   2.873677   2.194120   2.884585   4.342378
    22  C    2.424813   1.529584   2.595479   3.731510   4.680481
    23  H    3.380184   2.188918   2.879040   4.252340   5.158986
    24  H    2.646135   2.130027   3.525018   4.492459   5.272212
    25  H    2.708209   2.185620   2.862855   3.872808   5.054611
    26  C    2.383563   1.534517   2.566927   3.269642   3.371604
    27  H    2.619095   2.146579   3.512087   4.132438   4.191788
    28  H    3.345930   2.185453   2.843009   3.834945   3.969629
    29  H    2.652487   2.192545   2.808776   3.057434   2.687346
                    6          7          8          9         10
     6  Fe   0.000000
     7  Cl   2.251461   0.000000
     8  C    3.564480   3.461886   0.000000
     9  Cl   2.192784   3.768341   5.732597   0.000000
    10  Cl   2.236702   3.649820   3.601459   3.692914   0.000000
    11  H    4.872635   5.808727   3.398654   6.397722   5.235169
    12  H    4.583280   4.090864   1.098736   6.758789   4.542445
    13  H    3.506113   3.805887   1.086227   5.646977   2.887719
    14  H    2.990914   2.393747   1.114099   5.139095   3.462305
    15  H    5.096155   4.472920   2.628973   6.973868   5.960440
    16  H    3.925220   3.648400   2.900550   5.511590   5.310721
    17  H    5.233974   5.292400   3.418620   6.834910   6.218660
    18  C    4.407008   5.614653   2.960965   6.087641   3.825624
    19  H    5.206017   6.099883   2.980694   7.037634   4.477754
    20  H    5.039490   6.500773   4.040555   6.442645   4.421639
    21  H    3.826079   5.142070   2.869342   5.519184   2.835085
    22  C    3.380544   5.347572   4.458935   4.088664   3.692488
    23  H    4.469938   6.386522   5.117096   5.097385   4.586759
    24  H    3.335434   5.415639   5.196303   3.430951   4.020614
    25  H    3.150521   5.188456   4.255687   4.023199   2.839093
    26  C    4.113060   5.339246   4.532770   4.895116   5.336928
    27  H    4.064589   5.411039   5.261990   4.345553   5.538936
    28  H    5.057879   6.376708   5.176097   5.780747   6.017303
    29  H    4.421447   5.184104   4.385834   5.378400   5.821345
                   11         12         13         14         15
    11  H    0.000000
    12  H    3.943126   0.000000
    13  H    3.688040   1.807650   0.000000
    14  H    4.121453   1.746374   1.785157   0.000000
    15  H    3.561130   2.416214   3.688449   2.786493   0.000000
    16  H    3.274600   3.318325   3.839936   2.709082   1.761970
    17  H    2.365332   3.601920   4.281533   3.773914   1.803734
    18  C    2.157300   3.644289   2.557429   3.832914   4.553246
    19  H    2.540907   3.345038   2.597875   4.024058   4.478714
    20  H    2.431402   4.719877   3.619848   4.872832   5.439612
    21  H    3.079934   3.678646   2.144810   3.581349   4.968855
    22  C    3.151379   5.479860   4.244387   4.722910   5.681479
    23  H    3.113968   6.055026   4.885546   5.545327   6.180198
    24  H    4.039454   6.254534   5.038344   5.261612   6.291572
    25  H    3.641172   5.291858   3.793581   4.536124   5.950654
    26  C    2.505374   5.354256   4.902667   4.690833   4.459605
    27  H    3.579323   6.150552   5.594044   5.237200   5.248732
    28  H    2.428124   5.931402   5.473808   5.511652   5.042655
    29  H    2.614679   5.058547   4.981154   4.479514   3.722725
                   16         17         18         19         20
    16  H    0.000000
    17  H    1.777635   0.000000
    18  C    4.422022   4.090606   0.000000
    19  H    4.767052   4.218603   1.095410   0.000000
    20  H    5.188876   4.693135   1.092415   1.764946   0.000000
    21  H    4.729272   4.773898   1.091690   1.777675   1.767749
    22  C    4.594223   4.812125   2.869480   3.959575   2.728739
    23  H    5.222674   5.088475   2.963680   3.983952   2.431835
    24  H    4.972154   5.410878   3.946021   5.036266   3.810224
    25  H    5.027630   5.357173   2.647712   3.714081   2.600905
    26  C    3.130671   3.131195   3.851648   4.673836   3.956660
    27  H    3.708158   4.039207   4.696422   5.605600   4.751313
    28  H    3.955827   3.486416   3.934403   4.701678   3.776508
    29  H    2.379491   2.338117   4.288582   4.938247   4.574236
                   21         22         23         24         25
    21  H    0.000000
    22  C    2.842124   0.000000
    23  H    3.194466   1.095049   0.000000
    24  H    3.821021   1.095139   1.775730   0.000000
    25  H    2.236314   1.090801   1.783502   1.765394   0.000000
    26  C    4.308335   2.497557   2.758699   2.685912   3.466342
    27  H    4.986694   2.708960   3.076610   2.433898   3.704567
    28  H    4.569665   2.750900   2.558119   3.051190   3.773894
    29  H    4.811451   3.468198   3.780144   3.688738   4.336210
                   26         27         28         29
    26  C    0.000000
    27  H    1.093462   0.000000
    28  H    1.095763   1.780369   0.000000
    29  H    1.092905   1.762511   1.779294   0.000000
 Framework group  C1[X(C8H16Cl3FeO)]
 Deg. of freedom    81
                         Standard orientation:                         
 ---------------------------------------------------------------------
 Center     Atomic      Atomic             Coordinates (Angstroms)
 Number     Number       Type             X           Y           Z
 ---------------------------------------------------------------------
      1          8           0       -0.308594   -0.329598   -0.722366
      2          6           0       -1.384113   -1.213530   -0.476706
      3          6           0       -2.523054   -0.364855    0.259885
      4          6           0       -2.241891    1.049761   -0.120503
      5          6           0       -2.631881    1.554424   -1.453327
      6         26           0        1.340983    0.066933   -0.031558
      7         17           0        1.563040    2.196599   -0.727469
      8          6           0       -1.555694    1.987167    0.760581
      9         17           0        2.860125   -1.341400   -0.750663
     10         17           0        1.123461    0.054165    2.194505
     11          1           0       -3.476202   -0.645080   -0.205735
     12          1           0       -2.142330    2.911700    0.851781
     13          1           0       -1.276760    1.592035    1.733184
     14          1           0       -0.628655    2.302572    0.229228
     15          1           0       -2.830317    2.629568   -1.447168
     16          1           0       -1.733062    1.402118   -2.074811
     17          1           0       -3.456416    1.000920   -1.904289
     18          6           0       -2.625908   -0.580158    1.775862
     19          1           0       -3.353899    0.108884    2.217649
     20          1           0       -2.972372   -1.597034    1.974094
     21          1           0       -1.665982   -0.445565    2.278071
     22          6           0       -0.926962   -2.409073    0.360741
     23          1           0       -1.739959   -3.121639    0.535151
     24          1           0       -0.137087   -2.918289   -0.201508
     25          1           0       -0.506132   -2.099195    1.318198
     26          6           0       -1.899338   -1.714727   -1.832467
     27          1           0       -1.084106   -2.239290   -2.338322
     28          1           0       -2.740673   -2.405561   -1.707565
     29          1           0       -2.212448   -0.892867   -2.481273
 ---------------------------------------------------------------------
 Rotational constants (GHZ):           0.5671732           0.3669403           0.3330448
   427 basis functions,  1056 primitive gaussians,   461 cartesian basis functions
    77 alpha electrons       72 beta electrons
       nuclear repulsion energy      1664.9744962798 Hartrees.
 NAtoms=   29 NActive=   29 NUniq=   29 SFac= 1.00D+00 NAtFMM=   60 NAOKFM=F Big=F
 Nuclear repulsion after empirical dispersion term =     1664.9370549575 Hartrees.
 Initial guess from the checkpoint file:  "checkpoint.chk"
 B after Tr=     0.000000    0.000000    0.000000
         Rot=    1.000000    0.000000    0.000000    0.000000 Ang=   0.00 deg.
 Initial guess <Sx>= 0.0000 <Sy>= 0.0000 <Sz>= 2.5000 <S**2>= 8.7626 S= 2.5021
 SCF Done:  E(UPBE1PBE) =  -3033.14213595     A.U. after    1 cycles
            NFock=  1  Conv=0.60D-08     -V/T= 2.0021
 <Sx>= 0.0000 <Sy>= 0.0000 <Sz>= 2.5000 <S**2>= 8.7626 S= 2.5021
 <L.S>= 0.000000000000E+00
 Annihilation of the first spin contaminant:
 S**2 before annihilation     8.7626,   after     8.7501
 1\1\GINC-HOLY7C24302\SP\UPBE1PBE\Jul-CC-pVDZ\C8H16Cl3Fe1O1(6)\EKWAN\11
 -Feb-2020\0\\#t pop=none jul-cc-pvdz guess=read upbe1pbe empiricaldisp
 ersion=gd3bj\\theory_abbreviation pbe0_d3bj\\0,6\O,0,-0.308594,-0.3295
 98,-0.722366\C,0,-1.384113,-1.21353,-0.476706\C,0,-2.523054,-0.364855,
 0.259885\C,0,-2.241891,1.049761,-0.120503\C,0,-2.631881,1.554424,-1.45
 3327\Fe,0,1.340983,0.066933,-0.031558\Cl,0,1.56304,2.196599,-0.727469\
 C,0,-1.555694,1.987167,0.760581\Cl,0,2.860125,-1.341399,-0.750663\Cl,0
 ,1.123461,0.054165,2.194505\H,0,-3.476202,-0.645081,-0.205735\H,0,-2.1
 4233,2.9117,0.851781\H,0,-1.27676,1.592035,1.733184\H,0,-0.628655,2.30
 2572,0.229228\H,0,-2.830317,2.629568,-1.447168\H,0,-1.733062,1.402118,
 -2.074811\H,0,-3.456416,1.000919,-1.904289\C,0,-2.625908,-0.580158,1.7
 75862\H,0,-3.353899,0.108883,2.217649\H,0,-2.972372,-1.597034,1.974094
 \H,0,-1.665982,-0.445565,2.278071\C,0,-0.926962,-2.409073,0.360741\H,0
 ,-1.739958,-3.121639,0.535151\H,0,-0.137086,-2.918289,-0.201508\H,0,-0
 .506132,-2.099195,1.318198\C,0,-1.899338,-1.714727,-1.832467\H,0,-1.08
 4106,-2.23929,-2.338322\H,0,-2.740673,-2.405561,-1.707565\H,0,-2.21244
 8,-0.892867,-2.481273\\Version=ES64L-G16RevA.03\HF=-3033.142136\S2=8.7
 62645\S2-1=0.\S2A=8.75005\RMSD=5.987e-09\PG=C01 [X(C8H16Cl3Fe1O1)]\\@


 YOU CAN LEAD A BOY TO COLLEGE....
 BUT YOU CANNOT MAKE HIM THINK....
           ELBERT HUBBARD
 Job cpu time:       0 days  0 hours  4 minutes 50.2 seconds.
 Elapsed time:       0 days  0 hours  1 minutes 16.1 seconds.
 File lengths (MBytes):  RWF=    170 Int=      0 D2E=      0 Chk=     13 Scr=      1
 Normal termination of Gaussian 16 at Tue Feb 11 13:56:48 2020.
 Initial command:
 /n/sw/g16_nehalem/g16/l1.exe "/scratch/Gau-439078.inp" -scrdir="/scratch/"
 Entering Link 1 = /n/sw/g16_nehalem/g16/l1.exe PID=    457887.
  
 Copyright (c) 1988,1990,1992,1993,1995,1998,2003,2009,2016,
            Gaussian, Inc.  All Rights Reserved.
  
 This is part of the Gaussian(R) 16 program.  It is based on
 the Gaussian(R) 09 system (copyright 2009, Gaussian, Inc.),
 the Gaussian(R) 03 system (copyright 2003, Gaussian, Inc.),
 the Gaussian(R) 98 system (copyright 1998, Gaussian, Inc.),
 the Gaussian(R) 94 system (copyright 1995, Gaussian, Inc.),
 the Gaussian 92(TM) system (copyright 1992, Gaussian, Inc.),
 the Gaussian 90(TM) system (copyright 1990, Gaussian, Inc.),
 the Gaussian 88(TM) system (copyright 1988, Gaussian, Inc.),
 the Gaussian 86(TM) system (copyright 1986, Carnegie Mellon
 University), and the Gaussian 82(TM) system (copyright 1983,
 Carnegie Mellon University). Gaussian is a federally registered
 trademark of Gaussian, Inc.
  
 This software contains proprietary and confidential information,
 including trade secrets, belonging to Gaussian, Inc.
  
 This software is provided under written license and may be
 used, copied, transmitted, or stored only in accord with that
 written license.
  
 The following legend is applicable only to US Government
 contracts under FAR:
  
                    RESTRICTED RIGHTS LEGEND
  
 Use, reproduction and disclosure by the US Government is
 subject to restrictions as set forth in subparagraphs (a)
 and (c) of the Commercial Computer Software - Restricted
 Rights clause in FAR 52.227-19.
  
 Gaussian, Inc.
 340 Quinnipiac St., Bldg. 40, Wallingford CT 06492
  
  
 ---------------------------------------------------------------
 Warning -- This program may not be used in any manner that
 competes with the business of Gaussian, Inc. or will provide
 assistance to any competitor of Gaussian, Inc.  The licensee
 of this program is prohibited from giving any competitor of
 Gaussian, Inc. access to this program.  By using this program,
 the user acknowledges that Gaussian, Inc. is engaged in the
 business of creating and licensing software in the field of
 computational chemistry and represents and warrants to the
 licensee that it is not a competitor of Gaussian, Inc. and that
 it will not use this program in any manner prohibited above.
 ---------------------------------------------------------------
  

 Cite this work as:
 Gaussian 16, Revision A.03,
 M. J. Frisch, G. W. Trucks, H. B. Schlegel, G. E. Scuseria, 
 M. A. Robb, J. R. Cheeseman, G. Scalmani, V. Barone, 
 G. A. Petersson, H. Nakatsuji, X. Li, M. Caricato, A. V. Marenich, 
 J. Bloino, B. G. Janesko, R. Gomperts, B. Mennucci, H. P. Hratchian, 
 J. V. Ortiz, A. F. Izmaylov, J. L. Sonnenberg, D. Williams-Young, 
 F. Ding, F. Lipparini, F. Egidi, J. Goings, B. Peng, A. Petrone, 
 T. Henderson, D. Ranasinghe, V. G. Zakrzewski, J. Gao, N. Rega, 
 G. Zheng, W. Liang, M. Hada, M. Ehara, K. Toyota, R. Fukuda, 
 J. Hasegawa, M. Ishida, T. Nakajima, Y. Honda, O. Kitao, H. Nakai, 
 T. Vreven, K. Throssell, J. A. Montgomery, Jr., J. E. Peralta, 
 F. Ogliaro, M. J. Bearpark, J. J. Heyd, E. N. Brothers, K. N. Kudin, 
 V. N. Staroverov, T. A. Keith, R. Kobayashi, J. Normand, 
 K. Raghavachari, A. P. Rendell, J. C. Burant, S. S. Iyengar, 
 J. Tomasi, M. Cossi, J. M. Millam, M. Klene, C. Adamo, R. Cammi, 
 J. W. Ochterski, R. L. Martin, K. Morokuma, O. Farkas, 
 J. B. Foresman, and D. J. Fox, Gaussian, Inc., Wallingford CT, 2016.
 
 ******************************************
 Gaussian 16:  ES64L-G16RevA.03 25-Dec-2016
                11-Feb-2020 
 ******************************************
 %chk=checkpoint.chk
 %mem=3GB
 %nprocshared=4
 Will use up to    4 processors via shared memory.
 -----------------------------------------
 #t pop=none jul-cc-pvdz guess=read ub3lyp
 -----------------------------------------
 -------------------------
 theory_abbreviation b3lyp
 -------------------------
 Symbolic Z-matrix:
 Charge =  0 Multiplicity = 6
 O                    -0.30859  -0.3296   -0.72237 
 C                    -1.38411  -1.21353  -0.47671 
 C                    -2.52305  -0.36486   0.25989 
 C                    -2.24189   1.04976  -0.1205 
 C                    -2.63188   1.55442  -1.45333 
 Fe                    1.34098   0.06693  -0.03156 
 Cl                    1.56304   2.1966   -0.72747 
 C                    -1.55569   1.98717   0.76058 
 Cl                    2.86013  -1.3414   -0.75066 
 Cl                    1.12346   0.05417   2.1945 
 H                    -3.4762   -0.64508  -0.20574 
 H                    -2.14233   2.9117    0.85178 
 H                    -1.27676   1.59204   1.73318 
 H                    -0.62866   2.30257   0.22923 
 H                    -2.83032   2.62957  -1.44717 
 H                    -1.73306   1.40212  -2.07481 
 H                    -3.45642   1.00092  -1.90429 
 C                    -2.62591  -0.58016   1.77586 
 H                    -3.3539    0.10888   2.21765 
 H                    -2.97237  -1.59703   1.97409 
 H                    -1.66598  -0.44557   2.27807 
 C                    -0.92696  -2.40907   0.36074 
 H                    -1.73996  -3.12164   0.53515 
 H                    -0.13709  -2.91829  -0.20151 
 H                    -0.50613  -2.09919   1.3182 
 C                    -1.89934  -1.71473  -1.83247 
 H                    -1.08411  -2.23929  -2.33832 
 H                    -2.74067  -2.40556  -1.70757 
 H                    -2.21245  -0.89287  -2.48127 
 
                    Distance matrix (angstroms):
                    1          2          3          4          5
     1  O    0.000000
     2  C    1.413657   0.000000
     3  C    2.422786   1.600001   0.000000
     4  C    2.450002   2.446457   1.491605   0.000000
     5  C    3.079205   3.189402   2.574989   1.477564   0.000000
     6  Fe   1.831818   3.043664   3.898995   3.716295   4.474115
     7  Cl   3.143996   4.514152   4.922609   4.020093   4.305418
     8  C    3.020230   3.435809   2.592005   1.458048   2.499367
     9  Cl   3.326458   4.254992   5.563584   5.669684   6.248332
    10  Cl   3.272032   3.876899   4.149145   4.204292   5.446104
    11  H    3.224931   2.184810   1.097187   2.098399   2.665931
    12  H    4.043085   4.399692   3.351284   2.102871   2.719445
    13  H    3.264926   3.573001   2.748323   2.159096   3.462892
    14  H    2.817142   3.664974   3.271827   2.072288   2.720961
    15  H    3.954882   4.219325   3.460493   2.145245   1.093320
    16  H    2.618598   3.085015   3.032670   2.049971   1.103320
    17  H    3.616075   3.352047   2.723996   2.158553   1.090684
    18  C    3.416704   2.649014   1.534640   2.529882   3.870935
    19  H    4.255565   3.590039   2.178892   2.754772   4.010856
    20  H    3.996624   2.945516   2.158394   3.453471   4.668494
    21  H    3.295235   2.873677   2.194120   2.884585   4.342378
    22  C    2.424813   1.529584   2.595479   3.731510   4.680481
    23  H    3.380184   2.188918   2.879040   4.252340   5.158986
    24  H    2.646135   2.130027   3.525018   4.492459   5.272212
    25  H    2.708209   2.185620   2.862855   3.872808   5.054611
    26  C    2.383563   1.534517   2.566927   3.269642   3.371604
    27  H    2.619095   2.146579   3.512087   4.132438   4.191788
    28  H    3.345930   2.185453   2.843009   3.834945   3.969629
    29  H    2.652487   2.192545   2.808776   3.057434   2.687346
                    6          7          8          9         10
     6  Fe   0.000000
     7  Cl   2.251461   0.000000
     8  C    3.564480   3.461886   0.000000
     9  Cl   2.192784   3.768341   5.732597   0.000000
    10  Cl   2.236702   3.649820   3.601459   3.692914   0.000000
    11  H    4.872635   5.808727   3.398654   6.397722   5.235169
    12  H    4.583280   4.090864   1.098736   6.758789   4.542445
    13  H    3.506113   3.805887   1.086227   5.646977   2.887719
    14  H    2.990914   2.393747   1.114099   5.139095   3.462305
    15  H    5.096155   4.472920   2.628973   6.973868   5.960440
    16  H    3.925220   3.648400   2.900550   5.511590   5.310721
    17  H    5.233974   5.292400   3.418620   6.834910   6.218660
    18  C    4.407008   5.614653   2.960965   6.087641   3.825624
    19  H    5.206017   6.099883   2.980694   7.037634   4.477754
    20  H    5.039490   6.500773   4.040555   6.442645   4.421639
    21  H    3.826079   5.142070   2.869342   5.519184   2.835085
    22  C    3.380544   5.347572   4.458935   4.088664   3.692488
    23  H    4.469938   6.386522   5.117096   5.097385   4.586759
    24  H    3.335434   5.415639   5.196303   3.430951   4.020614
    25  H    3.150521   5.188456   4.255687   4.023199   2.839093
    26  C    4.113060   5.339246   4.532770   4.895116   5.336928
    27  H    4.064589   5.411039   5.261990   4.345553   5.538936
    28  H    5.057879   6.376708   5.176097   5.780747   6.017303
    29  H    4.421447   5.184104   4.385834   5.378400   5.821345
                   11         12         13         14         15
    11  H    0.000000
    12  H    3.943126   0.000000
    13  H    3.688040   1.807650   0.000000
    14  H    4.121453   1.746374   1.785157   0.000000
    15  H    3.561130   2.416214   3.688449   2.786493   0.000000
    16  H    3.274600   3.318325   3.839936   2.709082   1.761970
    17  H    2.365332   3.601920   4.281533   3.773914   1.803734
    18  C    2.157300   3.644289   2.557429   3.832914   4.553246
    19  H    2.540907   3.345038   2.597875   4.024058   4.478714
    20  H    2.431402   4.719877   3.619848   4.872832   5.439612
    21  H    3.079934   3.678646   2.144810   3.581349   4.968855
    22  C    3.151379   5.479860   4.244387   4.722910   5.681479
    23  H    3.113968   6.055026   4.885546   5.545327   6.180198
    24  H    4.039454   6.254534   5.038344   5.261612   6.291572
    25  H    3.641172   5.291858   3.793581   4.536124   5.950654
    26  C    2.505374   5.354256   4.902667   4.690833   4.459605
    27  H    3.579323   6.150552   5.594044   5.237200   5.248732
    28  H    2.428124   5.931402   5.473808   5.511652   5.042655
    29  H    2.614679   5.058547   4.981154   4.479514   3.722725
                   16         17         18         19         20
    16  H    0.000000
    17  H    1.777635   0.000000
    18  C    4.422022   4.090606   0.000000
    19  H    4.767052   4.218603   1.095410   0.000000
    20  H    5.188876   4.693135   1.092415   1.764946   0.000000
    21  H    4.729272   4.773898   1.091690   1.777675   1.767749
    22  C    4.594223   4.812125   2.869480   3.959575   2.728739
    23  H    5.222674   5.088475   2.963680   3.983952   2.431835
    24  H    4.972154   5.410878   3.946021   5.036266   3.810224
    25  H    5.027630   5.357173   2.647712   3.714081   2.600905
    26  C    3.130671   3.131195   3.851648   4.673836   3.956660
    27  H    3.708158   4.039207   4.696422   5.605600   4.751313
    28  H    3.955827   3.486416   3.934403   4.701678   3.776508
    29  H    2.379491   2.338117   4.288582   4.938247   4.574236
                   21         22         23         24         25
    21  H    0.000000
    22  C    2.842124   0.000000
    23  H    3.194466   1.095049   0.000000
    24  H    3.821021   1.095139   1.775730   0.000000
    25  H    2.236314   1.090801   1.783502   1.765394   0.000000
    26  C    4.308335   2.497557   2.758699   2.685912   3.466342
    27  H    4.986694   2.708960   3.076610   2.433898   3.704567
    28  H    4.569665   2.750900   2.558119   3.051190   3.773894
    29  H    4.811451   3.468198   3.780144   3.688738   4.336210
                   26         27         28         29
    26  C    0.000000
    27  H    1.093462   0.000000
    28  H    1.095763   1.780369   0.000000
    29  H    1.092905   1.762511   1.779294   0.000000
 Framework group  C1[X(C8H16Cl3FeO)]
 Deg. of freedom    81
                         Standard orientation:                         
 ---------------------------------------------------------------------
 Center     Atomic      Atomic             Coordinates (Angstroms)
 Number     Number       Type             X           Y           Z
 ---------------------------------------------------------------------
      1          8           0       -0.308594   -0.329598   -0.722366
      2          6           0       -1.384113   -1.213530   -0.476706
      3          6           0       -2.523054   -0.364855    0.259885
      4          6           0       -2.241891    1.049761   -0.120503
      5          6           0       -2.631881    1.554424   -1.453327
      6         26           0        1.340983    0.066933   -0.031558
      7         17           0        1.563040    2.196599   -0.727469
      8          6           0       -1.555694    1.987167    0.760581
      9         17           0        2.860125   -1.341400   -0.750663
     10         17           0        1.123461    0.054165    2.194505
     11          1           0       -3.476202   -0.645080   -0.205735
     12          1           0       -2.142330    2.911700    0.851781
     13          1           0       -1.276760    1.592035    1.733184
     14          1           0       -0.628655    2.302572    0.229228
     15          1           0       -2.830317    2.629568   -1.447168
     16          1           0       -1.733062    1.402118   -2.074811
     17          1           0       -3.456416    1.000920   -1.904289
     18          6           0       -2.625908   -0.580158    1.775862
     19          1           0       -3.353899    0.108884    2.217649
     20          1           0       -2.972372   -1.597034    1.974094
     21          1           0       -1.665982   -0.445565    2.278071
     22          6           0       -0.926962   -2.409073    0.360741
     23          1           0       -1.739959   -3.121639    0.535151
     24          1           0       -0.137087   -2.918289   -0.201508
     25          1           0       -0.506132   -2.099195    1.318198
     26          6           0       -1.899338   -1.714727   -1.832467
     27          1           0       -1.084106   -2.239290   -2.338322
     28          1           0       -2.740673   -2.405561   -1.707565
     29          1           0       -2.212448   -0.892867   -2.481273
 ---------------------------------------------------------------------
 Rotational constants (GHZ):           0.5671732           0.3669403           0.3330448
   427 basis functions,  1056 primitive gaussians,   461 cartesian basis functions
    77 alpha electrons       72 beta electrons
       nuclear repulsion energy      1664.9744962798 Hartrees.
 NAtoms=   29 NActive=   29 NUniq=   29 SFac= 1.00D+00 NAtFMM=   60 NAOKFM=F Big=F
 Initial guess from the checkpoint file:  "checkpoint.chk"
 B after Tr=     0.000000    0.000000    0.000000
         Rot=    1.000000    0.000000    0.000000    0.000000 Ang=   0.00 deg.
 Initial guess <Sx>= 0.0000 <Sy>= 0.0000 <Sz>= 2.5000 <S**2>= 8.7626 S= 2.5021
 SCF Done:  E(UB3LYP) =  -3034.31597645     A.U. after   13 cycles
            NFock= 13  Conv=0.77D-08     -V/T= 2.0024
 <Sx>= 0.0000 <Sy>= 0.0000 <Sz>= 2.5000 <S**2>= 8.7620 S= 2.5020
 <L.S>= 0.000000000000E+00
 Annihilation of the first spin contaminant:
 S**2 before annihilation     8.7620,   after     8.7500
 1\1\GINC-HOLY7C24302\SP\UB3LYP\Jul-CC-pVDZ\C8H16Cl3Fe1O1(6)\EKWAN\11-F
 eb-2020\0\\#t pop=none jul-cc-pvdz guess=read ub3lyp\\theory_abbreviat
 ion b3lyp\\0,6\O,0,-0.308594,-0.329598,-0.722366\C,0,-1.384113,-1.2135
 3,-0.476706\C,0,-2.523054,-0.364855,0.259885\C,0,-2.241891,1.049761,-0
 .120503\C,0,-2.631881,1.554424,-1.453327\Fe,0,1.340983,0.066933,-0.031
 558\Cl,0,1.56304,2.196599,-0.727469\C,0,-1.555694,1.987167,0.760581\Cl
 ,0,2.860125,-1.341399,-0.750663\Cl,0,1.123461,0.054165,2.194505\H,0,-3
 .476202,-0.645081,-0.205735\H,0,-2.14233,2.9117,0.851781\H,0,-1.27676,
 1.592035,1.733184\H,0,-0.628655,2.302572,0.229228\H,0,-2.830317,2.6295
 68,-1.447168\H,0,-1.733062,1.402118,-2.074811\H,0,-3.456416,1.000919,-
 1.904289\C,0,-2.625908,-0.580158,1.775862\H,0,-3.353899,0.108883,2.217
 649\H,0,-2.972372,-1.597034,1.974094\H,0,-1.665982,-0.445565,2.278071\
 C,0,-0.926962,-2.409073,0.360741\H,0,-1.739958,-3.121639,0.535151\H,0,
 -0.137086,-2.918289,-0.201508\H,0,-0.506132,-2.099195,1.318198\C,0,-1.
 899338,-1.714727,-1.832467\H,0,-1.084106,-2.23929,-2.338322\H,0,-2.740
 673,-2.405561,-1.707565\H,0,-2.212448,-0.892867,-2.481273\\Version=ES6
 4L-G16RevA.03\HF=-3034.3159765\S2=8.762027\S2-1=0.\S2A=8.750046\RMSD=7
 .695e-09\PG=C01 [X(C8H16Cl3Fe1O1)]\\@



 WE LOSE BECAUSE WE WIN

 GAMBLERS,

 RECOLLECTING WHICH,

 TOSS THEIR DICE AGAIN....


                          EMILY DICKINSON  BOLTS OF MELODY NO. 533
 Job cpu time:       0 days  0 hours 54 minutes 58.0 seconds.
 Elapsed time:       0 days  0 hours 13 minutes 55.0 seconds.
 File lengths (MBytes):  RWF=    174 Int=      0 D2E=      0 Chk=     13 Scr=      1
 Normal termination of Gaussian 16 at Tue Feb 11 14:10:44 2020.
 Initial command:
 /n/sw/g16_nehalem/g16/l1.exe "/scratch/Gau-439078.inp" -scrdir="/scratch/"
 Entering Link 1 = /n/sw/g16_nehalem/g16/l1.exe PID=     10313.
  
 Copyright (c) 1988,1990,1992,1993,1995,1998,2003,2009,2016,
            Gaussian, Inc.  All Rights Reserved.
  
 This is part of the Gaussian(R) 16 program.  It is based on
 the Gaussian(R) 09 system (copyright 2009, Gaussian, Inc.),
 the Gaussian(R) 03 system (copyright 2003, Gaussian, Inc.),
 the Gaussian(R) 98 system (copyright 1998, Gaussian, Inc.),
 the Gaussian(R) 94 system (copyright 1995, Gaussian, Inc.),
 the Gaussian 92(TM) system (copyright 1992, Gaussian, Inc.),
 the Gaussian 90(TM) system (copyright 1990, Gaussian, Inc.),
 the Gaussian 88(TM) system (copyright 1988, Gaussian, Inc.),
 the Gaussian 86(TM) system (copyright 1986, Carnegie Mellon
 University), and the Gaussian 82(TM) system (copyright 1983,
 Carnegie Mellon University). Gaussian is a federally registered
 trademark of Gaussian, Inc.
  
 This software contains proprietary and confidential information,
 including trade secrets, belonging to Gaussian, Inc.
  
 This software is provided under written license and may be
 used, copied, transmitted, or stored only in accord with that
 written license.
  
 The following legend is applicable only to US Government
 contracts under FAR:
  
                    RESTRICTED RIGHTS LEGEND
  
 Use, reproduction and disclosure by the US Government is
 subject to restrictions as set forth in subparagraphs (a)
 and (c) of the Commercial Computer Software - Restricted
 Rights clause in FAR 52.227-19.
  
 Gaussian, Inc.
 340 Quinnipiac St., Bldg. 40, Wallingford CT 06492
  
  
 ---------------------------------------------------------------
 Warning -- This program may not be used in any manner that
 competes with the business of Gaussian, Inc. or will provide
 assistance to any competitor of Gaussian, Inc.  The licensee
 of this program is prohibited from giving any competitor of
 Gaussian, Inc. access to this program.  By using this program,
 the user acknowledges that Gaussian, Inc. is engaged in the
 business of creating and licensing software in the field of
 computational chemistry and represents and warrants to the
 licensee that it is not a competitor of Gaussian, Inc. and that
 it will not use this program in any manner prohibited above.
 ---------------------------------------------------------------
  

 Cite this work as:
 Gaussian 16, Revision A.03,
 M. J. Frisch, G. W. Trucks, H. B. Schlegel, G. E. Scuseria, 
 M. A. Robb, J. R. Cheeseman, G. Scalmani, V. Barone, 
 G. A. Petersson, H. Nakatsuji, X. Li, M. Caricato, A. V. Marenich, 
 J. Bloino, B. G. Janesko, R. Gomperts, B. Mennucci, H. P. Hratchian, 
 J. V. Ortiz, A. F. Izmaylov, J. L. Sonnenberg, D. Williams-Young, 
 F. Ding, F. Lipparini, F. Egidi, J. Goings, B. Peng, A. Petrone, 
 T. Henderson, D. Ranasinghe, V. G. Zakrzewski, J. Gao, N. Rega, 
 G. Zheng, W. Liang, M. Hada, M. Ehara, K. Toyota, R. Fukuda, 
 J. Hasegawa, M. Ishida, T. Nakajima, Y. Honda, O. Kitao, H. Nakai, 
 T. Vreven, K. Throssell, J. A. Montgomery, Jr., J. E. Peralta, 
 F. Ogliaro, M. J. Bearpark, J. J. Heyd, E. N. Brothers, K. N. Kudin, 
 V. N. Staroverov, T. A. Keith, R. Kobayashi, J. Normand, 
 K. Raghavachari, A. P. Rendell, J. C. Burant, S. S. Iyengar, 
 J. Tomasi, M. Cossi, J. M. Millam, M. Klene, C. Adamo, R. Cammi, 
 J. W. Ochterski, R. L. Martin, K. Morokuma, O. Farkas, 
 J. B. Foresman, and D. J. Fox, Gaussian, Inc., Wallingford CT, 2016.
 
 ******************************************
 Gaussian 16:  ES64L-G16RevA.03 25-Dec-2016
                11-Feb-2020 
 ******************************************
 %chk=checkpoint.chk
 %mem=3GB
 %nprocshared=4
 Will use up to    4 processors via shared memory.
 -------------------------------------------------------------------
 #t pop=none jul-cc-pvdz guess=read ub3lyp empiricaldispersion=gd3bj
 -------------------------------------------------------------------
 ------------------------------
 theory_abbreviation b3lyp_d3bj
 ------------------------------
 Symbolic Z-matrix:
 Charge =  0 Multiplicity = 6
 O                    -0.30859  -0.3296   -0.72237 
 C                    -1.38411  -1.21353  -0.47671 
 C                    -2.52305  -0.36486   0.25989 
 C                    -2.24189   1.04976  -0.1205 
 C                    -2.63188   1.55442  -1.45333 
 Fe                    1.34098   0.06693  -0.03156 
 Cl                    1.56304   2.1966   -0.72747 
 C                    -1.55569   1.98717   0.76058 
 Cl                    2.86013  -1.3414   -0.75066 
 Cl                    1.12346   0.05417   2.1945 
 H                    -3.4762   -0.64508  -0.20574 
 H                    -2.14233   2.9117    0.85178 
 H                    -1.27676   1.59204   1.73318 
 H                    -0.62866   2.30257   0.22923 
 H                    -2.83032   2.62957  -1.44717 
 H                    -1.73306   1.40212  -2.07481 
 H                    -3.45642   1.00092  -1.90429 
 C                    -2.62591  -0.58016   1.77586 
 H                    -3.3539    0.10888   2.21765 
 H                    -2.97237  -1.59703   1.97409 
 H                    -1.66598  -0.44557   2.27807 
 C                    -0.92696  -2.40907   0.36074 
 H                    -1.73996  -3.12164   0.53515 
 H                    -0.13709  -2.91829  -0.20151 
 H                    -0.50613  -2.09919   1.3182 
 C                    -1.89934  -1.71473  -1.83247 
 H                    -1.08411  -2.23929  -2.33832 
 H                    -2.74067  -2.40556  -1.70757 
 H                    -2.21245  -0.89287  -2.48127 
 
                    Distance matrix (angstroms):
                    1          2          3          4          5
     1  O    0.000000
     2  C    1.413657   0.000000
     3  C    2.422786   1.600001   0.000000
     4  C    2.450002   2.446457   1.491605   0.000000
     5  C    3.079205   3.189402   2.574989   1.477564   0.000000
     6  Fe   1.831818   3.043664   3.898995   3.716295   4.474115
     7  Cl   3.143996   4.514152   4.922609   4.020093   4.305418
     8  C    3.020230   3.435809   2.592005   1.458048   2.499367
     9  Cl   3.326458   4.254992   5.563584   5.669684   6.248332
    10  Cl   3.272032   3.876899   4.149145   4.204292   5.446104
    11  H    3.224931   2.184810   1.097187   2.098399   2.665931
    12  H    4.043085   4.399692   3.351284   2.102871   2.719445
    13  H    3.264926   3.573001   2.748323   2.159096   3.462892
    14  H    2.817142   3.664974   3.271827   2.072288   2.720961
    15  H    3.954882   4.219325   3.460493   2.145245   1.093320
    16  H    2.618598   3.085015   3.032670   2.049971   1.103320
    17  H    3.616075   3.352047   2.723996   2.158553   1.090684
    18  C    3.416704   2.649014   1.534640   2.529882   3.870935
    19  H    4.255565   3.590039   2.178892   2.754772   4.010856
    20  H    3.996624   2.945516   2.158394   3.453471   4.668494
    21  H    3.295235   2.873677   2.194120   2.884585   4.342378
    22  C    2.424813   1.529584   2.595479   3.731510   4.680481
    23  H    3.380184   2.188918   2.879040   4.252340   5.158986
    24  H    2.646135   2.130027   3.525018   4.492459   5.272212
    25  H    2.708209   2.185620   2.862855   3.872808   5.054611
    26  C    2.383563   1.534517   2.566927   3.269642   3.371604
    27  H    2.619095   2.146579   3.512087   4.132438   4.191788
    28  H    3.345930   2.185453   2.843009   3.834945   3.969629
    29  H    2.652487   2.192545   2.808776   3.057434   2.687346
                    6          7          8          9         10
     6  Fe   0.000000
     7  Cl   2.251461   0.000000
     8  C    3.564480   3.461886   0.000000
     9  Cl   2.192784   3.768341   5.732597   0.000000
    10  Cl   2.236702   3.649820   3.601459   3.692914   0.000000
    11  H    4.872635   5.808727   3.398654   6.397722   5.235169
    12  H    4.583280   4.090864   1.098736   6.758789   4.542445
    13  H    3.506113   3.805887   1.086227   5.646977   2.887719
    14  H    2.990914   2.393747   1.114099   5.139095   3.462305
    15  H    5.096155   4.472920   2.628973   6.973868   5.960440
    16  H    3.925220   3.648400   2.900550   5.511590   5.310721
    17  H    5.233974   5.292400   3.418620   6.834910   6.218660
    18  C    4.407008   5.614653   2.960965   6.087641   3.825624
    19  H    5.206017   6.099883   2.980694   7.037634   4.477754
    20  H    5.039490   6.500773   4.040555   6.442645   4.421639
    21  H    3.826079   5.142070   2.869342   5.519184   2.835085
    22  C    3.380544   5.347572   4.458935   4.088664   3.692488
    23  H    4.469938   6.386522   5.117096   5.097385   4.586759
    24  H    3.335434   5.415639   5.196303   3.430951   4.020614
    25  H    3.150521   5.188456   4.255687   4.023199   2.839093
    26  C    4.113060   5.339246   4.532770   4.895116   5.336928
    27  H    4.064589   5.411039   5.261990   4.345553   5.538936
    28  H    5.057879   6.376708   5.176097   5.780747   6.017303
    29  H    4.421447   5.184104   4.385834   5.378400   5.821345
                   11         12         13         14         15
    11  H    0.000000
    12  H    3.943126   0.000000
    13  H    3.688040   1.807650   0.000000
    14  H    4.121453   1.746374   1.785157   0.000000
    15  H    3.561130   2.416214   3.688449   2.786493   0.000000
    16  H    3.274600   3.318325   3.839936   2.709082   1.761970
    17  H    2.365332   3.601920   4.281533   3.773914   1.803734
    18  C    2.157300   3.644289   2.557429   3.832914   4.553246
    19  H    2.540907   3.345038   2.597875   4.024058   4.478714
    20  H    2.431402   4.719877   3.619848   4.872832   5.439612
    21  H    3.079934   3.678646   2.144810   3.581349   4.968855
    22  C    3.151379   5.479860   4.244387   4.722910   5.681479
    23  H    3.113968   6.055026   4.885546   5.545327   6.180198
    24  H    4.039454   6.254534   5.038344   5.261612   6.291572
    25  H    3.641172   5.291858   3.793581   4.536124   5.950654
    26  C    2.505374   5.354256   4.902667   4.690833   4.459605
    27  H    3.579323   6.150552   5.594044   5.237200   5.248732
    28  H    2.428124   5.931402   5.473808   5.511652   5.042655
    29  H    2.614679   5.058547   4.981154   4.479514   3.722725
                   16         17         18         19         20
    16  H    0.000000
    17  H    1.777635   0.000000
    18  C    4.422022   4.090606   0.000000
    19  H    4.767052   4.218603   1.095410   0.000000
    20  H    5.188876   4.693135   1.092415   1.764946   0.000000
    21  H    4.729272   4.773898   1.091690   1.777675   1.767749
    22  C    4.594223   4.812125   2.869480   3.959575   2.728739
    23  H    5.222674   5.088475   2.963680   3.983952   2.431835
    24  H    4.972154   5.410878   3.946021   5.036266   3.810224
    25  H    5.027630   5.357173   2.647712   3.714081   2.600905
    26  C    3.130671   3.131195   3.851648   4.673836   3.956660
    27  H    3.708158   4.039207   4.696422   5.605600   4.751313
    28  H    3.955827   3.486416   3.934403   4.701678   3.776508
    29  H    2.379491   2.338117   4.288582   4.938247   4.574236
                   21         22         23         24         25
    21  H    0.000000
    22  C    2.842124   0.000000
    23  H    3.194466   1.095049   0.000000
    24  H    3.821021   1.095139   1.775730   0.000000
    25  H    2.236314   1.090801   1.783502   1.765394   0.000000
    26  C    4.308335   2.497557   2.758699   2.685912   3.466342
    27  H    4.986694   2.708960   3.076610   2.433898   3.704567
    28  H    4.569665   2.750900   2.558119   3.051190   3.773894
    29  H    4.811451   3.468198   3.780144   3.688738   4.336210
                   26         27         28         29
    26  C    0.000000
    27  H    1.093462   0.000000
    28  H    1.095763   1.780369   0.000000
    29  H    1.092905   1.762511   1.779294   0.000000
 Framework group  C1[X(C8H16Cl3FeO)]
 Deg. of freedom    81
                         Standard orientation:                         
 ---------------------------------------------------------------------
 Center     Atomic      Atomic             Coordinates (Angstroms)
 Number     Number       Type             X           Y           Z
 ---------------------------------------------------------------------
      1          8           0       -0.308594   -0.329598   -0.722366
      2          6           0       -1.384113   -1.213530   -0.476706
      3          6           0       -2.523054   -0.364855    0.259885
      4          6           0       -2.241891    1.049761   -0.120503
      5          6           0       -2.631881    1.554424   -1.453327
      6         26           0        1.340983    0.066933   -0.031558
      7         17           0        1.563040    2.196599   -0.727469
      8          6           0       -1.555694    1.987167    0.760581
      9         17           0        2.860125   -1.341400   -0.750663
     10         17           0        1.123461    0.054165    2.194505
     11          1           0       -3.476202   -0.645080   -0.205735
     12          1           0       -2.142330    2.911700    0.851781
     13          1           0       -1.276760    1.592035    1.733184
     14          1           0       -0.628655    2.302572    0.229228
     15          1           0       -2.830317    2.629568   -1.447168
     16          1           0       -1.733062    1.402118   -2.074811
     17          1           0       -3.456416    1.000920   -1.904289
     18          6           0       -2.625908   -0.580158    1.775862
     19          1           0       -3.353899    0.108884    2.217649
     20          1           0       -2.972372   -1.597034    1.974094
     21          1           0       -1.665982   -0.445565    2.278071
     22          6           0       -0.926962   -2.409073    0.360741
     23          1           0       -1.739959   -3.121639    0.535151
     24          1           0       -0.137087   -2.918289   -0.201508
     25          1           0       -0.506132   -2.099195    1.318198
     26          6           0       -1.899338   -1.714727   -1.832467
     27          1           0       -1.084106   -2.239290   -2.338322
     28          1           0       -2.740673   -2.405561   -1.707565
     29          1           0       -2.212448   -0.892867   -2.481273
 ---------------------------------------------------------------------
 Rotational constants (GHZ):           0.5671732           0.3669403           0.3330448
   427 basis functions,  1056 primitive gaussians,   461 cartesian basis functions
    77 alpha electrons       72 beta electrons
       nuclear repulsion energy      1664.9744962798 Hartrees.
 NAtoms=   29 NActive=   29 NUniq=   29 SFac= 1.00D+00 NAtFMM=   60 NAOKFM=F Big=F
 Nuclear repulsion after empirical dispersion term =     1664.9046707319 Hartrees.
 Initial guess from the checkpoint file:  "checkpoint.chk"
 B after Tr=     0.000000    0.000000    0.000000
         Rot=    1.000000    0.000000    0.000000    0.000000 Ang=   0.00 deg.
 Initial guess <Sx>= 0.0000 <Sy>= 0.0000 <Sz>= 2.5000 <S**2>= 8.7620 S= 2.5020
 SCF Done:  E(UB3LYP) =  -3034.38580200     A.U. after    1 cycles
            NFock=  1  Conv=0.55D-08     -V/T= 2.0024
 <Sx>= 0.0000 <Sy>= 0.0000 <Sz>= 2.5000 <S**2>= 8.7620 S= 2.5020
 <L.S>= 0.000000000000E+00
 Annihilation of the first spin contaminant:
 S**2 before annihilation     8.7620,   after     8.7500
 1\1\GINC-HOLY7C24302\SP\UB3LYP\Jul-CC-pVDZ\C8H16Cl3Fe1O1(6)\EKWAN\11-F
 eb-2020\0\\#t pop=none jul-cc-pvdz guess=read ub3lyp empiricaldispersi
 on=gd3bj\\theory_abbreviation b3lyp_d3bj\\0,6\O,0,-0.308594,-0.329598,
 -0.722366\C,0,-1.384113,-1.21353,-0.476706\C,0,-2.523054,-0.364855,0.2
 59885\C,0,-2.241891,1.049761,-0.120503\C,0,-2.631881,1.554424,-1.45332
 7\Fe,0,1.340983,0.066933,-0.031558\Cl,0,1.56304,2.196599,-0.727469\C,0
 ,-1.555694,1.987167,0.760581\Cl,0,2.860125,-1.341399,-0.750663\Cl,0,1.
 123461,0.054165,2.194505\H,0,-3.476202,-0.645081,-0.205735\H,0,-2.1423
 3,2.9117,0.851781\H,0,-1.27676,1.592035,1.733184\H,0,-0.628655,2.30257
 2,0.229228\H,0,-2.830317,2.629568,-1.447168\H,0,-1.733062,1.402118,-2.
 074811\H,0,-3.456416,1.000919,-1.904289\C,0,-2.625908,-0.580158,1.7758
 62\H,0,-3.353899,0.108883,2.217649\H,0,-2.972372,-1.597034,1.974094\H,
 0,-1.665982,-0.445565,2.278071\C,0,-0.926962,-2.409073,0.360741\H,0,-1
 .739958,-3.121639,0.535151\H,0,-0.137086,-2.918289,-0.201508\H,0,-0.50
 6132,-2.099195,1.318198\C,0,-1.899338,-1.714727,-1.832467\H,0,-1.08410
 6,-2.23929,-2.338322\H,0,-2.740673,-2.405561,-1.707565\H,0,-2.212448,-
 0.892867,-2.481273\\Version=ES64L-G16RevA.03\HF=-3034.385802\S2=8.7620
 27\S2-1=0.\S2A=8.750046\RMSD=5.488e-09\PG=C01 [X(C8H16Cl3Fe1O1)]\\@


 MY GROUP MEETINGS AREN'T VERY STRUCTURED.
     -- PROF. M. S. GORDON, OCT. 5, 1984
 Job cpu time:       0 days  0 hours  5 minutes  5.0 seconds.
 Elapsed time:       0 days  0 hours  1 minutes 37.1 seconds.
 File lengths (MBytes):  RWF=    170 Int=      0 D2E=      0 Chk=     13 Scr=      1
 Normal termination of Gaussian 16 at Tue Feb 11 14:12:21 2020.
 Initial command:
 /n/sw/g16_nehalem/g16/l1.exe "/scratch/Gau-439078.inp" -scrdir="/scratch/"
 Entering Link 1 = /n/sw/g16_nehalem/g16/l1.exe PID=     11421.
  
 Copyright (c) 1988,1990,1992,1993,1995,1998,2003,2009,2016,
            Gaussian, Inc.  All Rights Reserved.
  
 This is part of the Gaussian(R) 16 program.  It is based on
 the Gaussian(R) 09 system (copyright 2009, Gaussian, Inc.),
 the Gaussian(R) 03 system (copyright 2003, Gaussian, Inc.),
 the Gaussian(R) 98 system (copyright 1998, Gaussian, Inc.),
 the Gaussian(R) 94 system (copyright 1995, Gaussian, Inc.),
 the Gaussian 92(TM) system (copyright 1992, Gaussian, Inc.),
 the Gaussian 90(TM) system (copyright 1990, Gaussian, Inc.),
 the Gaussian 88(TM) system (copyright 1988, Gaussian, Inc.),
 the Gaussian 86(TM) system (copyright 1986, Carnegie Mellon
 University), and the Gaussian 82(TM) system (copyright 1983,
 Carnegie Mellon University). Gaussian is a federally registered
 trademark of Gaussian, Inc.
  
 This software contains proprietary and confidential information,
 including trade secrets, belonging to Gaussian, Inc.
  
 This software is provided under written license and may be
 used, copied, transmitted, or stored only in accord with that
 written license.
  
 The following legend is applicable only to US Government
 contracts under FAR:
  
                    RESTRICTED RIGHTS LEGEND
  
 Use, reproduction and disclosure by the US Government is
 subject to restrictions as set forth in subparagraphs (a)
 and (c) of the Commercial Computer Software - Restricted
 Rights clause in FAR 52.227-19.
  
 Gaussian, Inc.
 340 Quinnipiac St., Bldg. 40, Wallingford CT 06492
  
  
 ---------------------------------------------------------------
 Warning -- This program may not be used in any manner that
 competes with the business of Gaussian, Inc. or will provide
 assistance to any competitor of Gaussian, Inc.  The licensee
 of this program is prohibited from giving any competitor of
 Gaussian, Inc. access to this program.  By using this program,
 the user acknowledges that Gaussian, Inc. is engaged in the
 business of creating and licensing software in the field of
 computational chemistry and represents and warrants to the
 licensee that it is not a competitor of Gaussian, Inc. and that
 it will not use this program in any manner prohibited above.
 ---------------------------------------------------------------
  

 Cite this work as:
 Gaussian 16, Revision A.03,
 M. J. Frisch, G. W. Trucks, H. B. Schlegel, G. E. Scuseria, 
 M. A. Robb, J. R. Cheeseman, G. Scalmani, V. Barone, 
 G. A. Petersson, H. Nakatsuji, X. Li, M. Caricato, A. V. Marenich, 
 J. Bloino, B. G. Janesko, R. Gomperts, B. Mennucci, H. P. Hratchian, 
 J. V. Ortiz, A. F. Izmaylov, J. L. Sonnenberg, D. Williams-Young, 
 F. Ding, F. Lipparini, F. Egidi, J. Goings, B. Peng, A. Petrone, 
 T. Henderson, D. Ranasinghe, V. G. Zakrzewski, J. Gao, N. Rega, 
 G. Zheng, W. Liang, M. Hada, M. Ehara, K. Toyota, R. Fukuda, 
 J. Hasegawa, M. Ishida, T. Nakajima, Y. Honda, O. Kitao, H. Nakai, 
 T. Vreven, K. Throssell, J. A. Montgomery, Jr., J. E. Peralta, 
 F. Ogliaro, M. J. Bearpark, J. J. Heyd, E. N. Brothers, K. N. Kudin, 
 V. N. Staroverov, T. A. Keith, R. Kobayashi, J. Normand, 
 K. Raghavachari, A. P. Rendell, J. C. Burant, S. S. Iyengar, 
 J. Tomasi, M. Cossi, J. M. Millam, M. Klene, C. Adamo, R. Cammi, 
 J. W. Ochterski, R. L. Martin, K. Morokuma, O. Farkas, 
 J. B. Foresman, and D. J. Fox, Gaussian, Inc., Wallingford CT, 2016.
 
 ******************************************
 Gaussian 16:  ES64L-G16RevA.03 25-Dec-2016
                11-Feb-2020 
 ******************************************
 %chk=checkpoint.chk
 %mem=3GB
 %nprocshared=4
 Will use up to    4 processors via shared memory.
 ----------------------------------------
 #t pop=none jul-cc-pvdz guess=read ub97d
 ----------------------------------------
 ------------------------
 theory_abbreviation b97d
 ------------------------
 Symbolic Z-matrix:
 Charge =  0 Multiplicity = 6
 O                    -0.30859  -0.3296   -0.72237 
 C                    -1.38411  -1.21353  -0.47671 
 C                    -2.52305  -0.36486   0.25989 
 C                    -2.24189   1.04976  -0.1205 
 C                    -2.63188   1.55442  -1.45333 
 Fe                    1.34098   0.06693  -0.03156 
 Cl                    1.56304   2.1966   -0.72747 
 C                    -1.55569   1.98717   0.76058 
 Cl                    2.86013  -1.3414   -0.75066 
 Cl                    1.12346   0.05417   2.1945 
 H                    -3.4762   -0.64508  -0.20574 
 H                    -2.14233   2.9117    0.85178 
 H                    -1.27676   1.59204   1.73318 
 H                    -0.62866   2.30257   0.22923 
 H                    -2.83032   2.62957  -1.44717 
 H                    -1.73306   1.40212  -2.07481 
 H                    -3.45642   1.00092  -1.90429 
 C                    -2.62591  -0.58016   1.77586 
 H                    -3.3539    0.10888   2.21765 
 H                    -2.97237  -1.59703   1.97409 
 H                    -1.66598  -0.44557   2.27807 
 C                    -0.92696  -2.40907   0.36074 
 H                    -1.73996  -3.12164   0.53515 
 H                    -0.13709  -2.91829  -0.20151 
 H                    -0.50613  -2.09919   1.3182 
 C                    -1.89934  -1.71473  -1.83247 
 H                    -1.08411  -2.23929  -2.33832 
 H                    -2.74067  -2.40556  -1.70757 
 H                    -2.21245  -0.89287  -2.48127 
 
                    Distance matrix (angstroms):
                    1          2          3          4          5
     1  O    0.000000
     2  C    1.413657   0.000000
     3  C    2.422786   1.600001   0.000000
     4  C    2.450002   2.446457   1.491605   0.000000
     5  C    3.079205   3.189402   2.574989   1.477564   0.000000
     6  Fe   1.831818   3.043664   3.898995   3.716295   4.474115
     7  Cl   3.143996   4.514152   4.922609   4.020093   4.305418
     8  C    3.020230   3.435809   2.592005   1.458048   2.499367
     9  Cl   3.326458   4.254992   5.563584   5.669684   6.248332
    10  Cl   3.272032   3.876899   4.149145   4.204292   5.446104
    11  H    3.224931   2.184810   1.097187   2.098399   2.665931
    12  H    4.043085   4.399692   3.351284   2.102871   2.719445
    13  H    3.264926   3.573001   2.748323   2.159096   3.462892
    14  H    2.817142   3.664974   3.271827   2.072288   2.720961
    15  H    3.954882   4.219325   3.460493   2.145245   1.093320
    16  H    2.618598   3.085015   3.032670   2.049971   1.103320
    17  H    3.616075   3.352047   2.723996   2.158553   1.090684
    18  C    3.416704   2.649014   1.534640   2.529882   3.870935
    19  H    4.255565   3.590039   2.178892   2.754772   4.010856
    20  H    3.996624   2.945516   2.158394   3.453471   4.668494
    21  H    3.295235   2.873677   2.194120   2.884585   4.342378
    22  C    2.424813   1.529584   2.595479   3.731510   4.680481
    23  H    3.380184   2.188918   2.879040   4.252340   5.158986
    24  H    2.646135   2.130027   3.525018   4.492459   5.272212
    25  H    2.708209   2.185620   2.862855   3.872808   5.054611
    26  C    2.383563   1.534517   2.566927   3.269642   3.371604
    27  H    2.619095   2.146579   3.512087   4.132438   4.191788
    28  H    3.345930   2.185453   2.843009   3.834945   3.969629
    29  H    2.652487   2.192545   2.808776   3.057434   2.687346
                    6          7          8          9         10
     6  Fe   0.000000
     7  Cl   2.251461   0.000000
     8  C    3.564480   3.461886   0.000000
     9  Cl   2.192784   3.768341   5.732597   0.000000
    10  Cl   2.236702   3.649820   3.601459   3.692914   0.000000
    11  H    4.872635   5.808727   3.398654   6.397722   5.235169
    12  H    4.583280   4.090864   1.098736   6.758789   4.542445
    13  H    3.506113   3.805887   1.086227   5.646977   2.887719
    14  H    2.990914   2.393747   1.114099   5.139095   3.462305
    15  H    5.096155   4.472920   2.628973   6.973868   5.960440
    16  H    3.925220   3.648400   2.900550   5.511590   5.310721
    17  H    5.233974   5.292400   3.418620   6.834910   6.218660
    18  C    4.407008   5.614653   2.960965   6.087641   3.825624
    19  H    5.206017   6.099883   2.980694   7.037634   4.477754
    20  H    5.039490   6.500773   4.040555   6.442645   4.421639
    21  H    3.826079   5.142070   2.869342   5.519184   2.835085
    22  C    3.380544   5.347572   4.458935   4.088664   3.692488
    23  H    4.469938   6.386522   5.117096   5.097385   4.586759
    24  H    3.335434   5.415639   5.196303   3.430951   4.020614
    25  H    3.150521   5.188456   4.255687   4.023199   2.839093
    26  C    4.113060   5.339246   4.532770   4.895116   5.336928
    27  H    4.064589   5.411039   5.261990   4.345553   5.538936
    28  H    5.057879   6.376708   5.176097   5.780747   6.017303
    29  H    4.421447   5.184104   4.385834   5.378400   5.821345
                   11         12         13         14         15
    11  H    0.000000
    12  H    3.943126   0.000000
    13  H    3.688040   1.807650   0.000000
    14  H    4.121453   1.746374   1.785157   0.000000
    15  H    3.561130   2.416214   3.688449   2.786493   0.000000
    16  H    3.274600   3.318325   3.839936   2.709082   1.761970
    17  H    2.365332   3.601920   4.281533   3.773914   1.803734
    18  C    2.157300   3.644289   2.557429   3.832914   4.553246
    19  H    2.540907   3.345038   2.597875   4.024058   4.478714
    20  H    2.431402   4.719877   3.619848   4.872832   5.439612
    21  H    3.079934   3.678646   2.144810   3.581349   4.968855
    22  C    3.151379   5.479860   4.244387   4.722910   5.681479
    23  H    3.113968   6.055026   4.885546   5.545327   6.180198
    24  H    4.039454   6.254534   5.038344   5.261612   6.291572
    25  H    3.641172   5.291858   3.793581   4.536124   5.950654
    26  C    2.505374   5.354256   4.902667   4.690833   4.459605
    27  H    3.579323   6.150552   5.594044   5.237200   5.248732
    28  H    2.428124   5.931402   5.473808   5.511652   5.042655
    29  H    2.614679   5.058547   4.981154   4.479514   3.722725
                   16         17         18         19         20
    16  H    0.000000
    17  H    1.777635   0.000000
    18  C    4.422022   4.090606   0.000000
    19  H    4.767052   4.218603   1.095410   0.000000
    20  H    5.188876   4.693135   1.092415   1.764946   0.000000
[...]
 ---------------------------------------------------------------------
 Rotational constants (GHZ):           0.5671732           0.3669403           0.3330448
   427 basis functions,  1056 primitive gaussians,   461 cartesian basis functions
    77 alpha electrons       72 beta electrons
       nuclear repulsion energy      1664.9744962798 Hartrees.
 NAtoms=   29 NActive=   29 NUniq=   29 SFac= 1.00D+00 NAtFMM=   60 NAOKFM=F Big=F
 Nuclear repulsion after empirical dispersion term =     1664.9720955728 Hartrees.
 Initial guess from the checkpoint file:  "checkpoint.chk"
 B after Tr=     0.000000    0.000000    0.000000
         Rot=    1.000000    0.000000    0.000000    0.000000 Ang=   0.00 deg.
 Initial guess <Sx>= 0.0000 <Sy>= 0.0000 <Sz>= 2.5000 <S**2>= 8.7617 S= 2.5020
 SCF Done:  E(UM06L) =  -3034.18304723     A.U. after   18 cycles
            NFock= 18  Conv=0.26D-08     -V/T= 2.0020
 <Sx>= 0.0000 <Sy>= 0.0000 <Sz>= 2.5000 <S**2>= 8.7623 S= 2.5021
 <L.S>= 0.000000000000E+00
 Annihilation of the first spin contaminant:
 S**2 before annihilation     8.7623,   after     8.7500
 1\1\GINC-HOLY7C24302\SP\UM06L\Jul-CC-pVDZ\C8H16Cl3Fe1O1(6)\EKWAN\11-Fe
 b-2020\0\\#t pop=none jul-cc-pvdz guess=read um06l empiricaldispersion
 =gd3\\theory_abbreviation m06l_d3\\0,6\O,0,-0.308594,-0.329598,-0.7223
 66\C,0,-1.384113,-1.21353,-0.476706\C,0,-2.523054,-0.364855,0.259885\C
 ,0,-2.241891,1.049761,-0.120503\C,0,-2.631881,1.554424,-1.453327\Fe,0,
 1.340983,0.066933,-0.031558\Cl,0,1.56304,2.196599,-0.727469\C,0,-1.555
 694,1.987167,0.760581\Cl,0,2.860125,-1.341399,-0.750663\Cl,0,1.123461,
 0.054165,2.194505\H,0,-3.476202,-0.645081,-0.205735\H,0,-2.14233,2.911
 7,0.851781\H,0,-1.27676,1.592035,1.733184\H,0,-0.628655,2.302572,0.229
 228\H,0,-2.830317,2.629568,-1.447168\H,0,-1.733062,1.402118,-2.074811\
 H,0,-3.456416,1.000919,-1.904289\C,0,-2.625908,-0.580158,1.775862\H,0,
 -3.353899,0.108883,2.217649\H,0,-2.972372,-1.597034,1.974094\H,0,-1.66
 5982,-0.445565,2.278071\C,0,-0.926962,-2.409073,0.360741\H,0,-1.739958
 ,-3.121639,0.535151\H,0,-0.137086,-2.918289,-0.201508\H,0,-0.506132,-2
 .099195,1.318198\C,0,-1.899338,-1.714727,-1.832467\H,0,-1.084106,-2.23
 929,-2.338322\H,0,-2.740673,-2.405561,-1.707565\H,0,-2.212448,-0.89286
 7,-2.481273\\Version=ES64L-G16RevA.03\HF=-3034.1830472\S2=8.762338\S2-
 1=0.\S2A=8.750049\RMSD=2.551e-09\PG=C01 [X(C8H16Cl3Fe1O1)]\\@


  THE LARGE PRINT GIVETH,
  AND THE SMALL PRINT TAKETH AWAY.

                     -- TOM WAITS
 Job cpu time:       0 days  1 hours 21 minutes  3.8 seconds.
 Elapsed time:       0 days  0 hours 20 minutes 56.9 seconds.
 File lengths (MBytes):  RWF=    174 Int=      0 D2E=      0 Chk=     13 Scr=      1
 Normal termination of Gaussian 16 at Tue Feb 11 22:51:14 2020.
 Initial command:
 /n/sw/g16_nehalem/g16/l1.exe "/scratch/Gau-439078.inp" -scrdir="/scratch/"
 Entering Link 1 = /n/sw/g16_nehalem/g16/l1.exe PID=    207575.
  
 Copyright (c) 1988,1990,1992,1993,1995,1998,2003,2009,2016,
            Gaussian, Inc.  All Rights Reserved.
  
 This is part of the Gaussian(R) 16 program.  It is based on
 the Gaussian(R) 09 system (copyright 2009, Gaussian, Inc.),
 the Gaussian(R) 03 system (copyright 2003, Gaussian, Inc.),
 the Gaussian(R) 98 system (copyright 1998, Gaussian, Inc.),
 the Gaussian(R) 94 system (copyright 1995, Gaussian, Inc.),
 the Gaussian 92(TM) system (copyright 1992, Gaussian, Inc.),
 the Gaussian 90(TM) system (copyright 1990, Gaussian, Inc.),
 the Gaussian 88(TM) system (copyright 1988, Gaussian, Inc.),
 the Gaussian 86(TM) system (copyright 1986, Carnegie Mellon
 University), and the Gaussian 82(TM) system (copyright 1983,
 Carnegie Mellon University). Gaussian is a federally registered
 trademark of Gaussian, Inc.
  
 This software contains proprietary and confidential information,
 including trade secrets, belonging to Gaussian, Inc.
  
 This software is provided under written license and may be
 used, copied, transmitted, or stored only in accord with that
 written license.
  
 The following legend is applicable only to US Government
 contracts under FAR:
  
                    RESTRICTED RIGHTS LEGEND
  
 Use, reproduction and disclosure by the US Government is
 subject to restrictions as set forth in subparagraphs (a)
 and (c) of the Commercial Computer Software - Restricted
 Rights clause in FAR 52.227-19.
  
 Gaussian, Inc.
 340 Quinnipiac St., Bldg. 40, Wallingford CT 06492
  
  
 ---------------------------------------------------------------
 Warning -- This program may not be used in any manner that
 competes with the business of Gaussian, Inc. or will provide
 assistance to any competitor of Gaussian, Inc.  The licensee
 of this program is prohibited from giving any competitor of
 Gaussian, Inc. access to this program.  By using this program,
 the user acknowledges that Gaussian, Inc. is engaged in the
 business of creating and licensing software in the field of
 computational chemistry and represents and warrants to the
 licensee that it is not a competitor of Gaussian, Inc. and that
 it will not use this program in any manner prohibited above.
 ---------------------------------------------------------------
  

 Cite this work as:
 Gaussian 16, Revision A.03,
 M. J. Frisch, G. W. Trucks, H. B. Schlegel, G. E. Scuseria, 
 M. A. Robb, J. R. Cheeseman, G. Scalmani, V. Barone, 
 G. A. Petersson, H. Nakatsuji, X. Li, M. Caricato, A. V. Marenich, 
 J. Bloino, B. G. Janesko, R. Gomperts, B. Mennucci, H. P. Hratchian, 
 J. V. Ortiz, A. F. Izmaylov, J. L. Sonnenberg, D. Williams-Young, 
 F. Ding, F. Lipparini, F. Egidi, J. Goings, B. Peng, A. Petrone, 
 T. Henderson, D. Ranasinghe, V. G. Zakrzewski, J. Gao, N. Rega, 
 G. Zheng, W. Liang, M. Hada, M. Ehara, K. Toyota, R. Fukuda, 
 J. Hasegawa, M. Ishida, T. Nakajima, Y. Honda, O. Kitao, H. Nakai, 
 T. Vreven, K. Throssell, J. A. Montgomery, Jr., J. E. Peralta, 
 F. Ogliaro, M. J. Bearpark, J. J. Heyd, E. N. Brothers, K. N. Kudin, 
 V. N. Staroverov, T. A. Keith, R. Kobayashi, J. Normand, 
 K. Raghavachari, A. P. Rendell, J. C. Burant, S. S. Iyengar, 
 J. Tomasi, M. Cossi, J. M. Millam, M. Klene, C. Adamo, R. Cammi, 
 J. W. Ochterski, R. L. Martin, K. Morokuma, O. Farkas, 
 J. B. Foresman, and D. J. Fox, Gaussian, Inc., Wallingford CT, 2016.
 
 ******************************************
 Gaussian 16:  ES64L-G16RevA.03 25-Dec-2016
                11-Feb-2020 
 ******************************************
 %chk=checkpoint.chk
 %mem=3GB
 %nprocshared=4
 Will use up to    4 processors via shared memory.
 -------------------------------------------------------------------
 #t pop=none jul-cc-pvdz guess=read ub97d3 empiricaldispersion=gd3bj
 -------------------------------------------------------------------
 ------------------------------
 theory_abbreviation b97d3_d3bj
 ------------------------------
 Symbolic Z-matrix:
 Charge =  0 Multiplicity = 6
 O                    -0.30859  -0.3296   -0.72237 
 C                    -1.38411  -1.21353  -0.47671 
 C                    -2.52305  -0.36486   0.25989 
 C                    -2.24189   1.04976  -0.1205 
 C                    -2.63188   1.55442  -1.45333 
 Fe                    1.34098   0.06693  -0.03156 
 Cl                    1.56304   2.1966   -0.72747 
 C                    -1.55569   1.98717   0.76058 
 Cl                    2.86013  -1.3414   -0.75066 
 Cl                    1.12346   0.05417   2.1945 
 H                    -3.4762   -0.64508  -0.20574 
 H                    -2.14233   2.9117    0.85178 
 H                    -1.27676   1.59204   1.73318 
 H                    -0.62866   2.30257   0.22923 
 H                    -2.83032   2.62957  -1.44717 
 H                    -1.73306   1.40212  -2.07481 
 H                    -3.45642   1.00092  -1.90429 
 C                    -2.62591  -0.58016   1.77586 
 H                    -3.3539    0.10888   2.21765 
 H                    -2.97237  -1.59703   1.97409 
 H                    -1.66598  -0.44557   2.27807 
 C                    -0.92696  -2.40907   0.36074 
 H                    -1.73996  -3.12164   0.53515 
 H                    -0.13709  -2.91829  -0.20151 
 H                    -0.50613  -2.09919   1.3182 
 C                    -1.89934  -1.71473  -1.83247 
 H                    -1.08411  -2.23929  -2.33832 
 H                    -2.74067  -2.40556  -1.70757 
 H                    -2.21245  -0.89287  -2.48127 
 
                    Distance matrix (angstroms):
                    1          2          3          4          5
     1  O    0.000000
     2  C    1.413657   0.000000
     3  C    2.422786   1.600001   0.000000
     4  C    2.450002   2.446457   1.491605   0.000000
     5  C    3.079205   3.189402   2.574989   1.477564   0.000000
     6  Fe   1.831818   3.043664   3.898995   3.716295   4.474115
     7  Cl   3.143996   4.514152   4.922609   4.020093   4.305418
     8  C    3.020230   3.435809   2.592005   1.458048   2.499367
     9  Cl   3.326458   4.254992   5.563584   5.669684   6.248332
    10  Cl   3.272032   3.876899   4.149145   4.204292   5.446104
    11  H    3.224931   2.184810   1.097187   2.098399   2.665931
    12  H    4.043085   4.399692   3.351284   2.102871   2.719445
    13  H    3.264926   3.573001   2.748323   2.159096   3.462892
    14  H    2.817142   3.664974   3.271827   2.072288   2.720961
    15  H    3.954882   4.219325   3.460493   2.145245   1.093320
    16  H    2.618598   3.085015   3.032670   2.049971   1.103320
    17  H    3.616075   3.352047   2.723996   2.158553   1.090684
    18  C    3.416704   2.649014   1.534640   2.529882   3.870935
    19  H    4.255565   3.590039   2.178892   2.754772   4.010856
    20  H    3.996624   2.945516   2.158394   3.453471   4.668494
    21  H    3.295235   2.873677   2.194120   2.884585   4.342378
    22  C    2.424813   1.529584   2.595479   3.731510   4.680481
    23  H    3.380184   2.188918   2.879040   4.252340   5.158986
    24  H    2.646135   2.130027   3.525018   4.492459   5.272212
    25  H    2.708209   2.185620   2.862855   3.872808   5.054611
    26  C    2.383563   1.534517   2.566927   3.269642   3.371604
    27  H    2.619095   2.146579   3.512087   4.132438   4.191788
    28  H    3.345930   2.185453   2.843009   3.834945   3.969629
    29  H    2.652487   2.192545   2.808776   3.057434   2.687346
                    6          7          8          9         10
     6  Fe   0.000000
     7  Cl   2.251461   0.000000
     8  C    3.564480   3.461886   0.000000
     9  Cl   2.192784   3.768341   5.732597   0.000000
    10  Cl   2.236702   3.649820   3.601459   3.692914   0.000000
    11  H    4.872635   5.808727   3.398654   6.397722   5.235169
    12  H    4.583280   4.090864   1.098736   6.758789   4.542445
    13  H    3.506113   3.805887   1.086227   5.646977   2.887719
    14  H    2.990914   2.393747   1.114099   5.139095   3.462305
    15  H    5.096155   4.472920   2.628973   6.973868   5.960440
    16  H    3.925220   3.648400   2.900550   5.511590   5.310721
    17  H    5.233974   5.292400   3.418620   6.834910   6.218660
    18  C    4.407008   5.614653   2.960965   6.087641   3.825624
    19  H    5.206017   6.099883   2.980694   7.037634   4.477754
    20  H    5.039490   6.500773   4.040555   6.442645   4.421639
    21  H    3.826079   5.142070   2.869342   5.519184   2.835085
    22  C    3.380544   5.347572   4.458935   4.088664   3.692488
    23  H    4.469938   6.386522   5.117096   5.097385   4.586759
    24  H    3.335434   5.415639   5.196303   3.430951   4.020614
    25  H    3.150521   5.188456   4.255687   4.023199   2.839093
    26  C    4.113060   5.339246   4.532770   4.895116   5.336928
    27  H    4.064589   5.411039   5.261990   4.345553   5.538936
    28  H    5.057879   6.376708   5.176097   5.780747   6.017303
    29  H    4.421447   5.184104   4.385834   5.378400   5.821345
                   11         12         13         14         15
    11  H    0.000000
    12  H    3.943126   0.000000
    13  H    3.688040   1.807650   0.000000
    14  H    4.121453   1.746374   1.785157   0.000000
    15  H    3.561130   2.416214   3.688449   2.786493   0.000000
    16  H    3.274600   3.318325   3.839936   2.709082   1.761970
    17  H    2.365332   3.601920   4.281533   3.773914   1.803734
    18  C    2.157300   3.644289   2.557429   3.832914   4.553246
    19  H    2.540907   3.345038   2.597875   4.024058   4.478714
    20  H    2.431402   4.719877   3.619848   4.872832   5.439612
    21  H    3.079934   3.678646   2.144810   3.581349   4.968855
    22  C    3.151379   5.479860   4.244387   4.722910   5.681479
    23  H    3.113968   6.055026   4.885546   5.545327   6.180198
    24  H    4.039454   6.254534   5.038344   5.261612   6.291572
    25  H    3.641172   5.291858   3.793581   4.536124   5.950654
    26  C    2.505374   5.354256   4.902667   4.690833   4.459605
    27  H    3.579323   6.150552   5.594044   5.237200   5.248732
    28  H    2.428124   5.931402   5.473808   5.511652   5.042655
    29  H    2.614679   5.058547   4.981154   4.479514   3.722725
                   16         17         18         19         20
    16  H    0.000000
    17  H    1.777635   0.000000
    18  C    4.422022   4.090606   0.000000
    19  H    4.767052   4.218603   1.095410   0.000000
    20  H    5.188876   4.693135   1.092415   1.764946   0.000000
    21  H    4.729272   4.773898   1.091690   1.777675   1.767749
    22  C    4.594223   4.812125   2.869480   3.959575   2.728739
    23  H    5.222674   5.088475   2.963680   3.983952   2.431835
    24  H    4.972154   5.410878   3.946021   5.036266   3.810224
    25  H    5.027630   5.357173   2.647712   3.714081   2.600905
    26  C    3.130671   3.131195   3.851648   4.673836   3.956660
    27  H    3.708158   4.039207   4.696422   5.605600   4.751313
    28  H    3.955827   3.486416   3.934403   4.701678   3.776508
    29  H    2.379491   2.338117   4.288582   4.938247   4.574236
                   21         22         23         24         25
    21  H    0.000000
    22  C    2.842124   0.000000
    23  H    3.194466   1.095049   0.000000
    24  H    3.821021   1.095139   1.775730   0.000000
    25  H    2.236314   1.090801   1.783502   1.765394   0.000000
    26  C    4.308335   2.497557   2.758699   2.685912   3.466342
    27  H    4.986694   2.708960   3.076610   2.433898   3.704567
    28  H    4.569665   2.750900   2.558119   3.051190   3.773894
    29  H    4.811451   3.468198   3.780144   3.688738   4.336210
                   26         27         28         29
    26  C    0.000000
    27  H    1.093462   0.000000
    28  H    1.095763   1.780369   0.000000
    29  H    1.092905   1.762511   1.779294   0.000000
 Framework group  C1[X(C8H16Cl3FeO)]
 Deg. of freedom    81
                         Standard orientation:                         
 ---------------------------------------------------------------------
 Center     Atomic      Atomic             Coordinates (Angstroms)
 Number     Number       Type             X           Y           Z
 ---------------------------------------------------------------------
      1          8           0       -0.308594   -0.329598   -0.722366
      2          6           0       -1.384113   -1.213530   -0.476706
      3          6           0       -2.523054   -0.364855    0.259885
      4          6           0       -2.241891    1.049761   -0.120503
      5          6           0       -2.631881    1.554424   -1.453327
      6         26           0        1.340983    0.066933   -0.031558
      7         17           0        1.563040    2.196599   -0.727469
      8          6           0       -1.555694    1.987167    0.760581
      9         17           0        2.860125   -1.341400   -0.750663
     10         17           0        1.123461    0.054165    2.194505
     11          1           0       -3.476202   -0.645080   -0.205735
     12          1           0       -2.142330    2.911700    0.851781
     13          1           0       -1.276760    1.592035    1.733184
     14          1           0       -0.628655    2.302572    0.229228
     15          1           0       -2.830317    2.629568   -1.447168
     16          1           0       -1.733062    1.402118   -2.074811
     17          1           0       -3.456416    1.000920   -1.904289
     18          6           0       -2.625908   -0.580158    1.775862
     19          1           0       -3.353899    0.108884    2.217649
     20          1           0       -2.972372   -1.597034    1.974094
     21          1           0       -1.665982   -0.445565    2.278071
     22          6           0       -0.926962   -2.409073    0.360741
     23          1           0       -1.739959   -3.121639    0.535151
     24          1           0       -0.137087   -2.918289   -0.201508
     25          1           0       -0.506132   -2.099195    1.318198
     26          6           0       -1.899338   -1.714727   -1.832467
     27          1           0       -1.084106   -2.239290   -2.338322
     28          1           0       -2.740673   -2.405561   -1.707565
     29          1           0       -2.212448   -0.892867   -2.481273
 ---------------------------------------------------------------------
 Rotational constants (GHZ):           0.5671732           0.3669403           0.3330448
   427 basis functions,  1056 primitive gaussians,   461 cartesian basis functions
    77 alpha electrons       72 beta electrons
       nuclear repulsion energy      1664.9744962798 Hartrees.
 NAtoms=   29 NActive=   29 NUniq=   29 SFac= 1.00D+00 NAtFMM=   60 NAOKFM=F Big=F
 Nuclear repulsion after empirical dispersion term =     1664.8718133598 Hartrees.
 Initial guess from the checkpoint file:  "checkpoint.chk"
 B after Tr=     0.000000    0.000000    0.000000
         Rot=    1.000000    0.000000    0.000000    0.000000 Ang=   0.00 deg.
 Initial guess <Sx>= 0.0000 <Sy>= 0.0000 <Sz>= 2.5000 <S**2>= 8.7623 S= 2.5021
 EnCoef did     2 forward-backward iterations
 SCF Done:  E(UB97D3) =  -3034.60193564     A.U. after   16 cycles
            NFock= 16  Conv=0.60D-08     -V/T= 2.0020
 <Sx>= 0.0000 <Sy>= 0.0000 <Sz>= 2.5000 <S**2>= 8.7612 S= 2.5019
 <L.S>= 0.000000000000E+00
 Annihilation of the first spin contaminant:
 S**2 before annihilation     8.7612,   after     8.7500
 1\1\GINC-HOLY7C24302\SP\UB97D3\Jul-CC-pVDZ\C8H16Cl3Fe1O1(6)\EKWAN\11-F
 eb-2020\0\\#t pop=none jul-cc-pvdz guess=read ub97d3 empiricaldispersi
 on=gd3bj\\theory_abbreviation b97d3_d3bj\\0,6\O,0,-0.308594,-0.329598,
 -0.722366\C,0,-1.384113,-1.21353,-0.476706\C,0,-2.523054,-0.364855,0.2
 59885\C,0,-2.241891,1.049761,-0.120503\C,0,-2.631881,1.554424,-1.45332
 7\Fe,0,1.340983,0.066933,-0.031558\Cl,0,1.56304,2.196599,-0.727469\C,0
 ,-1.555694,1.987167,0.760581\Cl,0,2.860125,-1.341399,-0.750663\Cl,0,1.
 123461,0.054165,2.194505\H,0,-3.476202,-0.645081,-0.205735\H,0,-2.1423
 3,2.9117,0.851781\H,0,-1.27676,1.592035,1.733184\H,0,-0.628655,2.30257
 2,0.229228\H,0,-2.830317,2.629568,-1.447168\H,0,-1.733062,1.402118,-2.
 074811\H,0,-3.456416,1.000919,-1.904289\C,0,-2.625908,-0.580158,1.7758
 62\H,0,-3.353899,0.108883,2.217649\H,0,-2.972372,-1.597034,1.974094\H,
 0,-1.665982,-0.445565,2.278071\C,0,-0.926962,-2.409073,0.360741\H,0,-1
 .739958,-3.121639,0.535151\H,0,-0.137086,-2.918289,-0.201508\H,0,-0.50
 6132,-2.099195,1.318198\C,0,-1.899338,-1.714727,-1.832467\H,0,-1.08410
 6,-2.23929,-2.338322\H,0,-2.740673,-2.405561,-1.707565\H,0,-2.212448,-
 0.892867,-2.481273\\Version=ES64L-G16RevA.03\HF=-3034.6019356\S2=8.761
 2\S2-1=0.\S2A=8.75004\RMSD=5.958e-09\PG=C01 [X(C8H16Cl3Fe1O1)]\\@


 A MAN BEGINS CUTTING HIS WISDOM TEETH THE 1ST
 TIME HE BITES OFF MORE THAN HE CAN CHEW.
 Job cpu time:       0 days  0 hours 55 minutes 30.5 seconds.
 Elapsed time:       0 days  0 hours 14 minutes 38.8 seconds.
 File lengths (MBytes):  RWF=    174 Int=      0 D2E=      0 Chk=     13 Scr=      1
 Normal termination of Gaussian 16 at Tue Feb 11 23:05:53 2020.
