 Entering Gaussian System, Link 0=g16
 Input=simple-grid-300-295-b3lyp_d3bj-631gd-gas-singlepoint-DFT-juldz2-gas.gjf
 Output=simple-grid-300-295-b3lyp_d3bj-631gd-gas-singlepoint-DFT-juldz2-gas.out
 Initial command:
 /n/sw/g16_nehalem/g16/l1.exe "/scratch/Gau-10911.inp" -scrdir="/scratch/"
 Entering Link 1 = /n/sw/g16_nehalem/g16/l1.exe PID=     10914.
  
 Copyright (c) 1988,1990,1992,1993,1995,1998,2003,2009,2016,
            Gaussian, Inc.  All Rights Reserved.
  
 This is part of the Gaussian(R) 16 program.  It is based on
 the Gaussian(R) 09 system (copyright 2009, Gaussian, Inc.),
 the Gaussian(R) 03 system (copyright 2003, Gaussian, Inc.),
 the Gaussian(R) 98 system (copyright 1998, Gaussian, Inc.),
 the Gaussian(R) 94 system (copyright 1995, Gaussian, Inc.),
 the Gaussian 92(TM) system (copyright 1992, Gaussian, Inc.),
 the Gaussian 90(TM) system (copyright 1990, Gaussian, Inc.),
 the Gaussian 88(TM) system (copyright 1988, Gaussian, Inc.),
 the Gaussian 86(TM) system (copyright 1986, Carnegie Mellon
 University), and the Gaussian 82(TM) system (copyright 1983,
 Carnegie Mellon University). Gaussian is a federally registered
 trademark of Gaussian, Inc.
  
 This software contains proprietary and confidential information,
 including trade secrets, belonging to Gaussian, Inc.
  
 This software is provided under written license and may be
 used, copied, transmitted, or stored only in accord with that
 written license.
  
 The following legend is applicable only to US Government
 contracts under FAR:
  
                    RESTRICTED RIGHTS LEGEND
  
 Use, reproduction and disclosure by the US Government is
 subject to restrictions as set forth in subparagraphs (a)
 and (c) of the Commercial Computer Software - Restricted
 Rights clause in FAR 52.227-19.
  
 Gaussian, Inc.
 340 Quinnipiac St., Bldg. 40, Wallingford CT 06492
  
  
 ---------------------------------------------------------------
 Warning -- This program may not be used in any manner that
 competes with the business of Gaussian, Inc. or will provide
 assistance to any competitor of Gaussian, Inc.  The licensee
 of this program is prohibited from giving any competitor of
 Gaussian, Inc. access to this program.  By using this program,
 the user acknowledges that Gaussian, Inc. is engaged in the
 business of creating and licensing software in the field of
 computational chemistry and represents and warrants to the
 licensee that it is not a competitor of Gaussian, Inc. and that
 it will not use this program in any manner prohibited above.
 ---------------------------------------------------------------
  

 Cite this work as:
 Gaussian 16, Revision A.03,
 M. J. Frisch, G. W. Trucks, H. B. Schlegel, G. E. Scuseria, 
 M. A. Robb, J. R. Cheeseman, G. Scalmani, V. Barone, 
 G. A. Petersson, H. Nakatsuji, X. Li, M. Caricato, A. V. Marenich, 
 J. Bloino, B. G. Janesko, R. Gomperts, B. Mennucci, H. P. Hratchian, 
 J. V. Ortiz, A. F. Izmaylov, J. L. Sonnenberg, D. Williams-Young, 
 F. Ding, F. Lipparini, F. Egidi, J. Goings, B. Peng, A. Petrone, 
 T. Henderson, D. Ranasinghe, V. G. Zakrzewski, J. Gao, N. Rega, 
 G. Zheng, W. Liang, M. Hada, M. Ehara, K. Toyota, R. Fukuda, 
 J. Hasegawa, M. Ishida, T. Nakajima, Y. Honda, O. Kitao, H. Nakai, 
 T. Vreven, K. Throssell, J. A. Montgomery, Jr., J. E. Peralta, 
 F. Ogliaro, M. J. Bearpark, J. J. Heyd, E. N. Brothers, K. N. Kudin, 
 V. N. Staroverov, T. A. Keith, R. Kobayashi, J. Normand, 
 K. Raghavachari, A. P. Rendell, J. C. Burant, S. S. Iyengar, 
 J. Tomasi, M. Cossi, J. M. Millam, M. Klene, C. Adamo, R. Cammi, 
 J. W. Ochterski, R. L. Martin, K. Morokuma, O. Farkas, 
 J. B. Foresman, and D. J. Fox, Gaussian, Inc., Wallingford CT, 2016.
 
 ******************************************
 Gaussian 16:  ES64L-G16RevA.03 25-Dec-2016
                12-Feb-2020 
 ******************************************
 %chk=checkpoint.chk
 %mem=3GB
 %nprocshared=4
 Will use up to    4 processors via shared memory.
 --------------------------------
 #t pop=none jul-cc-pvdz upbe1pbe
 --------------------------------
 ------------------------
 theory_abbreviation pbe0
 ------------------------
 Symbolic Z-matrix:
 Charge =  0 Multiplicity = 6
 O                     0.15963   0.48215  -0.87752 
 C                     0.87664   1.47536  -0.64015 
 C                     3.20302   0.00789   0.55755 
 C                     2.68193  -0.92017  -0.266 
 C                     3.09901  -1.00337  -1.71168 
 Fe                   -1.48613  -0.18558   0.02304 
 Cl                   -2.05951  -1.94542  -1.11093 
 C                     1.72917  -2.00157   0.15994 
 Cl                   -2.7762    1.56419  -0.22444 
 Cl                   -1.01667  -0.5622    2.12924 
 H                     3.93763   0.69466   0.13317 
 H                     2.2228   -2.98009   0.08421 
 H                     1.36252  -1.88858   1.17999 
 H                     0.86481  -2.04706  -0.51383 
 H                     3.58441  -1.9676   -1.91274 
 H                     2.22495  -0.95613  -2.37447 
 H                     3.79976  -0.21045  -1.99065 
 C                     2.9835    0.1437    2.03871 
 H                     3.82925  -0.2835    2.5951 
 H                     2.91915   1.19709   2.33601 
 H                     2.07515  -0.35714   2.38239 
 C                     0.74717   2.24283   0.63596 
 H                     1.61026   2.88593   0.81397 
 H                    -0.14962   2.87263   0.53982 
 H                     0.58269   1.57428   1.48269 
 C                     1.72134   2.03375  -1.74041 
 H                     1.23548   2.95968  -2.08079 
 H                     2.71527   2.30211  -1.37593 
 H                     1.78771   1.33995  -2.57698 
 
                    Distance matrix (angstroms):
                    1          2          3          4          5
     1  O    0.000000
     2  C    1.247770   0.000000
     3  C    3.398030   3.000000   0.000000
     4  C    2.949994   3.022848   1.345753   0.000000
     5  C    3.397430   3.497312   2.486533   1.506935   0.000000
     6  Fe   1.991326   2.963312   4.723475   4.242151   4.970054
     7  Cl   3.297296   4.532593   5.856066   4.924059   5.278132
     8  C    3.115874   3.668244   2.523537   1.502870   2.525039
     9  Cl   3.196311   3.677493   6.227735   5.997079   6.581966
    10  Cl   3.393372   3.925022   4.538835   4.420973   5.646778
    11  H    3.916623   3.252251   1.091514   2.084171   2.643869
    12  H    4.143512   4.710400   3.180076   2.139331   2.810763
    13  H    3.361649   3.855528   2.715044   2.183933   3.487223
    14  H    2.650749   3.524708   3.292093   2.152494   2.741488
    15  H    4.336135   4.561303   3.185955   2.150189   1.098082
    16  H    2.928316   3.276880   3.237695   2.157719   1.097952
    17  H    3.869022   3.634618   2.626230   2.174318   1.094356
    18  C    4.073477   3.659021   1.503491   2.556261   3.923589
    19  H    5.109942   4.719993   2.151443   3.147639   4.427173
    20  H    4.295679   3.620324   2.158170   3.362958   4.610652
    21  H    3.873067   3.732318   2.176096   2.774737   4.269343
    22  C    2.394959   1.494728   3.321500   3.815941   4.645467
    23  H    3.277747   2.154609   3.299356   4.098921   4.870511
    24  H    2.796223   2.097109   4.409902   4.801280   5.535894
    25  H    2.634827   2.145370   3.189922   3.699591   4.814569
    26  C    2.364523   1.495286   3.402952   3.438342   3.335095
    27  H    2.956939   2.099387   4.420990   4.520941   4.394856
    28  H    3.176790   2.146032   3.039684   3.408240   3.344572
    29  H    2.504919   2.144690   3.688189   3.353856   2.821236
                    6          7          8          9         10
     6  Fe   0.000000
     7  Cl   2.170644   0.000000
     8  C    3.695224   3.996550   0.000000
     9  Cl   2.187978   3.690104   5.758539   0.000000
    10  Cl   2.190505   3.674175   3.672817   3.627298   0.000000
    11  H    5.495820   6.669595   3.485348   6.779339   5.487174
    12  H    4.644253   4.564765   1.098589   6.762817   4.530176
    13  H    3.514758   4.118481   1.089814   5.569837   2.884604
    14  H    3.046348   2.986395   1.096883   5.136328   3.568000
    15  H    5.712540   5.700634   2.781915   7.468683   6.283524
    16  H    4.484845   4.575131   2.786034   5.998841   5.562974
    17  H    5.656516   6.173748   3.481456   7.036484   6.347857
    18  C    4.914151   6.302115   3.115334   6.349311   4.062984
    19  H    5.905788   7.153619   3.645838   7.415914   4.876236
    20  H    5.164107   6.822302   4.047556   6.255208   4.316075
    21  H    4.275348   5.641040   2.786237   5.832892   3.108933
    22  C    3.355661   5.335780   4.382452   3.689845   3.634450
    23  H    4.432531   6.365092   4.932495   4.697480   4.529929
    24  H    3.377269   5.439324   5.237551   3.032330   3.882790
    25  H    3.083451   5.108460   3.981301   3.767828   2.745999
    26  C    4.280537   5.524930   4.460400   4.769329   5.404610
    27  H    4.661108   5.988126   5.466137   4.635408   5.932975
    28  H    5.079122   6.396119   4.674714   5.659217   5.866675
    29  H    4.450318   5.267264   4.319712   5.139454   5.799242
                   11         12         13         14         15
    11  H    0.000000
    12  H    4.055468   0.000000
    13  H    3.794752   1.769798   0.000000
    14  H    4.168671   1.752800   1.772526   0.000000
    15  H    3.376110   2.620481   3.808933   3.059322   0.000000
    16  H    3.456385   3.184577   3.774575   2.549918   1.756248
    17  H    2.312752   3.803000   4.336963   3.764053   1.772018
    18  C    2.201141   3.762555   2.737727   3.975391   4.520249
    19  H    2.651354   4.019564   3.265517   4.643654   4.818381
    20  H    2.478354   4.796279   3.644285   4.781877   5.339442
    21  H    3.103889   3.490455   2.073380   3.564942   4.829033
    22  C    3.581714   5.455348   4.212271   4.442864   5.680980
    23  H    3.268298   5.942884   4.794920   5.162664   5.906684
    24  H    4.649136   6.331681   5.036416   5.132500   6.586787
    25  H    3.721630   5.038643   3.562464   4.144847   5.751879
    26  C    3.196146   5.359033   4.903276   4.346392   4.417183
    27  H    4.163355   6.398666   5.844185   5.259302   5.461122
    28  H    2.520991   5.502377   5.091614   4.804447   4.390215
    29  H    3.519006   5.092539   4.971820   4.071875   3.822202
                   16         17         18         19         20
    16  H    0.000000
    17  H    1.784209   0.000000
    18  C    4.610985   4.126436   0.000000
    19  H    5.265252   4.586433   1.098806   0.000000
    20  H    5.225592   4.634285   1.096423   1.757143   0.000000
    21  H    4.796761   4.703116   1.092731   1.768491   1.769214
    22  C    4.634635   4.715504   3.372720   4.440704   2.949788
    23  H    5.030443   4.716708   3.302355   4.259295   2.623346
    24  H    5.365722   5.613038   4.417025   5.478751   3.930781
    25  H    4.896693   5.059532   2.849487   3.902429   2.515841
    26  C    3.097580   3.069016   4.409879   5.348790   4.330343
    27  H    4.049553   4.078405   5.287304   6.253786   5.044755
    28  H    3.442908   2.804805   4.048507   4.867791   3.878282
    29  H    2.346094   2.606885   4.915840   5.792572   5.043605
                   21         22         23         24         25
    21  H    0.000000
    22  C    3.401973   0.000000
    23  H    3.632290   1.090957   0.000000
    24  H    4.333132   1.100047   1.781154   0.000000
    25  H    2.601396   1.091318   1.795412   1.763800   0.000000
    26  C    4.779012   2.576786   2.695068   3.066532   3.449053
    27  H    5.623728   2.851846   2.919851   2.965408   3.878639
    28  H    4.648259   2.815072   2.521418   3.493304   3.639963
    29  H    5.249575   3.495835   3.730959   3.977026   4.241208
                   26         27         28         29
    26  C    0.000000
    27  H    1.099673   0.000000
    28  H    1.092141   1.766077   0.000000
    29  H    1.088857   1.781770   1.796844   0.000000
 Framework group  C1[X(C8H16Cl3FeO)]
 Deg. of freedom    81
                         Standard orientation:                         
 ---------------------------------------------------------------------
 Center     Atomic      Atomic             Coordinates (Angstroms)
 Number     Number       Type             X           Y           Z
 ---------------------------------------------------------------------
      1          8           0        0.159626    0.482149   -0.877524
      2          6           0        0.876641    1.475362   -0.640147
      3          6           0        3.203021    0.007886    0.557547
      4          6           0        2.681931   -0.920166   -0.266004
      5          6           0        3.099005   -1.003369   -1.711680
      6         26           0       -1.486125   -0.185584    0.023039
      7         17           0       -2.059514   -1.945421   -1.110934
      8          6           0        1.729171   -2.001571    0.159942
      9         17           0       -2.776201    1.564189   -0.224442
     10         17           0       -1.016672   -0.562198    2.129241
     11          1           0        3.937626    0.694660    0.133165
     12          1           0        2.222795   -2.980089    0.084211
     13          1           0        1.362522   -1.888582    1.179989
     14          1           0        0.864813   -2.047062   -0.513829
     15          1           0        3.584407   -1.967602   -1.912737
     16          1           0        2.224947   -0.956128   -2.374469
     17          1           0        3.799762   -0.210445   -1.990652
     18          6           0        2.983496    0.143704    2.038711
     19          1           0        3.829251   -0.283496    2.595104
     20          1           0        2.919146    1.197088    2.336005
     21          1           0        2.075145   -0.357141    2.382388
     22          6           0        0.747166    2.242833    0.635955
     23          1           0        1.610259    2.885925    0.813970
     24          1           0       -0.149619    2.872625    0.539816
     25          1           0        0.582689    1.574276    1.482686
     26          6           0        1.721339    2.033746   -1.740407
     27          1           0        1.235479    2.959684   -2.080789
     28          1           0        2.715274    2.302109   -1.375927
     29          1           0        1.787710    1.339949   -2.576977
 ---------------------------------------------------------------------
 Rotational constants (GHZ):           0.5608606           0.3180256           0.2993547
   427 basis functions,  1056 primitive gaussians,   461 cartesian basis functions
    77 alpha electrons       72 beta electrons
       nuclear repulsion energy      1614.1925783108 Hartrees.
 NAtoms=   29 NActive=   29 NUniq=   29 SFac= 1.00D+00 NAtFMM=   60 NAOKFM=F Big=F
 ExpMin= 1.40D-02 ExpMax= 4.32D+06 ExpMxC= 4.91D+03 IAcc=3 IRadAn=         5 AccDes= 0.00D+00
 Harris functional with IExCor= 1009 and IRadAn=       5 diagonalized for initial guess.
 HarFok:  IExCor= 1009 AccDes= 0.00D+00 IRadAn=         5 IDoV= 1 UseB2=F ITyADJ=14
 ICtDFT=  3500011 ScaDFX=  1.000000  1.000000  1.000000  1.000000
 FoFCou: FMM=F IPFlag=           0 FMFlag=      100000 FMFlg1=           0
         NFxFlg=           0 DoJE=T BraDBF=F KetDBF=T FulRan=T
         wScrn=  0.000000 ICntrl=       500 IOpCl=  0 I1Cent=   200000004 NGrid=           0
         NMat0=    1 NMatS0=      1 NMatT0=    0 NMatD0=    1 NMtDS0=    0 NMtDT0=    0
 Petite list used in FoFCou.
 Initial guess <Sx>= 0.0000 <Sy>= 0.0000 <Sz>= 2.5000 <S**2>= 8.7500 S= 2.5000
 EnCoef did   100 forward-backward iterations
 SCF Done:  E(UPBE1PBE) =  -3033.14039506     A.U. after   20 cycles
            NFock= 20  Conv=0.91D-08     -V/T= 2.0021
 <Sx>= 0.0000 <Sy>= 0.0000 <Sz>= 2.5000 <S**2>= 8.7630 S= 2.5022
 <L.S>= 0.000000000000E+00
 Annihilation of the first spin contaminant:
 S**2 before annihilation     8.7630,   after     8.7501
 1\1\GINC-HOLY7C06111\SP\UPBE1PBE\Jul-CC-pVDZ\C8H16Cl3Fe1O1(6)\EKWAN\12
 -Feb-2020\0\\#t pop=none jul-cc-pvdz upbe1pbe\\theory_abbreviation pbe
 0\\0,6\O,0,0.159626,0.482149,-0.877524\C,0,0.876641,1.475362,-0.640147
 \C,0,3.203021,0.007886,0.557547\C,0,2.681931,-0.920166,-0.266004\C,0,3
 .099005,-1.003369,-1.71168\Fe,0,-1.486125,-0.185584,0.023039\Cl,0,-2.0
 59514,-1.945421,-1.110934\C,0,1.729171,-2.001571,0.159942\Cl,0,-2.7762
 01,1.564189,-0.224442\Cl,0,-1.016672,-0.562198,2.129241\H,0,3.937626,0
 .69466,0.133165\H,0,2.222795,-2.980089,0.084211\H,0,1.362522,-1.888582
 ,1.179989\H,0,0.864813,-2.047062,-0.513829\H,0,3.584407,-1.967602,-1.9
 12737\H,0,2.224947,-0.956128,-2.374469\H,0,3.799762,-0.210445,-1.99065
 2\C,0,2.983496,0.143704,2.038711\H,0,3.829251,-0.283496,2.595104\H,0,2
 .919146,1.197088,2.336005\H,0,2.075145,-0.357141,2.382388\C,0,0.747166
 ,2.242833,0.635955\H,0,1.610259,2.885925,0.81397\H,0,-0.149619,2.87262
 5,0.539816\H,0,0.582689,1.574276,1.482686\C,0,1.721339,2.033746,-1.740
 407\H,0,1.235479,2.959684,-2.080789\H,0,2.715274,2.302109,-1.375927\H,
 0,1.78771,1.339949,-2.576977\\Version=ES64L-G16RevA.03\HF=-3033.140395
 1\S2=8.763004\S2-1=0.\S2A=8.750052\RMSD=9.068e-09\PG=C01 [X(C8H16Cl3Fe
 1O1)]\\@


 DO YOU KNOW THAT THE LETTERS IN "EPISCOPAL", WHEN
 REARRANGED, SPELL "PEPSI COLA"?
 Job cpu time:       0 days  1 hours 23 minutes 42.6 seconds.
 Elapsed time:       0 days  0 hours 20 minutes 59.5 seconds.
 File lengths (MBytes):  RWF=    173 Int=      0 D2E=      0 Chk=     13 Scr=      1
 Normal termination of Gaussian 16 at Wed Feb 12 15:27:43 2020.
 Initial command:
 /n/sw/g16_nehalem/g16/l1.exe "/scratch/Gau-10911.inp" -scrdir="/scratch/"
 Entering Link 1 = /n/sw/g16_nehalem/g16/l1.exe PID=     12308.
  
 Copyright (c) 1988,1990,1992,1993,1995,1998,2003,2009,2016,
            Gaussian, Inc.  All Rights Reserved.
  
 This is part of the Gaussian(R) 16 program.  It is based on
 the Gaussian(R) 09 system (copyright 2009, Gaussian, Inc.),
 the Gaussian(R) 03 system (copyright 2003, Gaussian, Inc.),
 the Gaussian(R) 98 system (copyright 1998, Gaussian, Inc.),
 the Gaussian(R) 94 system (copyright 1995, Gaussian, Inc.),
 the Gaussian 92(TM) system (copyright 1992, Gaussian, Inc.),
 the Gaussian 90(TM) system (copyright 1990, Gaussian, Inc.),
 the Gaussian 88(TM) system (copyright 1988, Gaussian, Inc.),
 the Gaussian 86(TM) system (copyright 1986, Carnegie Mellon
 University), and the Gaussian 82(TM) system (copyright 1983,
 Carnegie Mellon University). Gaussian is a federally registered
 trademark of Gaussian, Inc.
  
 This software contains proprietary and confidential information,
 including trade secrets, belonging to Gaussian, Inc.
  
 This software is provided under written license and may be
 used, copied, transmitted, or stored only in accord with that
 written license.
  
 The following legend is applicable only to US Government
 contracts under FAR:
  
                    RESTRICTED RIGHTS LEGEND
  
 Use, reproduction and disclosure by the US Government is
 subject to restrictions as set forth in subparagraphs (a)
 and (c) of the Commercial Computer Software - Restricted
 Rights clause in FAR 52.227-19.
  
 Gaussian, Inc.
 340 Quinnipiac St., Bldg. 40, Wallingford CT 06492
  
  
 ---------------------------------------------------------------
 Warning -- This program may not be used in any manner that
 competes with the business of Gaussian, Inc. or will provide
 assistance to any competitor of Gaussian, Inc.  The licensee
 of this program is prohibited from giving any competitor of
 Gaussian, Inc. access to this program.  By using this program,
 the user acknowledges that Gaussian, Inc. is engaged in the
 business of creating and licensing software in the field of
 computational chemistry and represents and warrants to the
 licensee that it is not a competitor of Gaussian, Inc. and that
 it will not use this program in any manner prohibited above.
 ---------------------------------------------------------------
  

 Cite this work as:
 Gaussian 16, Revision A.03,
 M. J. Frisch, G. W. Trucks, H. B. Schlegel, G. E. Scuseria, 
 M. A. Robb, J. R. Cheeseman, G. Scalmani, V. Barone, 
 G. A. Petersson, H. Nakatsuji, X. Li, M. Caricato, A. V. Marenich, 
 J. Bloino, B. G. Janesko, R. Gomperts, B. Mennucci, H. P. Hratchian, 
 J. V. Ortiz, A. F. Izmaylov, J. L. Sonnenberg, D. Williams-Young, 
 F. Ding, F. Lipparini, F. Egidi, J. Goings, B. Peng, A. Petrone, 
 T. Henderson, D. Ranasinghe, V. G. Zakrzewski, J. Gao, N. Rega, 
 G. Zheng, W. Liang, M. Hada, M. Ehara, K. Toyota, R. Fukuda, 
 J. Hasegawa, M. Ishida, T. Nakajima, Y. Honda, O. Kitao, H. Nakai, 
 T. Vreven, K. Throssell, J. A. Montgomery, Jr., J. E. Peralta, 
 F. Ogliaro, M. J. Bearpark, J. J. Heyd, E. N. Brothers, K. N. Kudin, 
 V. N. Staroverov, T. A. Keith, R. Kobayashi, J. Normand, 
 K. Raghavachari, A. P. Rendell, J. C. Burant, S. S. Iyengar, 
 J. Tomasi, M. Cossi, J. M. Millam, M. Klene, C. Adamo, R. Cammi, 
 J. W. Ochterski, R. L. Martin, K. Morokuma, O. Farkas, 
 J. B. Foresman, and D. J. Fox, Gaussian, Inc., Wallingford CT, 2016.
 
 ******************************************
 Gaussian 16:  ES64L-G16RevA.03 25-Dec-2016
                12-Feb-2020 
 ******************************************
 %chk=checkpoint.chk
 %mem=3GB
 %nprocshared=4
 Will use up to    4 processors via shared memory.
 ---------------------------------------------------------------------
 #t pop=none jul-cc-pvdz guess=read upbe1pbe empiricaldispersion=gd3bj
 ---------------------------------------------------------------------
 -----------------------------
 theory_abbreviation pbe0_d3bj
 -----------------------------
 Symbolic Z-matrix:
 Charge =  0 Multiplicity = 6
 O                     0.15963   0.48215  -0.87752 
 C                     0.87664   1.47536  -0.64015 
 C                     3.20302   0.00789   0.55755 
 C                     2.68193  -0.92017  -0.266 
 C                     3.09901  -1.00337  -1.71168 
 Fe                   -1.48613  -0.18558   0.02304 
 Cl                   -2.05951  -1.94542  -1.11093 
 C                     1.72917  -2.00157   0.15994 
 Cl                   -2.7762    1.56419  -0.22444 
 Cl                   -1.01667  -0.5622    2.12924 
 H                     3.93763   0.69466   0.13317 
 H                     2.2228   -2.98009   0.08421 
 H                     1.36252  -1.88858   1.17999 
 H                     0.86481  -2.04706  -0.51383 
 H                     3.58441  -1.9676   -1.91274 
 H                     2.22495  -0.95613  -2.37447 
 H                     3.79976  -0.21045  -1.99065 
 C                     2.9835    0.1437    2.03871 
 H                     3.82925  -0.2835    2.5951 
 H                     2.91915   1.19709   2.33601 
 H                     2.07515  -0.35714   2.38239 
 C                     0.74717   2.24283   0.63596 
 H                     1.61026   2.88593   0.81397 
 H                    -0.14962   2.87263   0.53982 
 H                     0.58269   1.57428   1.48269 
 C                     1.72134   2.03375  -1.74041 
 H                     1.23548   2.95968  -2.08079 
 H                     2.71527   2.30211  -1.37593 
 H                     1.78771   1.33995  -2.57698 
 
                    Distance matrix (angstroms):
                    1          2          3          4          5
     1  O    0.000000
     2  C    1.247770   0.000000
     3  C    3.398030   3.000000   0.000000
     4  C    2.949994   3.022848   1.345753   0.000000
     5  C    3.397430   3.497312   2.486533   1.506935   0.000000
     6  Fe   1.991326   2.963312   4.723475   4.242151   4.970054
     7  Cl   3.297296   4.532593   5.856066   4.924059   5.278132
     8  C    3.115874   3.668244   2.523537   1.502870   2.525039
     9  Cl   3.196311   3.677493   6.227735   5.997079   6.581966
    10  Cl   3.393372   3.925022   4.538835   4.420973   5.646778
    11  H    3.916623   3.252251   1.091514   2.084171   2.643869
    12  H    4.143512   4.710400   3.180076   2.139331   2.810763
    13  H    3.361649   3.855528   2.715044   2.183933   3.487223
    14  H    2.650749   3.524708   3.292093   2.152494   2.741488
    15  H    4.336135   4.561303   3.185955   2.150189   1.098082
    16  H    2.928316   3.276880   3.237695   2.157719   1.097952
    17  H    3.869022   3.634618   2.626230   2.174318   1.094356
    18  C    4.073477   3.659021   1.503491   2.556261   3.923589
    19  H    5.109942   4.719993   2.151443   3.147639   4.427173
    20  H    4.295679   3.620324   2.158170   3.362958   4.610652
    21  H    3.873067   3.732318   2.176096   2.774737   4.269343
    22  C    2.394959   1.494728   3.321500   3.815941   4.645467
    23  H    3.277747   2.154609   3.299356   4.098921   4.870511
    24  H    2.796223   2.097109   4.409902   4.801280   5.535894
    25  H    2.634827   2.145370   3.189922   3.699591   4.814569
    26  C    2.364523   1.495286   3.402952   3.438342   3.335095
    27  H    2.956939   2.099387   4.420990   4.520941   4.394856
    28  H    3.176790   2.146032   3.039684   3.408240   3.344572
    29  H    2.504919   2.144690   3.688189   3.353856   2.821236
                    6          7          8          9         10
     6  Fe   0.000000
     7  Cl   2.170644   0.000000
     8  C    3.695224   3.996550   0.000000
     9  Cl   2.187978   3.690104   5.758539   0.000000
    10  Cl   2.190505   3.674175   3.672817   3.627298   0.000000
    11  H    5.495820   6.669595   3.485348   6.779339   5.487174
    12  H    4.644253   4.564765   1.098589   6.762817   4.530176
    13  H    3.514758   4.118481   1.089814   5.569837   2.884604
    14  H    3.046348   2.986395   1.096883   5.136328   3.568000
    15  H    5.712540   5.700634   2.781915   7.468683   6.283524
    16  H    4.484845   4.575131   2.786034   5.998841   5.562974
    17  H    5.656516   6.173748   3.481456   7.036484   6.347857
    18  C    4.914151   6.302115   3.115334   6.349311   4.062984
    19  H    5.905788   7.153619   3.645838   7.415914   4.876236
    20  H    5.164107   6.822302   4.047556   6.255208   4.316075
    21  H    4.275348   5.641040   2.786237   5.832892   3.108933
    22  C    3.355661   5.335780   4.382452   3.689845   3.634450
    23  H    4.432531   6.365092   4.932495   4.697480   4.529929
    24  H    3.377269   5.439324   5.237551   3.032330   3.882790
    25  H    3.083451   5.108460   3.981301   3.767828   2.745999
    26  C    4.280537   5.524930   4.460400   4.769329   5.404610
    27  H    4.661108   5.988126   5.466137   4.635408   5.932975
    28  H    5.079122   6.396119   4.674714   5.659217   5.866675
    29  H    4.450318   5.267264   4.319712   5.139454   5.799242
                   11         12         13         14         15
    11  H    0.000000
    12  H    4.055468   0.000000
    13  H    3.794752   1.769798   0.000000
    14  H    4.168671   1.752800   1.772526   0.000000
    15  H    3.376110   2.620481   3.808933   3.059322   0.000000
    16  H    3.456385   3.184577   3.774575   2.549918   1.756248
    17  H    2.312752   3.803000   4.336963   3.764053   1.772018
    18  C    2.201141   3.762555   2.737727   3.975391   4.520249
    19  H    2.651354   4.019564   3.265517   4.643654   4.818381
    20  H    2.478354   4.796279   3.644285   4.781877   5.339442
    21  H    3.103889   3.490455   2.073380   3.564942   4.829033
    22  C    3.581714   5.455348   4.212271   4.442864   5.680980
    23  H    3.268298   5.942884   4.794920   5.162664   5.906684
    24  H    4.649136   6.331681   5.036416   5.132500   6.586787
    25  H    3.721630   5.038643   3.562464   4.144847   5.751879
    26  C    3.196146   5.359033   4.903276   4.346392   4.417183
    27  H    4.163355   6.398666   5.844185   5.259302   5.461122
    28  H    2.520991   5.502377   5.091614   4.804447   4.390215
    29  H    3.519006   5.092539   4.971820   4.071875   3.822202
                   16         17         18         19         20
    16  H    0.000000
    17  H    1.784209   0.000000
    18  C    4.610985   4.126436   0.000000
    19  H    5.265252   4.586433   1.098806   0.000000
    20  H    5.225592   4.634285   1.096423   1.757143   0.000000
    21  H    4.796761   4.703116   1.092731   1.768491   1.769214
    22  C    4.634635   4.715504   3.372720   4.440704   2.949788
    23  H    5.030443   4.716708   3.302355   4.259295   2.623346
    24  H    5.365722   5.613038   4.417025   5.478751   3.930781
    25  H    4.896693   5.059532   2.849487   3.902429   2.515841
    26  C    3.097580   3.069016   4.409879   5.348790   4.330343
    27  H    4.049553   4.078405   5.287304   6.253786   5.044755
    28  H    3.442908   2.804805   4.048507   4.867791   3.878282
    29  H    2.346094   2.606885   4.915840   5.792572   5.043605
                   21         22         23         24         25
    21  H    0.000000
    22  C    3.401973   0.000000
    23  H    3.632290   1.090957   0.000000
    24  H    4.333132   1.100047   1.781154   0.000000
    25  H    2.601396   1.091318   1.795412   1.763800   0.000000
    26  C    4.779012   2.576786   2.695068   3.066532   3.449053
    27  H    5.623728   2.851846   2.919851   2.965408   3.878639
    28  H    4.648259   2.815072   2.521418   3.493304   3.639963
    29  H    5.249575   3.495835   3.730959   3.977026   4.241208
                   26         27         28         29
    26  C    0.000000
    27  H    1.099673   0.000000
    28  H    1.092141   1.766077   0.000000
    29  H    1.088857   1.781770   1.796844   0.000000
 Framework group  C1[X(C8H16Cl3FeO)]
 Deg. of freedom    81
                         Standard orientation:                         
 ---------------------------------------------------------------------
 Center     Atomic      Atomic             Coordinates (Angstroms)
 Number     Number       Type             X           Y           Z
 ---------------------------------------------------------------------
      1          8           0        0.159626    0.482149   -0.877524
      2          6           0        0.876641    1.475362   -0.640147
      3          6           0        3.203021    0.007886    0.557547
      4          6           0        2.681931   -0.920166   -0.266004
      5          6           0        3.099005   -1.003369   -1.711680
      6         26           0       -1.486125   -0.185584    0.023039
      7         17           0       -2.059514   -1.945421   -1.110934
      8          6           0        1.729171   -2.001571    0.159942
      9         17           0       -2.776201    1.564189   -0.224442
     10         17           0       -1.016672   -0.562198    2.129241
     11          1           0        3.937626    0.694660    0.133165
     12          1           0        2.222795   -2.980089    0.084211
     13          1           0        1.362522   -1.888582    1.179989
     14          1           0        0.864813   -2.047062   -0.513829
     15          1           0        3.584407   -1.967602   -1.912737
     16          1           0        2.224947   -0.956128   -2.374469
     17          1           0        3.799762   -0.210445   -1.990652
     18          6           0        2.983496    0.143704    2.038711
     19          1           0        3.829251   -0.283496    2.595104
     20          1           0        2.919146    1.197088    2.336005
     21          1           0        2.075145   -0.357141    2.382388
     22          6           0        0.747166    2.242833    0.635955
     23          1           0        1.610259    2.885925    0.813970
     24          1           0       -0.149619    2.872625    0.539816
     25          1           0        0.582689    1.574276    1.482686
     26          6           0        1.721339    2.033746   -1.740407
     27          1           0        1.235479    2.959684   -2.080789
     28          1           0        2.715274    2.302109   -1.375927
     29          1           0        1.787710    1.339949   -2.576977
 ---------------------------------------------------------------------
 Rotational constants (GHZ):           0.5608606           0.3180256           0.2993547
   427 basis functions,  1056 primitive gaussians,   461 cartesian basis functions
    77 alpha electrons       72 beta electrons
       nuclear repulsion energy      1614.1925783108 Hartrees.
 NAtoms=   29 NActive=   29 NUniq=   29 SFac= 1.00D+00 NAtFMM=   60 NAOKFM=F Big=F
 Nuclear repulsion after empirical dispersion term =     1614.1568202172 Hartrees.
 Initial guess from the checkpoint file:  "checkpoint.chk"
 B after Tr=     0.000000    0.000000    0.000000
         Rot=    1.000000    0.000000    0.000000    0.000000 Ang=   0.00 deg.
 Initial guess <Sx>= 0.0000 <Sy>= 0.0000 <Sz>= 2.5000 <S**2>= 8.7630 S= 2.5022
 SCF Done:  E(UPBE1PBE) =  -3033.17615316     A.U. after    1 cycles
            NFock=  1  Conv=0.42D-08     -V/T= 2.0021
 <Sx>= 0.0000 <Sy>= 0.0000 <Sz>= 2.5000 <S**2>= 8.7630 S= 2.5022
 <L.S>= 0.000000000000E+00
 Annihilation of the first spin contaminant:
 S**2 before annihilation     8.7630,   after     8.7501
 1\1\GINC-HOLY7C06111\SP\UPBE1PBE\Jul-CC-pVDZ\C8H16Cl3Fe1O1(6)\EKWAN\12
 -Feb-2020\0\\#t pop=none jul-cc-pvdz guess=read upbe1pbe empiricaldisp
 ersion=gd3bj\\theory_abbreviation pbe0_d3bj\\0,6\O,0,0.159626,0.482149
 ,-0.877524\C,0,0.876641,1.475362,-0.640147\C,0,3.203021,0.007886,0.557
 547\C,0,2.681931,-0.920166,-0.266004\C,0,3.099005,-1.003369,-1.71168\F
 e,0,-1.486125,-0.185584,0.023039\Cl,0,-2.059514,-1.945421,-1.110934\C,
 0,1.729171,-2.001571,0.159942\Cl,0,-2.776201,1.564189,-0.224442\Cl,0,-
 1.016672,-0.562198,2.129241\H,0,3.937626,0.69466,0.133165\H,0,2.222795
 ,-2.980089,0.084211\H,0,1.362522,-1.888582,1.179989\H,0,0.864813,-2.04
 7062,-0.513829\H,0,3.584407,-1.967602,-1.912737\H,0,2.224947,-0.956128
 ,-2.374469\H,0,3.799762,-0.210445,-1.990652\C,0,2.983496,0.143704,2.03
 8711\H,0,3.829251,-0.283496,2.595104\H,0,2.919146,1.197088,2.336005\H,
 0,2.075145,-0.357141,2.382388\C,0,0.747166,2.242833,0.635955\H,0,1.610
 259,2.885925,0.81397\H,0,-0.149619,2.872625,0.539816\H,0,0.582689,1.57
 4276,1.482686\C,0,1.721339,2.033746,-1.740407\H,0,1.235479,2.959684,-2
 .080789\H,0,2.715274,2.302109,-1.375927\H,0,1.78771,1.339949,-2.576977
 \\Version=ES64L-G16RevA.03\HF=-3033.1761532\S2=8.763004\S2-1=0.\S2A=8.
 750052\RMSD=4.172e-09\PG=C01 [X(C8H16Cl3Fe1O1)]\\@


 KNOWLEDGE IS OF TWO KINDS:  WE KNOW A SUBJECT OURSELVES OR WE KNOW 
 WHERE WE CAN FIND INFORMATION UPON IT.

                                    -- SAMUEL JOHNSON
 Job cpu time:       0 days  0 hours  4 minutes 35.6 seconds.
 Elapsed time:       0 days  0 hours  1 minutes 10.7 seconds.
 File lengths (MBytes):  RWF=    170 Int=      0 D2E=      0 Chk=     13 Scr=      1
 Normal termination of Gaussian 16 at Wed Feb 12 15:28:55 2020.
 Initial command:
 /n/sw/g16_nehalem/g16/l1.exe "/scratch/Gau-10911.inp" -scrdir="/scratch/"
 Entering Link 1 = /n/sw/g16_nehalem/g16/l1.exe PID=     12845.
  
 Copyright (c) 1988,1990,1992,1993,1995,1998,2003,2009,2016,
            Gaussian, Inc.  All Rights Reserved.
  
 This is part of the Gaussian(R) 16 program.  It is based on
 the Gaussian(R) 09 system (copyright 2009, Gaussian, Inc.),
 the Gaussian(R) 03 system (copyright 2003, Gaussian, Inc.),
 the Gaussian(R) 98 system (copyright 1998, Gaussian, Inc.),
 the Gaussian(R) 94 system (copyright 1995, Gaussian, Inc.),
 the Gaussian 92(TM) system (copyright 1992, Gaussian, Inc.),
 the Gaussian 90(TM) system (copyright 1990, Gaussian, Inc.),
 the Gaussian 88(TM) system (copyright 1988, Gaussian, Inc.),
 the Gaussian 86(TM) system (copyright 1986, Carnegie Mellon
 University), and the Gaussian 82(TM) system (copyright 1983,
 Carnegie Mellon University). Gaussian is a federally registered
 trademark of Gaussian, Inc.
  
 This software contains proprietary and confidential information,
 including trade secrets, belonging to Gaussian, Inc.
  
 This software is provided under written license and may be
 used, copied, transmitted, or stored only in accord with that
 written license.
  
 The following legend is applicable only to US Government
 contracts under FAR:
  
                    RESTRICTED RIGHTS LEGEND
  
 Use, reproduction and disclosure by the US Government is
 subject to restrictions as set forth in subparagraphs (a)
 and (c) of the Commercial Computer Software - Restricted
 Rights clause in FAR 52.227-19.
  
 Gaussian, Inc.
 340 Quinnipiac St., Bldg. 40, Wallingford CT 06492
  
  
 ---------------------------------------------------------------
 Warning -- This program may not be used in any manner that
 competes with the business of Gaussian, Inc. or will provide
 assistance to any competitor of Gaussian, Inc.  The licensee
 of this program is prohibited from giving any competitor of
 Gaussian, Inc. access to this program.  By using this program,
 the user acknowledges that Gaussian, Inc. is engaged in the
 business of creating and licensing software in the field of
 computational chemistry and represents and warrants to the
 licensee that it is not a competitor of Gaussian, Inc. and that
 it will not use this program in any manner prohibited above.
 ---------------------------------------------------------------
  

 Cite this work as:
 Gaussian 16, Revision A.03,
 M. J. Frisch, G. W. Trucks, H. B. Schlegel, G. E. Scuseria, 
 M. A. Robb, J. R. Cheeseman, G. Scalmani, V. Barone, 
 G. A. Petersson, H. Nakatsuji, X. Li, M. Caricato, A. V. Marenich, 
 J. Bloino, B. G. Janesko, R. Gomperts, B. Mennucci, H. P. Hratchian, 
 J. V. Ortiz, A. F. Izmaylov, J. L. Sonnenberg, D. Williams-Young, 
 F. Ding, F. Lipparini, F. Egidi, J. Goings, B. Peng, A. Petrone, 
 T. Henderson, D. Ranasinghe, V. G. Zakrzewski, J. Gao, N. Rega, 
 G. Zheng, W. Liang, M. Hada, M. Ehara, K. Toyota, R. Fukuda, 
 J. Hasegawa, M. Ishida, T. Nakajima, Y. Honda, O. Kitao, H. Nakai, 
 T. Vreven, K. Throssell, J. A. Montgomery, Jr., J. E. Peralta, 
 F. Ogliaro, M. J. Bearpark, J. J. Heyd, E. N. Brothers, K. N. Kudin, 
 V. N. Staroverov, T. A. Keith, R. Kobayashi, J. Normand, 
 K. Raghavachari, A. P. Rendell, J. C. Burant, S. S. Iyengar, 
 J. Tomasi, M. Cossi, J. M. Millam, M. Klene, C. Adamo, R. Cammi, 
 J. W. Ochterski, R. L. Martin, K. Morokuma, O. Farkas, 
 J. B. Foresman, and D. J. Fox, Gaussian, Inc., Wallingford CT, 2016.
 
 ******************************************
 Gaussian 16:  ES64L-G16RevA.03 25-Dec-2016
                12-Feb-2020 
 ******************************************
 %chk=checkpoint.chk
 %mem=3GB
 %nprocshared=4
 Will use up to    4 processors via shared memory.
 -----------------------------------------
 #t pop=none jul-cc-pvdz guess=read ub3lyp
 -----------------------------------------
 -------------------------
 theory_abbreviation b3lyp
 -------------------------
 Symbolic Z-matrix:
 Charge =  0 Multiplicity = 6
 O                     0.15963   0.48215  -0.87752 
 C                     0.87664   1.47536  -0.64015 
 C                     3.20302   0.00789   0.55755 
 C                     2.68193  -0.92017  -0.266 
 C                     3.09901  -1.00337  -1.71168 
 Fe                   -1.48613  -0.18558   0.02304 
 Cl                   -2.05951  -1.94542  -1.11093 
 C                     1.72917  -2.00157   0.15994 
 Cl                   -2.7762    1.56419  -0.22444 
 Cl                   -1.01667  -0.5622    2.12924 
 H                     3.93763   0.69466   0.13317 
 H                     2.2228   -2.98009   0.08421 
 H                     1.36252  -1.88858   1.17999 
 H                     0.86481  -2.04706  -0.51383 
 H                     3.58441  -1.9676   -1.91274 
 H                     2.22495  -0.95613  -2.37447 
 H                     3.79976  -0.21045  -1.99065 
 C                     2.9835    0.1437    2.03871 
 H                     3.82925  -0.2835    2.5951 
 H                     2.91915   1.19709   2.33601 
 H                     2.07515  -0.35714   2.38239 
 C                     0.74717   2.24283   0.63596 
 H                     1.61026   2.88593   0.81397 
 H                    -0.14962   2.87263   0.53982 
 H                     0.58269   1.57428   1.48269 
 C                     1.72134   2.03375  -1.74041 
 H                     1.23548   2.95968  -2.08079 
 H                     2.71527   2.30211  -1.37593 
 H                     1.78771   1.33995  -2.57698 
 
                    Distance matrix (angstroms):
                    1          2          3          4          5
     1  O    0.000000
     2  C    1.247770   0.000000
     3  C    3.398030   3.000000   0.000000
     4  C    2.949994   3.022848   1.345753   0.000000
     5  C    3.397430   3.497312   2.486533   1.506935   0.000000
     6  Fe   1.991326   2.963312   4.723475   4.242151   4.970054
     7  Cl   3.297296   4.532593   5.856066   4.924059   5.278132
     8  C    3.115874   3.668244   2.523537   1.502870   2.525039
     9  Cl   3.196311   3.677493   6.227735   5.997079   6.581966
    10  Cl   3.393372   3.925022   4.538835   4.420973   5.646778
    11  H    3.916623   3.252251   1.091514   2.084171   2.643869
    12  H    4.143512   4.710400   3.180076   2.139331   2.810763
    13  H    3.361649   3.855528   2.715044   2.183933   3.487223
    14  H    2.650749   3.524708   3.292093   2.152494   2.741488
    15  H    4.336135   4.561303   3.185955   2.150189   1.098082
    16  H    2.928316   3.276880   3.237695   2.157719   1.097952
    17  H    3.869022   3.634618   2.626230   2.174318   1.094356
    18  C    4.073477   3.659021   1.503491   2.556261   3.923589
    19  H    5.109942   4.719993   2.151443   3.147639   4.427173
    20  H    4.295679   3.620324   2.158170   3.362958   4.610652
    21  H    3.873067   3.732318   2.176096   2.774737   4.269343
    22  C    2.394959   1.494728   3.321500   3.815941   4.645467
    23  H    3.277747   2.154609   3.299356   4.098921   4.870511
    24  H    2.796223   2.097109   4.409902   4.801280   5.535894
    25  H    2.634827   2.145370   3.189922   3.699591   4.814569
    26  C    2.364523   1.495286   3.402952   3.438342   3.335095
    27  H    2.956939   2.099387   4.420990   4.520941   4.394856
    28  H    3.176790   2.146032   3.039684   3.408240   3.344572
    29  H    2.504919   2.144690   3.688189   3.353856   2.821236
                    6          7          8          9         10
     6  Fe   0.000000
     7  Cl   2.170644   0.000000
     8  C    3.695224   3.996550   0.000000
     9  Cl   2.187978   3.690104   5.758539   0.000000
    10  Cl   2.190505   3.674175   3.672817   3.627298   0.000000
    11  H    5.495820   6.669595   3.485348   6.779339   5.487174
    12  H    4.644253   4.564765   1.098589   6.762817   4.530176
    13  H    3.514758   4.118481   1.089814   5.569837   2.884604
    14  H    3.046348   2.986395   1.096883   5.136328   3.568000
    15  H    5.712540   5.700634   2.781915   7.468683   6.283524
    16  H    4.484845   4.575131   2.786034   5.998841   5.562974
    17  H    5.656516   6.173748   3.481456   7.036484   6.347857
    18  C    4.914151   6.302115   3.115334   6.349311   4.062984
    19  H    5.905788   7.153619   3.645838   7.415914   4.876236
    20  H    5.164107   6.822302   4.047556   6.255208   4.316075
    21  H    4.275348   5.641040   2.786237   5.832892   3.108933
    22  C    3.355661   5.335780   4.382452   3.689845   3.634450
    23  H    4.432531   6.365092   4.932495   4.697480   4.529929
    24  H    3.377269   5.439324   5.237551   3.032330   3.882790
    25  H    3.083451   5.108460   3.981301   3.767828   2.745999
    26  C    4.280537   5.524930   4.460400   4.769329   5.404610
    27  H    4.661108   5.988126   5.466137   4.635408   5.932975
    28  H    5.079122   6.396119   4.674714   5.659217   5.866675
    29  H    4.450318   5.267264   4.319712   5.139454   5.799242
                   11         12         13         14         15
    11  H    0.000000
    12  H    4.055468   0.000000
    13  H    3.794752   1.769798   0.000000
    14  H    4.168671   1.752800   1.772526   0.000000
    15  H    3.376110   2.620481   3.808933   3.059322   0.000000
    16  H    3.456385   3.184577   3.774575   2.549918   1.756248
    17  H    2.312752   3.803000   4.336963   3.764053   1.772018
    18  C    2.201141   3.762555   2.737727   3.975391   4.520249
    19  H    2.651354   4.019564   3.265517   4.643654   4.818381
    20  H    2.478354   4.796279   3.644285   4.781877   5.339442
    21  H    3.103889   3.490455   2.073380   3.564942   4.829033
    22  C    3.581714   5.455348   4.212271   4.442864   5.680980
    23  H    3.268298   5.942884   4.794920   5.162664   5.906684
    24  H    4.649136   6.331681   5.036416   5.132500   6.586787
    25  H    3.721630   5.038643   3.562464   4.144847   5.751879
    26  C    3.196146   5.359033   4.903276   4.346392   4.417183
    27  H    4.163355   6.398666   5.844185   5.259302   5.461122
    28  H    2.520991   5.502377   5.091614   4.804447   4.390215
    29  H    3.519006   5.092539   4.971820   4.071875   3.822202
                   16         17         18         19         20
    16  H    0.000000
    17  H    1.784209   0.000000
    18  C    4.610985   4.126436   0.000000
    19  H    5.265252   4.586433   1.098806   0.000000
    20  H    5.225592   4.634285   1.096423   1.757143   0.000000
    21  H    4.796761   4.703116   1.092731   1.768491   1.769214
    22  C    4.634635   4.715504   3.372720   4.440704   2.949788
    23  H    5.030443   4.716708   3.302355   4.259295   2.623346
    24  H    5.365722   5.613038   4.417025   5.478751   3.930781
    25  H    4.896693   5.059532   2.849487   3.902429   2.515841
    26  C    3.097580   3.069016   4.409879   5.348790   4.330343
    27  H    4.049553   4.078405   5.287304   6.253786   5.044755
    28  H    3.442908   2.804805   4.048507   4.867791   3.878282
    29  H    2.346094   2.606885   4.915840   5.792572   5.043605
                   21         22         23         24         25
    21  H    0.000000
    22  C    3.401973   0.000000
    23  H    3.632290   1.090957   0.000000
    24  H    4.333132   1.100047   1.781154   0.000000
    25  H    2.601396   1.091318   1.795412   1.763800   0.000000
    26  C    4.779012   2.576786   2.695068   3.066532   3.449053
    27  H    5.623728   2.851846   2.919851   2.965408   3.878639
    28  H    4.648259   2.815072   2.521418   3.493304   3.639963
    29  H    5.249575   3.495835   3.730959   3.977026   4.241208
                   26         27         28         29
    26  C    0.000000
    27  H    1.099673   0.000000
    28  H    1.092141   1.766077   0.000000
    29  H    1.088857   1.781770   1.796844   0.000000
 Framework group  C1[X(C8H16Cl3FeO)]
 Deg. of freedom    81
                         Standard orientation:                         
 ---------------------------------------------------------------------
 Center     Atomic      Atomic             Coordinates (Angstroms)
 Number     Number       Type             X           Y           Z
 ---------------------------------------------------------------------
      1          8           0        0.159626    0.482149   -0.877524
      2          6           0        0.876641    1.475362   -0.640147
      3          6           0        3.203021    0.007886    0.557547
      4          6           0        2.681931   -0.920166   -0.266004
      5          6           0        3.099005   -1.003369   -1.711680
      6         26           0       -1.486125   -0.185584    0.023039
      7         17           0       -2.059514   -1.945421   -1.110934
      8          6           0        1.729171   -2.001571    0.159942
      9         17           0       -2.776201    1.564189   -0.224442
     10         17           0       -1.016672   -0.562198    2.129241
     11          1           0        3.937626    0.694660    0.133165
     12          1           0        2.222795   -2.980089    0.084211
     13          1           0        1.362522   -1.888582    1.179989
     14          1           0        0.864813   -2.047062   -0.513829
     15          1           0        3.584407   -1.967602   -1.912737
     16          1           0        2.224947   -0.956128   -2.374469
     17          1           0        3.799762   -0.210445   -1.990652
     18          6           0        2.983496    0.143704    2.038711
     19          1           0        3.829251   -0.283496    2.595104
     20          1           0        2.919146    1.197088    2.336005
     21          1           0        2.075145   -0.357141    2.382388
     22          6           0        0.747166    2.242833    0.635955
     23          1           0        1.610259    2.885925    0.813970
     24          1           0       -0.149619    2.872625    0.539816
     25          1           0        0.582689    1.574276    1.482686
     26          6           0        1.721339    2.033746   -1.740407
     27          1           0        1.235479    2.959684   -2.080789
     28          1           0        2.715274    2.302109   -1.375927
     29          1           0        1.787710    1.339949   -2.576977
 ---------------------------------------------------------------------
 Rotational constants (GHZ):           0.5608606           0.3180256           0.2993547
   427 basis functions,  1056 primitive gaussians,   461 cartesian basis functions
    77 alpha electrons       72 beta electrons
       nuclear repulsion energy      1614.1925783108 Hartrees.
 NAtoms=   29 NActive=   29 NUniq=   29 SFac= 1.00D+00 NAtFMM=   60 NAOKFM=F Big=F
 Initial guess from the checkpoint file:  "checkpoint.chk"
 B after Tr=     0.000000    0.000000    0.000000
         Rot=    1.000000    0.000000    0.000000    0.000000 Ang=   0.00 deg.
 Initial guess <Sx>= 0.0000 <Sy>= 0.0000 <Sz>= 2.5000 <S**2>= 8.7630 S= 2.5022
 SCF Done:  E(UB3LYP) =  -3034.35947186     A.U. after   13 cycles
            NFock= 13  Conv=0.86D-08     -V/T= 2.0024
 <Sx>= 0.0000 <Sy>= 0.0000 <Sz>= 2.5000 <S**2>= 8.7623 S= 2.5020
 <L.S>= 0.000000000000E+00
 Annihilation of the first spin contaminant:
 S**2 before annihilation     8.7623,   after     8.7500
 1\1\GINC-HOLY7C06111\SP\UB3LYP\Jul-CC-pVDZ\C8H16Cl3Fe1O1(6)\EKWAN\12-F
 eb-2020\0\\#t pop=none jul-cc-pvdz guess=read ub3lyp\\theory_abbreviat
 ion b3lyp\\0,6\O,0,0.159626,0.482149,-0.877524\C,0,0.876641,1.475362,-
 0.640147\C,0,3.203021,0.007886,0.557547\C,0,2.681931,-0.920166,-0.2660
 04\C,0,3.099005,-1.003369,-1.71168\Fe,0,-1.486125,-0.185584,0.023039\C
 l,0,-2.059514,-1.945421,-1.110934\C,0,1.729171,-2.001571,0.159942\Cl,0
 ,-2.776201,1.564189,-0.224442\Cl,0,-1.016672,-0.562198,2.129241\H,0,3.
 937626,0.69466,0.133165\H,0,2.222795,-2.980089,0.084211\H,0,1.362522,-
 1.888582,1.179989\H,0,0.864813,-2.047062,-0.513829\H,0,3.584407,-1.967
 602,-1.912737\H,0,2.224947,-0.956128,-2.374469\H,0,3.799762,-0.210445,
 -1.990652\C,0,2.983496,0.143704,2.038711\H,0,3.829251,-0.283496,2.5951
 04\H,0,2.919146,1.197088,2.336005\H,0,2.075145,-0.357141,2.382388\C,0,
 0.747166,2.242833,0.635955\H,0,1.610259,2.885925,0.81397\H,0,-0.149619
 ,2.872625,0.539816\H,0,0.582689,1.574276,1.482686\C,0,1.721339,2.03374
 6,-1.740407\H,0,1.235479,2.959684,-2.080789\H,0,2.715274,2.302109,-1.3
 75927\H,0,1.78771,1.339949,-2.576977\\Version=ES64L-G16RevA.03\HF=-303
 4.3594719\S2=8.762285\S2-1=0.\S2A=8.750047\RMSD=8.598e-09\PG=C01 [X(C8
 H16Cl3Fe1O1)]\\@


 ALTHOUGH J.J. COULD DIAGNOSE THE FAULTS OF AN
 APPARATUS WITH UNCANNY ACCURACY, IT WAS JUST AS
 WELL NOT TO LET HIM HANDLE IT.
   -- GEORGE THOMPSON, ABOUT HIS FATHER
 Job cpu time:       0 days  0 hours 53 minutes 45.3 seconds.
 Elapsed time:       0 days  0 hours 13 minutes 29.4 seconds.
 File lengths (MBytes):  RWF=    174 Int=      0 D2E=      0 Chk=     13 Scr=      1
 Normal termination of Gaussian 16 at Wed Feb 12 15:42:25 2020.
 Initial command:
 /n/sw/g16_nehalem/g16/l1.exe "/scratch/Gau-10911.inp" -scrdir="/scratch/"
 Entering Link 1 = /n/sw/g16_nehalem/g16/l1.exe PID=     14773.
  
 Copyright (c) 1988,1990,1992,1993,1995,1998,2003,2009,2016,
            Gaussian, Inc.  All Rights Reserved.
  
 This is part of the Gaussian(R) 16 program.  It is based on
 the Gaussian(R) 09 system (copyright 2009, Gaussian, Inc.),
 the Gaussian(R) 03 system (copyright 2003, Gaussian, Inc.),
 the Gaussian(R) 98 system (copyright 1998, Gaussian, Inc.),
 the Gaussian(R) 94 system (copyright 1995, Gaussian, Inc.),
 the Gaussian 92(TM) system (copyright 1992, Gaussian, Inc.),
 the Gaussian 90(TM) system (copyright 1990, Gaussian, Inc.),
 the Gaussian 88(TM) system (copyright 1988, Gaussian, Inc.),
 the Gaussian 86(TM) system (copyright 1986, Carnegie Mellon
 University), and the Gaussian 82(TM) system (copyright 1983,
 Carnegie Mellon University). Gaussian is a federally registered
 trademark of Gaussian, Inc.
  
 This software contains proprietary and confidential information,
 including trade secrets, belonging to Gaussian, Inc.
  
 This software is provided under written license and may be
 used, copied, transmitted, or stored only in accord with that
 written license.
  
 The following legend is applicable only to US Government
 contracts under FAR:
  
                    RESTRICTED RIGHTS LEGEND
  
 Use, reproduction and disclosure by the US Government is
 subject to restrictions as set forth in subparagraphs (a)
 and (c) of the Commercial Computer Software - Restricted
 Rights clause in FAR 52.227-19.
  
 Gaussian, Inc.
 340 Quinnipiac St., Bldg. 40, Wallingford CT 06492
  
  
 ---------------------------------------------------------------
 Warning -- This program may not be used in any manner that
 competes with the business of Gaussian, Inc. or will provide
 assistance to any competitor of Gaussian, Inc.  The licensee
 of this program is prohibited from giving any competitor of
 Gaussian, Inc. access to this program.  By using this program,
 the user acknowledges that Gaussian, Inc. is engaged in the
 business of creating and licensing software in the field of
 computational chemistry and represents and warrants to the
 licensee that it is not a competitor of Gaussian, Inc. and that
 it will not use this program in any manner prohibited above.
 ---------------------------------------------------------------
  

 Cite this work as:
 Gaussian 16, Revision A.03,
 M. J. Frisch, G. W. Trucks, H. B. Schlegel, G. E. Scuseria, 
 M. A. Robb, J. R. Cheeseman, G. Scalmani, V. Barone, 
 G. A. Petersson, H. Nakatsuji, X. Li, M. Caricato, A. V. Marenich, 
 J. Bloino, B. G. Janesko, R. Gomperts, B. Mennucci, H. P. Hratchian, 
 J. V. Ortiz, A. F. Izmaylov, J. L. Sonnenberg, D. Williams-Young, 
 F. Ding, F. Lipparini, F. Egidi, J. Goings, B. Peng, A. Petrone, 
 T. Henderson, D. Ranasinghe, V. G. Zakrzewski, J. Gao, N. Rega, 
 G. Zheng, W. Liang, M. Hada, M. Ehara, K. Toyota, R. Fukuda, 
 J. Hasegawa, M. Ishida, T. Nakajima, Y. Honda, O. Kitao, H. Nakai, 
 T. Vreven, K. Throssell, J. A. Montgomery, Jr., J. E. Peralta, 
 F. Ogliaro, M. J. Bearpark, J. J. Heyd, E. N. Brothers, K. N. Kudin, 
 V. N. Staroverov, T. A. Keith, R. Kobayashi, J. Normand, 
 K. Raghavachari, A. P. Rendell, J. C. Burant, S. S. Iyengar, 
 J. Tomasi, M. Cossi, J. M. Millam, M. Klene, C. Adamo, R. Cammi, 
 J. W. Ochterski, R. L. Martin, K. Morokuma, O. Farkas, 
 J. B. Foresman, and D. J. Fox, Gaussian, Inc., Wallingford CT, 2016.
 
 ******************************************
 Gaussian 16:  ES64L-G16RevA.03 25-Dec-2016
                12-Feb-2020 
 ******************************************
 %chk=checkpoint.chk
 %mem=3GB
 %nprocshared=4
 Will use up to    4 processors via shared memory.
 -------------------------------------------------------------------
 #t pop=none jul-cc-pvdz guess=read ub3lyp empiricaldispersion=gd3bj
 -------------------------------------------------------------------
 ------------------------------
 theory_abbreviation b3lyp_d3bj
 ------------------------------
 Symbolic Z-matrix:
 Charge =  0 Multiplicity = 6
 O                     0.15963   0.48215  -0.87752 
 C                     0.87664   1.47536  -0.64015 
 C                     3.20302   0.00789   0.55755 
 C                     2.68193  -0.92017  -0.266 
 C                     3.09901  -1.00337  -1.71168 
 Fe                   -1.48613  -0.18558   0.02304 
 Cl                   -2.05951  -1.94542  -1.11093 
 C                     1.72917  -2.00157   0.15994 
 Cl                   -2.7762    1.56419  -0.22444 
 Cl                   -1.01667  -0.5622    2.12924 
 H                     3.93763   0.69466   0.13317 
 H                     2.2228   -2.98009   0.08421 
 H                     1.36252  -1.88858   1.17999 
 H                     0.86481  -2.04706  -0.51383 
 H                     3.58441  -1.9676   -1.91274 
 H                     2.22495  -0.95613  -2.37447 
 H                     3.79976  -0.21045  -1.99065 
 C                     2.9835    0.1437    2.03871 
 H                     3.82925  -0.2835    2.5951 
 H                     2.91915   1.19709   2.33601 
 H                     2.07515  -0.35714   2.38239 
 C                     0.74717   2.24283   0.63596 
 H                     1.61026   2.88593   0.81397 
 H                    -0.14962   2.87263   0.53982 
 H                     0.58269   1.57428   1.48269 
 C                     1.72134   2.03375  -1.74041 
 H                     1.23548   2.95968  -2.08079 
 H                     2.71527   2.30211  -1.37593 
 H                     1.78771   1.33995  -2.57698 
 
                    Distance matrix (angstroms):
                    1          2          3          4          5
     1  O    0.000000
     2  C    1.247770   0.000000
     3  C    3.398030   3.000000   0.000000
     4  C    2.949994   3.022848   1.345753   0.000000
     5  C    3.397430   3.497312   2.486533   1.506935   0.000000
     6  Fe   1.991326   2.963312   4.723475   4.242151   4.970054
     7  Cl   3.297296   4.532593   5.856066   4.924059   5.278132
     8  C    3.115874   3.668244   2.523537   1.502870   2.525039
     9  Cl   3.196311   3.677493   6.227735   5.997079   6.581966
    10  Cl   3.393372   3.925022   4.538835   4.420973   5.646778
    11  H    3.916623   3.252251   1.091514   2.084171   2.643869
    12  H    4.143512   4.710400   3.180076   2.139331   2.810763
    13  H    3.361649   3.855528   2.715044   2.183933   3.487223
    14  H    2.650749   3.524708   3.292093   2.152494   2.741488
    15  H    4.336135   4.561303   3.185955   2.150189   1.098082
    16  H    2.928316   3.276880   3.237695   2.157719   1.097952
    17  H    3.869022   3.634618   2.626230   2.174318   1.094356
    18  C    4.073477   3.659021   1.503491   2.556261   3.923589
    19  H    5.109942   4.719993   2.151443   3.147639   4.427173
    20  H    4.295679   3.620324   2.158170   3.362958   4.610652
    21  H    3.873067   3.732318   2.176096   2.774737   4.269343
    22  C    2.394959   1.494728   3.321500   3.815941   4.645467
    23  H    3.277747   2.154609   3.299356   4.098921   4.870511
    24  H    2.796223   2.097109   4.409902   4.801280   5.535894
    25  H    2.634827   2.145370   3.189922   3.699591   4.814569
    26  C    2.364523   1.495286   3.402952   3.438342   3.335095
    27  H    2.956939   2.099387   4.420990   4.520941   4.394856
    28  H    3.176790   2.146032   3.039684   3.408240   3.344572
    29  H    2.504919   2.144690   3.688189   3.353856   2.821236
                    6          7          8          9         10
     6  Fe   0.000000
     7  Cl   2.170644   0.000000
     8  C    3.695224   3.996550   0.000000
     9  Cl   2.187978   3.690104   5.758539   0.000000
    10  Cl   2.190505   3.674175   3.672817   3.627298   0.000000
    11  H    5.495820   6.669595   3.485348   6.779339   5.487174
    12  H    4.644253   4.564765   1.098589   6.762817   4.530176
    13  H    3.514758   4.118481   1.089814   5.569837   2.884604
    14  H    3.046348   2.986395   1.096883   5.136328   3.568000
    15  H    5.712540   5.700634   2.781915   7.468683   6.283524
    16  H    4.484845   4.575131   2.786034   5.998841   5.562974
    17  H    5.656516   6.173748   3.481456   7.036484   6.347857
    18  C    4.914151   6.302115   3.115334   6.349311   4.062984
    19  H    5.905788   7.153619   3.645838   7.415914   4.876236
    20  H    5.164107   6.822302   4.047556   6.255208   4.316075
    21  H    4.275348   5.641040   2.786237   5.832892   3.108933
    22  C    3.355661   5.335780   4.382452   3.689845   3.634450
    23  H    4.432531   6.365092   4.932495   4.697480   4.529929
    24  H    3.377269   5.439324   5.237551   3.032330   3.882790
    25  H    3.083451   5.108460   3.981301   3.767828   2.745999
    26  C    4.280537   5.524930   4.460400   4.769329   5.404610
    27  H    4.661108   5.988126   5.466137   4.635408   5.932975
    28  H    5.079122   6.396119   4.674714   5.659217   5.866675
    29  H    4.450318   5.267264   4.319712   5.139454   5.799242
                   11         12         13         14         15
    11  H    0.000000
    12  H    4.055468   0.000000
    13  H    3.794752   1.769798   0.000000
    14  H    4.168671   1.752800   1.772526   0.000000
    15  H    3.376110   2.620481   3.808933   3.059322   0.000000
    16  H    3.456385   3.184577   3.774575   2.549918   1.756248
    17  H    2.312752   3.803000   4.336963   3.764053   1.772018
    18  C    2.201141   3.762555   2.737727   3.975391   4.520249
    19  H    2.651354   4.019564   3.265517   4.643654   4.818381
    20  H    2.478354   4.796279   3.644285   4.781877   5.339442
    21  H    3.103889   3.490455   2.073380   3.564942   4.829033
    22  C    3.581714   5.455348   4.212271   4.442864   5.680980
    23  H    3.268298   5.942884   4.794920   5.162664   5.906684
    24  H    4.649136   6.331681   5.036416   5.132500   6.586787
    25  H    3.721630   5.038643   3.562464   4.144847   5.751879
    26  C    3.196146   5.359033   4.903276   4.346392   4.417183
    27  H    4.163355   6.398666   5.844185   5.259302   5.461122
    28  H    2.520991   5.502377   5.091614   4.804447   4.390215
    29  H    3.519006   5.092539   4.971820   4.071875   3.822202
                   16         17         18         19         20
    16  H    0.000000
    17  H    1.784209   0.000000
    18  C    4.610985   4.126436   0.000000
    19  H    5.265252   4.586433   1.098806   0.000000
    20  H    5.225592   4.634285   1.096423   1.757143   0.000000
    21  H    4.796761   4.703116   1.092731   1.768491   1.769214
    22  C    4.634635   4.715504   3.372720   4.440704   2.949788
    23  H    5.030443   4.716708   3.302355   4.259295   2.623346
    24  H    5.365722   5.613038   4.417025   5.478751   3.930781
    25  H    4.896693   5.059532   2.849487   3.902429   2.515841
    26  C    3.097580   3.069016   4.409879   5.348790   4.330343
    27  H    4.049553   4.078405   5.287304   6.253786   5.044755
    28  H    3.442908   2.804805   4.048507   4.867791   3.878282
    29  H    2.346094   2.606885   4.915840   5.792572   5.043605
                   21         22         23         24         25
    21  H    0.000000
    22  C    3.401973   0.000000
    23  H    3.632290   1.090957   0.000000
    24  H    4.333132   1.100047   1.781154   0.000000
    25  H    2.601396   1.091318   1.795412   1.763800   0.000000
    26  C    4.779012   2.576786   2.695068   3.066532   3.449053
    27  H    5.623728   2.851846   2.919851   2.965408   3.878639
    28  H    4.648259   2.815072   2.521418   3.493304   3.639963
    29  H    5.249575   3.495835   3.730959   3.977026   4.241208
                   26         27         28         29
    26  C    0.000000
    27  H    1.099673   0.000000
    28  H    1.092141   1.766077   0.000000
    29  H    1.088857   1.781770   1.796844   0.000000
 Framework group  C1[X(C8H16Cl3FeO)]
 Deg. of freedom    81
                         Standard orientation:                         
 ---------------------------------------------------------------------
 Center     Atomic      Atomic             Coordinates (Angstroms)
 Number     Number       Type             X           Y           Z
 ---------------------------------------------------------------------
      1          8           0        0.159626    0.482149   -0.877524
      2          6           0        0.876641    1.475362   -0.640147
      3          6           0        3.203021    0.007886    0.557547
      4          6           0        2.681931   -0.920166   -0.266004
      5          6           0        3.099005   -1.003369   -1.711680
      6         26           0       -1.486125   -0.185584    0.023039
      7         17           0       -2.059514   -1.945421   -1.110934
      8          6           0        1.729171   -2.001571    0.159942
      9         17           0       -2.776201    1.564189   -0.224442
     10         17           0       -1.016672   -0.562198    2.129241
     11          1           0        3.937626    0.694660    0.133165
     12          1           0        2.222795   -2.980089    0.084211
     13          1           0        1.362522   -1.888582    1.179989
     14          1           0        0.864813   -2.047062   -0.513829
     15          1           0        3.584407   -1.967602   -1.912737
     16          1           0        2.224947   -0.956128   -2.374469
     17          1           0        3.799762   -0.210445   -1.990652
     18          6           0        2.983496    0.143704    2.038711
     19          1           0        3.829251   -0.283496    2.595104
     20          1           0        2.919146    1.197088    2.336005
     21          1           0        2.075145   -0.357141    2.382388
     22          6           0        0.747166    2.242833    0.635955
     23          1           0        1.610259    2.885925    0.813970
     24          1           0       -0.149619    2.872625    0.539816
     25          1           0        0.582689    1.574276    1.482686
     26          6           0        1.721339    2.033746   -1.740407
     27          1           0        1.235479    2.959684   -2.080789
     28          1           0        2.715274    2.302109   -1.375927
     29          1           0        1.787710    1.339949   -2.576977
 ---------------------------------------------------------------------
 Rotational constants (GHZ):           0.5608606           0.3180256           0.2993547
   427 basis functions,  1056 primitive gaussians,   461 cartesian basis functions
    77 alpha electrons       72 beta electrons
       nuclear repulsion energy      1614.1925783108 Hartrees.
 NAtoms=   29 NActive=   29 NUniq=   29 SFac= 1.00D+00 NAtFMM=   60 NAOKFM=F Big=F
 Nuclear repulsion after empirical dispersion term =     1614.1265509765 Hartrees.
 Initial guess from the checkpoint file:  "checkpoint.chk"
 B after Tr=     0.000000    0.000000    0.000000
         Rot=    1.000000    0.000000    0.000000    0.000000 Ang=   0.00 deg.
 Initial guess <Sx>= 0.0000 <Sy>= 0.0000 <Sz>= 2.5000 <S**2>= 8.7623 S= 2.5020
 SCF Done:  E(UB3LYP) =  -3034.42549920     A.U. after    1 cycles
            NFock=  1  Conv=0.75D-08     -V/T= 2.0024
 <Sx>= 0.0000 <Sy>= 0.0000 <Sz>= 2.5000 <S**2>= 8.7623 S= 2.5020
 <L.S>= 0.000000000000E+00
 Annihilation of the first spin contaminant:
 S**2 before annihilation     8.7623,   after     8.7500
 1\1\GINC-HOLY7C06111\SP\UB3LYP\Jul-CC-pVDZ\C8H16Cl3Fe1O1(6)\EKWAN\12-F
 eb-2020\0\\#t pop=none jul-cc-pvdz guess=read ub3lyp empiricaldispersi
 on=gd3bj\\theory_abbreviation b3lyp_d3bj\\0,6\O,0,0.159626,0.482149,-0
 .877524\C,0,0.876641,1.475362,-0.640147\C,0,3.203021,0.007886,0.557547
 \C,0,2.681931,-0.920166,-0.266004\C,0,3.099005,-1.003369,-1.71168\Fe,0
 ,-1.486125,-0.185584,0.023039\Cl,0,-2.059514,-1.945421,-1.110934\C,0,1
 .729171,-2.001571,0.159942\Cl,0,-2.776201,1.564189,-0.224442\Cl,0,-1.0
 16672,-0.562198,2.129241\H,0,3.937626,0.69466,0.133165\H,0,2.222795,-2
 .980089,0.084211\H,0,1.362522,-1.888582,1.179989\H,0,0.864813,-2.04706
 2,-0.513829\H,0,3.584407,-1.967602,-1.912737\H,0,2.224947,-0.956128,-2
 .374469\H,0,3.799762,-0.210445,-1.990652\C,0,2.983496,0.143704,2.03871
 1\H,0,3.829251,-0.283496,2.595104\H,0,2.919146,1.197088,2.336005\H,0,2
 .075145,-0.357141,2.382388\C,0,0.747166,2.242833,0.635955\H,0,1.610259
 ,2.885925,0.81397\H,0,-0.149619,2.872625,0.539816\H,0,0.582689,1.57427
 6,1.482686\C,0,1.721339,2.033746,-1.740407\H,0,1.235479,2.959684,-2.08
 0789\H,0,2.715274,2.302109,-1.375927\H,0,1.78771,1.339949,-2.576977\\V
 ersion=ES64L-G16RevA.03\HF=-3034.4254992\S2=8.762285\S2-1=0.\S2A=8.750
 047\RMSD=7.536e-09\PG=C01 [X(C8H16Cl3Fe1O1)]\\@


 THERE'S NOTHING WRONG WITH FOLLOWING A TRAIN OF THOUGHT...
 AS LONG AS IT ULTIMATELY PULLS INTO THE STATION.
 Job cpu time:       0 days  0 hours  4 minutes 35.1 seconds.
 Elapsed time:       0 days  0 hours  1 minutes  9.3 seconds.
 File lengths (MBytes):  RWF=    170 Int=      0 D2E=      0 Chk=     13 Scr=      1
 Normal termination of Gaussian 16 at Wed Feb 12 15:43:35 2020.
 Initial command:
 /n/sw/g16_nehalem/g16/l1.exe "/scratch/Gau-10911.inp" -scrdir="/scratch/"
 Entering Link 1 = /n/sw/g16_nehalem/g16/l1.exe PID=     14887.
  
 Copyright (c) 1988,1990,1992,1993,1995,1998,2003,2009,2016,
            Gaussian, Inc.  All Rights Reserved.
  
 This is part of the Gaussian(R) 16 program.  It is based on
 the Gaussian(R) 09 system (copyright 2009, Gaussian, Inc.),
 the Gaussian(R) 03 system (copyright 2003, Gaussian, Inc.),
 the Gaussian(R) 98 system (copyright 1998, Gaussian, Inc.),
 the Gaussian(R) 94 system (copyright 1995, Gaussian, Inc.),
 the Gaussian 92(TM) system (copyright 1992, Gaussian, Inc.),
 the Gaussian 90(TM) system (copyright 1990, Gaussian, Inc.),
 the Gaussian 88(TM) system (copyright 1988, Gaussian, Inc.),
 the Gaussian 86(TM) system (copyright 1986, Carnegie Mellon
 University), and the Gaussian 82(TM) system (copyright 1983,
 Carnegie Mellon University). Gaussian is a federally registered
 trademark of Gaussian, Inc.
  
 This software contains proprietary and confidential information,
 including trade secrets, belonging to Gaussian, Inc.
  
 This software is provided under written license and may be
 used, copied, transmitted, or stored only in accord with that
 written license.
  
 The following legend is applicable only to US Government
 contracts under FAR:
  
                    RESTRICTED RIGHTS LEGEND
  
 Use, reproduction and disclosure by the US Government is
 subject to restrictions as set forth in subparagraphs (a)
 and (c) of the Commercial Computer Software - Restricted
 Rights clause in FAR 52.227-19.
  
 Gaussian, Inc.
 340 Quinnipiac St., Bldg. 40, Wallingford CT 06492
  
  
 ---------------------------------------------------------------
 Warning -- This program may not be used in any manner that
 competes with the business of Gaussian, Inc. or will provide
 assistance to any competitor of Gaussian, Inc.  The licensee
 of this program is prohibited from giving any competitor of
 Gaussian, Inc. access to this program.  By using this program,
 the user acknowledges that Gaussian, Inc. is engaged in the
 business of creating and licensing software in the field of
 computational chemistry and represents and warrants to the
 licensee that it is not a competitor of Gaussian, Inc. and that
 it will not use this program in any manner prohibited above.
 ---------------------------------------------------------------
  

 Cite this work as:
 Gaussian 16, Revision A.03,
 M. J. Frisch, G. W. Trucks, H. B. Schlegel, G. E. Scuseria, 
 M. A. Robb, J. R. Cheeseman, G. Scalmani, V. Barone, 
 G. A. Petersson, H. Nakatsuji, X. Li, M. Caricato, A. V. Marenich, 
 J. Bloino, B. G. Janesko, R. Gomperts, B. Mennucci, H. P. Hratchian, 
 J. V. Ortiz, A. F. Izmaylov, J. L. Sonnenberg, D. Williams-Young, 
 F. Ding, F. Lipparini, F. Egidi, J. Goings, B. Peng, A. Petrone, 
 T. Henderson, D. Ranasinghe, V. G. Zakrzewski, J. Gao, N. Rega, 
 G. Zheng, W. Liang, M. Hada, M. Ehara, K. Toyota, R. Fukuda, 
 J. Hasegawa, M. Ishida, T. Nakajima, Y. Honda, O. Kitao, H. Nakai, 
 T. Vreven, K. Throssell, J. A. Montgomery, Jr., J. E. Peralta, 
 F. Ogliaro, M. J. Bearpark, J. J. Heyd, E. N. Brothers, K. N. Kudin, 
 V. N. Staroverov, T. A. Keith, R. Kobayashi, J. Normand, 
 K. Raghavachari, A. P. Rendell, J. C. Burant, S. S. Iyengar, 
 J. Tomasi, M. Cossi, J. M. Millam, M. Klene, C. Adamo, R. Cammi, 
 J. W. Ochterski, R. L. Martin, K. Morokuma, O. Farkas, 
 J. B. Foresman, and D. J. Fox, Gaussian, Inc., Wallingford CT, 2016.
 
 ******************************************
 Gaussian 16:  ES64L-G16RevA.03 25-Dec-2016
                12-Feb-2020 
 ******************************************
 %chk=checkpoint.chk
 %mem=3GB
 %nprocshared=4
 Will use up to    4 processors via shared memory.
 ----------------------------------------
 #t pop=none jul-cc-pvdz guess=read ub97d
 ----------------------------------------
 ------------------------
 theory_abbreviation b97d
 ------------------------
 Symbolic Z-matrix:
 Charge =  0 Multiplicity = 6
 O                     0.15963   0.48215  -0.87752 
 C                     0.87664   1.47536  -0.64015 
 C                     3.20302   0.00789   0.55755 
 C                     2.68193  -0.92017  -0.266 
 C                     3.09901  -1.00337  -1.71168 
 Fe                   -1.48613  -0.18558   0.02304 
 Cl                   -2.05951  -1.94542  -1.11093 
 C                     1.72917  -2.00157   0.15994 
 Cl                   -2.7762    1.56419  -0.22444 
 Cl                   -1.01667  -0.5622    2.12924 
 H                     3.93763   0.69466   0.13317 
 H                     2.2228   -2.98009   0.08421 
 H                     1.36252  -1.88858   1.17999 
 H                     0.86481  -2.04706  -0.51383 
 H                     3.58441  -1.9676   -1.91274 
 H                     2.22495  -0.95613  -2.37447 
 H                     3.79976  -0.21045  -1.99065 
 C                     2.9835    0.1437    2.03871 
 H                     3.82925  -0.2835    2.5951 
 H                     2.91915   1.19709   2.33601 
 H                     2.07515  -0.35714   2.38239 
 C                     0.74717   2.24283   0.63596 
 H                     1.61026   2.88593   0.81397 
 H                    -0.14962   2.87263   0.53982 
 H                     0.58269   1.57428   1.48269 
 C                     1.72134   2.03375  -1.74041 
 H                     1.23548   2.95968  -2.08079 
 H                     2.71527   2.30211  -1.37593 
 H                     1.78771   1.33995  -2.57698 
 
                    Distance matrix (angstroms):
                    1          2          3          4          5
     1  O    0.000000
     2  C    1.247770   0.000000
     3  C    3.398030   3.000000   0.000000
     4  C    2.949994   3.022848   1.345753   0.000000
     5  C    3.397430   3.497312   2.486533   1.506935   0.000000
     6  Fe   1.991326   2.963312   4.723475   4.242151   4.970054
     7  Cl   3.297296   4.532593   5.856066   4.924059   5.278132
     8  C    3.115874   3.668244   2.523537   1.502870   2.525039
     9  Cl   3.196311   3.677493   6.227735   5.997079   6.581966
    10  Cl   3.393372   3.925022   4.538835   4.420973   5.646778
    11  H    3.916623   3.252251   1.091514   2.084171   2.643869
    12  H    4.143512   4.710400   3.180076   2.139331   2.810763
    13  H    3.361649   3.855528   2.715044   2.183933   3.487223
    14  H    2.650749   3.524708   3.292093   2.152494   2.741488
    15  H    4.336135   4.561303   3.185955   2.150189   1.098082
    16  H    2.928316   3.276880   3.237695   2.157719   1.097952
    17  H    3.869022   3.634618   2.626230   2.174318   1.094356
    18  C    4.073477   3.659021   1.503491   2.556261   3.923589
    19  H    5.109942   4.719993   2.151443   3.147639   4.427173
    20  H    4.295679   3.620324   2.158170   3.362958   4.610652
    21  H    3.873067   3.732318   2.176096   2.774737   4.269343
    22  C    2.394959   1.494728   3.321500   3.815941   4.645467
    23  H    3.277747   2.154609   3.299356   4.098921   4.870511
    24  H    2.796223   2.097109   4.409902   4.801280   5.535894
    25  H    2.634827   2.145370   3.189922   3.699591   4.814569
    26  C    2.364523   1.495286   3.402952   3.438342   3.335095
    27  H    2.956939   2.099387   4.420990   4.520941   4.394856
    28  H    3.176790   2.146032   3.039684   3.408240   3.344572
    29  H    2.504919   2.144690   3.688189   3.353856   2.821236
                    6          7          8          9         10
     6  Fe   0.000000
     7  Cl   2.170644   0.000000
     8  C    3.695224   3.996550   0.000000
     9  Cl   2.187978   3.690104   5.758539   0.000000
    10  Cl   2.190505   3.674175   3.672817   3.627298   0.000000
    11  H    5.495820   6.669595   3.485348   6.779339   5.487174
    12  H    4.644253   4.564765   1.098589   6.762817   4.530176
    13  H    3.514758   4.118481   1.089814   5.569837   2.884604
    14  H    3.046348   2.986395   1.096883   5.136328   3.568000
    15  H    5.712540   5.700634   2.781915   7.468683   6.283524
    16  H    4.484845   4.575131   2.786034   5.998841   5.562974
    17  H    5.656516   6.173748   3.481456   7.036484   6.347857
    18  C    4.914151   6.302115   3.115334   6.349311   4.062984
    19  H    5.905788   7.153619   3.645838   7.415914   4.876236
    20  H    5.164107   6.822302   4.047556   6.255208   4.316075
    21  H    4.275348   5.641040   2.786237   5.832892   3.108933
    22  C    3.355661   5.335780   4.382452   3.689845   3.634450
    23  H    4.432531   6.365092   4.932495   4.697480   4.529929
    24  H    3.377269   5.439324   5.237551   3.032330   3.882790
    25  H    3.083451   5.108460   3.981301   3.767828   2.745999
    26  C    4.280537   5.524930   4.460400   4.769329   5.404610
    27  H    4.661108   5.988126   5.466137   4.635408   5.932975
    28  H    5.079122   6.396119   4.674714   5.659217   5.866675
    29  H    4.450318   5.267264   4.319712   5.139454   5.799242
                   11         12         13         14         15
    11  H    0.000000
    12  H    4.055468   0.000000
    13  H    3.794752   1.769798   0.000000
    14  H    4.168671   1.752800   1.772526   0.000000
    15  H    3.376110   2.620481   3.808933   3.059322   0.000000
    16  H    3.456385   3.184577   3.774575   2.549918   1.756248
    17  H    2.312752   3.803000   4.336963   3.764053   1.772018
    18  C    2.201141   3.762555   2.737727   3.975391   4.520249
    19  H    2.651354   4.019564   3.265517   4.643654   4.818381
    20  H    2.478354   4.796279   3.644285   4.781877   5.339442
    21  H    3.103889   3.490455   2.073380   3.564942   4.829033
    22  C    3.581714   5.455348   4.212271   4.442864   5.680980
    23  H    3.268298   5.942884   4.794920   5.162664   5.906684
    24  H    4.649136   6.331681   5.036416   5.132500   6.586787
    25  H    3.721630   5.038643   3.562464   4.144847   5.751879
    26  C    3.196146   5.359033   4.903276   4.346392   4.417183
    27  H    4.163355   6.398666   5.844185   5.259302   5.461122
    28  H    2.520991   5.502377   5.091614   4.804447   4.390215
    29  H    3.519006   5.092539   4.971820   4.071875   3.822202
                   16         17         18         19         20
    16  H    0.000000
    17  H    1.784209   0.000000
    18  C    4.610985   4.126436   0.000000
    19  H    5.265252   4.586433   1.098806   0.000000
    20  H    5.225592   4.634285   1.096423   1.757143   0.000000
    21  H    4.796761   4.703116   1.092731   1.768491   1.769214
    22  C    4.634635   4.715504   3.372720   4.440704   2.949788
    23  H    5.030443   4.716708   3.302355   4.259295   2.623346
    24  H    5.365722   5.613038   4.417025   5.478751   3.930781
    25  H    4.896693   5.059532   2.849487   3.902429   2.515841
    26  C    3.097580   3.069016   4.409879   5.348790   4.330343
    27  H    4.049553   4.078405   5.287304   6.253786   5.044755
[...]
 Rotational constants (GHZ):           0.5608606           0.3180256           0.2993547
   427 basis functions,  1056 primitive gaussians,   461 cartesian basis functions
    77 alpha electrons       72 beta electrons
       nuclear repulsion energy      1614.1925783108 Hartrees.
 NAtoms=   29 NActive=   29 NUniq=   29 SFac= 1.00D+00 NAtFMM=   60 NAOKFM=F Big=F
 Nuclear repulsion after empirical dispersion term =     1614.1900718351 Hartrees.
 Initial guess from the checkpoint file:  "checkpoint.chk"
 B after Tr=     0.000000    0.000000    0.000000
         Rot=    1.000000    0.000000    0.000000    0.000000 Ang=   0.00 deg.
 Initial guess <Sx>= 0.0000 <Sy>= 0.0000 <Sz>= 2.5000 <S**2>= 8.7619 S= 2.5020
 SCF Done:  E(UM06L) =  -3034.22571597     A.U. after   18 cycles
            NFock= 18  Conv=0.33D-08     -V/T= 2.0020
 <Sx>= 0.0000 <Sy>= 0.0000 <Sz>= 2.5000 <S**2>= 8.7618 S= 2.5020
 <L.S>= 0.000000000000E+00
 Annihilation of the first spin contaminant:
 S**2 before annihilation     8.7618,   after     8.7500
 1\1\GINC-HOLY7C06111\SP\UM06L\Jul-CC-pVDZ\C8H16Cl3Fe1O1(6)\EKWAN\12-Fe
 b-2020\0\\#t pop=none jul-cc-pvdz guess=read um06l empiricaldispersion
 =gd3\\theory_abbreviation m06l_d3\\0,6\O,0,0.159626,0.482149,-0.877524
 \C,0,0.876641,1.475362,-0.640147\C,0,3.203021,0.007886,0.557547\C,0,2.
 681931,-0.920166,-0.266004\C,0,3.099005,-1.003369,-1.71168\Fe,0,-1.486
 125,-0.185584,0.023039\Cl,0,-2.059514,-1.945421,-1.110934\C,0,1.729171
 ,-2.001571,0.159942\Cl,0,-2.776201,1.564189,-0.224442\Cl,0,-1.016672,-
 0.562198,2.129241\H,0,3.937626,0.69466,0.133165\H,0,2.222795,-2.980089
 ,0.084211\H,0,1.362522,-1.888582,1.179989\H,0,0.864813,-2.047062,-0.51
 3829\H,0,3.584407,-1.967602,-1.912737\H,0,2.224947,-0.956128,-2.374469
 \H,0,3.799762,-0.210445,-1.990652\C,0,2.983496,0.143704,2.038711\H,0,3
 .829251,-0.283496,2.595104\H,0,2.919146,1.197088,2.336005\H,0,2.075145
 ,-0.357141,2.382388\C,0,0.747166,2.242833,0.635955\H,0,1.610259,2.8859
 25,0.81397\H,0,-0.149619,2.872625,0.539816\H,0,0.582689,1.574276,1.482
 686\C,0,1.721339,2.033746,-1.740407\H,0,1.235479,2.959684,-2.080789\H,
 0,2.715274,2.302109,-1.375927\H,0,1.78771,1.339949,-2.576977\\Version=
 ES64L-G16RevA.03\HF=-3034.225716\S2=8.761786\S2-1=0.\S2A=8.750044\RMSD
 =3.328e-09\PG=C01 [X(C8H16Cl3Fe1O1)]\\@


 THEREFORE SHALL EVIL COME UPON THEE...
 THOU SHALT NOT KNOW FROM WHENCE IT RISETH...
 AND MISCHIEF SHALL FALL UPON THEE...
 THOU SHALT NOT BE ABLE TO PUT IT OFF...
 AND DESOLATION SHALL COME UPON THEE SUDDENLY...
 WHICH THOU SHALT NOT KNOW...

                                         ISAIAH 47.11
 Job cpu time:       0 days  1 hours 15 minutes 14.1 seconds.
 Elapsed time:       0 days  0 hours 18 minutes 51.9 seconds.
 File lengths (MBytes):  RWF=    174 Int=      0 D2E=      0 Chk=     13 Scr=      1
 Normal termination of Gaussian 16 at Wed Feb 12 23:38:46 2020.
 Initial command:
 /n/sw/g16_nehalem/g16/l1.exe "/scratch/Gau-10911.inp" -scrdir="/scratch/"
 Entering Link 1 = /n/sw/g16_nehalem/g16/l1.exe PID=     59120.
  
 Copyright (c) 1988,1990,1992,1993,1995,1998,2003,2009,2016,
            Gaussian, Inc.  All Rights Reserved.
  
 This is part of the Gaussian(R) 16 program.  It is based on
 the Gaussian(R) 09 system (copyright 2009, Gaussian, Inc.),
 the Gaussian(R) 03 system (copyright 2003, Gaussian, Inc.),
 the Gaussian(R) 98 system (copyright 1998, Gaussian, Inc.),
 the Gaussian(R) 94 system (copyright 1995, Gaussian, Inc.),
 the Gaussian 92(TM) system (copyright 1992, Gaussian, Inc.),
 the Gaussian 90(TM) system (copyright 1990, Gaussian, Inc.),
 the Gaussian 88(TM) system (copyright 1988, Gaussian, Inc.),
 the Gaussian 86(TM) system (copyright 1986, Carnegie Mellon
 University), and the Gaussian 82(TM) system (copyright 1983,
 Carnegie Mellon University). Gaussian is a federally registered
 trademark of Gaussian, Inc.
  
 This software contains proprietary and confidential information,
 including trade secrets, belonging to Gaussian, Inc.
  
 This software is provided under written license and may be
 used, copied, transmitted, or stored only in accord with that
 written license.
  
 The following legend is applicable only to US Government
 contracts under FAR:
  
                    RESTRICTED RIGHTS LEGEND
  
 Use, reproduction and disclosure by the US Government is
 subject to restrictions as set forth in subparagraphs (a)
 and (c) of the Commercial Computer Software - Restricted
 Rights clause in FAR 52.227-19.
  
 Gaussian, Inc.
 340 Quinnipiac St., Bldg. 40, Wallingford CT 06492
  
  
 ---------------------------------------------------------------
 Warning -- This program may not be used in any manner that
 competes with the business of Gaussian, Inc. or will provide
 assistance to any competitor of Gaussian, Inc.  The licensee
 of this program is prohibited from giving any competitor of
 Gaussian, Inc. access to this program.  By using this program,
 the user acknowledges that Gaussian, Inc. is engaged in the
 business of creating and licensing software in the field of
 computational chemistry and represents and warrants to the
 licensee that it is not a competitor of Gaussian, Inc. and that
 it will not use this program in any manner prohibited above.
 ---------------------------------------------------------------
  

 Cite this work as:
 Gaussian 16, Revision A.03,
 M. J. Frisch, G. W. Trucks, H. B. Schlegel, G. E. Scuseria, 
 M. A. Robb, J. R. Cheeseman, G. Scalmani, V. Barone, 
 G. A. Petersson, H. Nakatsuji, X. Li, M. Caricato, A. V. Marenich, 
 J. Bloino, B. G. Janesko, R. Gomperts, B. Mennucci, H. P. Hratchian, 
 J. V. Ortiz, A. F. Izmaylov, J. L. Sonnenberg, D. Williams-Young, 
 F. Ding, F. Lipparini, F. Egidi, J. Goings, B. Peng, A. Petrone, 
 T. Henderson, D. Ranasinghe, V. G. Zakrzewski, J. Gao, N. Rega, 
 G. Zheng, W. Liang, M. Hada, M. Ehara, K. Toyota, R. Fukuda, 
 J. Hasegawa, M. Ishida, T. Nakajima, Y. Honda, O. Kitao, H. Nakai, 
 T. Vreven, K. Throssell, J. A. Montgomery, Jr., J. E. Peralta, 
 F. Ogliaro, M. J. Bearpark, J. J. Heyd, E. N. Brothers, K. N. Kudin, 
 V. N. Staroverov, T. A. Keith, R. Kobayashi, J. Normand, 
 K. Raghavachari, A. P. Rendell, J. C. Burant, S. S. Iyengar, 
 J. Tomasi, M. Cossi, J. M. Millam, M. Klene, C. Adamo, R. Cammi, 
 J. W. Ochterski, R. L. Martin, K. Morokuma, O. Farkas, 
 J. B. Foresman, and D. J. Fox, Gaussian, Inc., Wallingford CT, 2016.
 
 ******************************************
 Gaussian 16:  ES64L-G16RevA.03 25-Dec-2016
                12-Feb-2020 
 ******************************************
 %chk=checkpoint.chk
 %mem=3GB
 %nprocshared=4
 Will use up to    4 processors via shared memory.
 -------------------------------------------------------------------
 #t pop=none jul-cc-pvdz guess=read ub97d3 empiricaldispersion=gd3bj
 -------------------------------------------------------------------
 ------------------------------
 theory_abbreviation b97d3_d3bj
 ------------------------------
 Symbolic Z-matrix:
 Charge =  0 Multiplicity = 6
 O                     0.15963   0.48215  -0.87752 
 C                     0.87664   1.47536  -0.64015 
 C                     3.20302   0.00789   0.55755 
 C                     2.68193  -0.92017  -0.266 
 C                     3.09901  -1.00337  -1.71168 
 Fe                   -1.48613  -0.18558   0.02304 
 Cl                   -2.05951  -1.94542  -1.11093 
 C                     1.72917  -2.00157   0.15994 
 Cl                   -2.7762    1.56419  -0.22444 
 Cl                   -1.01667  -0.5622    2.12924 
 H                     3.93763   0.69466   0.13317 
 H                     2.2228   -2.98009   0.08421 
 H                     1.36252  -1.88858   1.17999 
 H                     0.86481  -2.04706  -0.51383 
 H                     3.58441  -1.9676   -1.91274 
 H                     2.22495  -0.95613  -2.37447 
 H                     3.79976  -0.21045  -1.99065 
 C                     2.9835    0.1437    2.03871 
 H                     3.82925  -0.2835    2.5951 
 H                     2.91915   1.19709   2.33601 
 H                     2.07515  -0.35714   2.38239 
 C                     0.74717   2.24283   0.63596 
 H                     1.61026   2.88593   0.81397 
 H                    -0.14962   2.87263   0.53982 
 H                     0.58269   1.57428   1.48269 
 C                     1.72134   2.03375  -1.74041 
 H                     1.23548   2.95968  -2.08079 
 H                     2.71527   2.30211  -1.37593 
 H                     1.78771   1.33995  -2.57698 
 
                    Distance matrix (angstroms):
                    1          2          3          4          5
     1  O    0.000000
     2  C    1.247770   0.000000
     3  C    3.398030   3.000000   0.000000
     4  C    2.949994   3.022848   1.345753   0.000000
     5  C    3.397430   3.497312   2.486533   1.506935   0.000000
     6  Fe   1.991326   2.963312   4.723475   4.242151   4.970054
     7  Cl   3.297296   4.532593   5.856066   4.924059   5.278132
     8  C    3.115874   3.668244   2.523537   1.502870   2.525039
     9  Cl   3.196311   3.677493   6.227735   5.997079   6.581966
    10  Cl   3.393372   3.925022   4.538835   4.420973   5.646778
    11  H    3.916623   3.252251   1.091514   2.084171   2.643869
    12  H    4.143512   4.710400   3.180076   2.139331   2.810763
    13  H    3.361649   3.855528   2.715044   2.183933   3.487223
    14  H    2.650749   3.524708   3.292093   2.152494   2.741488
    15  H    4.336135   4.561303   3.185955   2.150189   1.098082
    16  H    2.928316   3.276880   3.237695   2.157719   1.097952
    17  H    3.869022   3.634618   2.626230   2.174318   1.094356
    18  C    4.073477   3.659021   1.503491   2.556261   3.923589
    19  H    5.109942   4.719993   2.151443   3.147639   4.427173
    20  H    4.295679   3.620324   2.158170   3.362958   4.610652
    21  H    3.873067   3.732318   2.176096   2.774737   4.269343
    22  C    2.394959   1.494728   3.321500   3.815941   4.645467
    23  H    3.277747   2.154609   3.299356   4.098921   4.870511
    24  H    2.796223   2.097109   4.409902   4.801280   5.535894
    25  H    2.634827   2.145370   3.189922   3.699591   4.814569
    26  C    2.364523   1.495286   3.402952   3.438342   3.335095
    27  H    2.956939   2.099387   4.420990   4.520941   4.394856
    28  H    3.176790   2.146032   3.039684   3.408240   3.344572
    29  H    2.504919   2.144690   3.688189   3.353856   2.821236
                    6          7          8          9         10
     6  Fe   0.000000
     7  Cl   2.170644   0.000000
     8  C    3.695224   3.996550   0.000000
     9  Cl   2.187978   3.690104   5.758539   0.000000
    10  Cl   2.190505   3.674175   3.672817   3.627298   0.000000
    11  H    5.495820   6.669595   3.485348   6.779339   5.487174
    12  H    4.644253   4.564765   1.098589   6.762817   4.530176
    13  H    3.514758   4.118481   1.089814   5.569837   2.884604
    14  H    3.046348   2.986395   1.096883   5.136328   3.568000
    15  H    5.712540   5.700634   2.781915   7.468683   6.283524
    16  H    4.484845   4.575131   2.786034   5.998841   5.562974
    17  H    5.656516   6.173748   3.481456   7.036484   6.347857
    18  C    4.914151   6.302115   3.115334   6.349311   4.062984
    19  H    5.905788   7.153619   3.645838   7.415914   4.876236
    20  H    5.164107   6.822302   4.047556   6.255208   4.316075
    21  H    4.275348   5.641040   2.786237   5.832892   3.108933
    22  C    3.355661   5.335780   4.382452   3.689845   3.634450
    23  H    4.432531   6.365092   4.932495   4.697480   4.529929
    24  H    3.377269   5.439324   5.237551   3.032330   3.882790
    25  H    3.083451   5.108460   3.981301   3.767828   2.745999
    26  C    4.280537   5.524930   4.460400   4.769329   5.404610
    27  H    4.661108   5.988126   5.466137   4.635408   5.932975
    28  H    5.079122   6.396119   4.674714   5.659217   5.866675
    29  H    4.450318   5.267264   4.319712   5.139454   5.799242
                   11         12         13         14         15
    11  H    0.000000
    12  H    4.055468   0.000000
    13  H    3.794752   1.769798   0.000000
    14  H    4.168671   1.752800   1.772526   0.000000
    15  H    3.376110   2.620481   3.808933   3.059322   0.000000
    16  H    3.456385   3.184577   3.774575   2.549918   1.756248
    17  H    2.312752   3.803000   4.336963   3.764053   1.772018
    18  C    2.201141   3.762555   2.737727   3.975391   4.520249
    19  H    2.651354   4.019564   3.265517   4.643654   4.818381
    20  H    2.478354   4.796279   3.644285   4.781877   5.339442
    21  H    3.103889   3.490455   2.073380   3.564942   4.829033
    22  C    3.581714   5.455348   4.212271   4.442864   5.680980
    23  H    3.268298   5.942884   4.794920   5.162664   5.906684
    24  H    4.649136   6.331681   5.036416   5.132500   6.586787
    25  H    3.721630   5.038643   3.562464   4.144847   5.751879
    26  C    3.196146   5.359033   4.903276   4.346392   4.417183
    27  H    4.163355   6.398666   5.844185   5.259302   5.461122
    28  H    2.520991   5.502377   5.091614   4.804447   4.390215
    29  H    3.519006   5.092539   4.971820   4.071875   3.822202
                   16         17         18         19         20
    16  H    0.000000
    17  H    1.784209   0.000000
    18  C    4.610985   4.126436   0.000000
    19  H    5.265252   4.586433   1.098806   0.000000
    20  H    5.225592   4.634285   1.096423   1.757143   0.000000
    21  H    4.796761   4.703116   1.092731   1.768491   1.769214
    22  C    4.634635   4.715504   3.372720   4.440704   2.949788
    23  H    5.030443   4.716708   3.302355   4.259295   2.623346
    24  H    5.365722   5.613038   4.417025   5.478751   3.930781
    25  H    4.896693   5.059532   2.849487   3.902429   2.515841
    26  C    3.097580   3.069016   4.409879   5.348790   4.330343
    27  H    4.049553   4.078405   5.287304   6.253786   5.044755
    28  H    3.442908   2.804805   4.048507   4.867791   3.878282
    29  H    2.346094   2.606885   4.915840   5.792572   5.043605
                   21         22         23         24         25
    21  H    0.000000
    22  C    3.401973   0.000000
    23  H    3.632290   1.090957   0.000000
    24  H    4.333132   1.100047   1.781154   0.000000
    25  H    2.601396   1.091318   1.795412   1.763800   0.000000
    26  C    4.779012   2.576786   2.695068   3.066532   3.449053
    27  H    5.623728   2.851846   2.919851   2.965408   3.878639
    28  H    4.648259   2.815072   2.521418   3.493304   3.639963
    29  H    5.249575   3.495835   3.730959   3.977026   4.241208
                   26         27         28         29
    26  C    0.000000
    27  H    1.099673   0.000000
    28  H    1.092141   1.766077   0.000000
    29  H    1.088857   1.781770   1.796844   0.000000
 Framework group  C1[X(C8H16Cl3FeO)]
 Deg. of freedom    81
                         Standard orientation:                         
 ---------------------------------------------------------------------
 Center     Atomic      Atomic             Coordinates (Angstroms)
 Number     Number       Type             X           Y           Z
 ---------------------------------------------------------------------
      1          8           0        0.159626    0.482149   -0.877524
      2          6           0        0.876641    1.475362   -0.640147
      3          6           0        3.203021    0.007886    0.557547
      4          6           0        2.681931   -0.920166   -0.266004
      5          6           0        3.099005   -1.003369   -1.711680
      6         26           0       -1.486125   -0.185584    0.023039
      7         17           0       -2.059514   -1.945421   -1.110934
      8          6           0        1.729171   -2.001571    0.159942
      9         17           0       -2.776201    1.564189   -0.224442
     10         17           0       -1.016672   -0.562198    2.129241
     11          1           0        3.937626    0.694660    0.133165
     12          1           0        2.222795   -2.980089    0.084211
     13          1           0        1.362522   -1.888582    1.179989
     14          1           0        0.864813   -2.047062   -0.513829
     15          1           0        3.584407   -1.967602   -1.912737
     16          1           0        2.224947   -0.956128   -2.374469
     17          1           0        3.799762   -0.210445   -1.990652
     18          6           0        2.983496    0.143704    2.038711
     19          1           0        3.829251   -0.283496    2.595104
     20          1           0        2.919146    1.197088    2.336005
     21          1           0        2.075145   -0.357141    2.382388
     22          6           0        0.747166    2.242833    0.635955
     23          1           0        1.610259    2.885925    0.813970
     24          1           0       -0.149619    2.872625    0.539816
     25          1           0        0.582689    1.574276    1.482686
     26          6           0        1.721339    2.033746   -1.740407
     27          1           0        1.235479    2.959684   -2.080789
     28          1           0        2.715274    2.302109   -1.375927
     29          1           0        1.787710    1.339949   -2.576977
 ---------------------------------------------------------------------
 Rotational constants (GHZ):           0.5608606           0.3180256           0.2993547
   427 basis functions,  1056 primitive gaussians,   461 cartesian basis functions
    77 alpha electrons       72 beta electrons
       nuclear repulsion energy      1614.1925783108 Hartrees.
 NAtoms=   29 NActive=   29 NUniq=   29 SFac= 1.00D+00 NAtFMM=   60 NAOKFM=F Big=F
 Nuclear repulsion after empirical dispersion term =     1614.0964386841 Hartrees.
 Initial guess from the checkpoint file:  "checkpoint.chk"
 B after Tr=     0.000000    0.000000    0.000000
         Rot=    1.000000    0.000000    0.000000    0.000000 Ang=   0.00 deg.
 Initial guess <Sx>= 0.0000 <Sy>= 0.0000 <Sz>= 2.5000 <S**2>= 8.7618 S= 2.5020
 SCF Done:  E(UB97D3) =  -3034.64435840     A.U. after   16 cycles
            NFock= 16  Conv=0.72D-08     -V/T= 2.0020
 <Sx>= 0.0000 <Sy>= 0.0000 <Sz>= 2.5000 <S**2>= 8.7600 S= 2.5017
 <L.S>= 0.000000000000E+00
 Annihilation of the first spin contaminant:
 S**2 before annihilation     8.7600,   after     8.7500
 1\1\GINC-HOLY7C06111\SP\UB97D3\Jul-CC-pVDZ\C8H16Cl3Fe1O1(6)\EKWAN\12-F
 eb-2020\0\\#t pop=none jul-cc-pvdz guess=read ub97d3 empiricaldispersi
 on=gd3bj\\theory_abbreviation b97d3_d3bj\\0,6\O,0,0.159626,0.482149,-0
 .877524\C,0,0.876641,1.475362,-0.640147\C,0,3.203021,0.007886,0.557547
 \C,0,2.681931,-0.920166,-0.266004\C,0,3.099005,-1.003369,-1.71168\Fe,0
 ,-1.486125,-0.185584,0.023039\Cl,0,-2.059514,-1.945421,-1.110934\C,0,1
 .729171,-2.001571,0.159942\Cl,0,-2.776201,1.564189,-0.224442\Cl,0,-1.0
 16672,-0.562198,2.129241\H,0,3.937626,0.69466,0.133165\H,0,2.222795,-2
 .980089,0.084211\H,0,1.362522,-1.888582,1.179989\H,0,0.864813,-2.04706
 2,-0.513829\H,0,3.584407,-1.967602,-1.912737\H,0,2.224947,-0.956128,-2
 .374469\H,0,3.799762,-0.210445,-1.990652\C,0,2.983496,0.143704,2.03871
 1\H,0,3.829251,-0.283496,2.595104\H,0,2.919146,1.197088,2.336005\H,0,2
 .075145,-0.357141,2.382388\C,0,0.747166,2.242833,0.635955\H,0,1.610259
 ,2.885925,0.81397\H,0,-0.149619,2.872625,0.539816\H,0,0.582689,1.57427
 6,1.482686\C,0,1.721339,2.033746,-1.740407\H,0,1.235479,2.959684,-2.08
 0789\H,0,2.715274,2.302109,-1.375927\H,0,1.78771,1.339949,-2.576977\\V
 ersion=ES64L-G16RevA.03\HF=-3034.6443584\S2=8.760011\S2-1=0.\S2A=8.750
 032\RMSD=7.203e-09\PG=C01 [X(C8H16Cl3Fe1O1)]\\@


 OLD AGE AND TREACHERY WILL ALWAYS PREVAIL OVER YOUTH AND SKILL.
 Job cpu time:       0 days  0 hours 48 minutes 36.3 seconds.
 Elapsed time:       0 days  0 hours 12 minutes 11.2 seconds.
 File lengths (MBytes):  RWF=    174 Int=      0 D2E=      0 Chk=     13 Scr=      1
 Normal termination of Gaussian 16 at Wed Feb 12 23:50:58 2020.
