 Entering Gaussian System, Link 0=g16
 Input=simple-grid-230-240-b3lyp_d3bj-631gd-gas-singlepoint-DFT-juldz2-gas.gjf
 Output=simple-grid-230-240-b3lyp_d3bj-631gd-gas-singlepoint-DFT-juldz2-gas.out
 Initial command:
 /n/sw/g16_nehalem/g16/l1.exe "/scratch/Gau-104406.inp" -scrdir="/scratch/"
 Entering Link 1 = /n/sw/g16_nehalem/g16/l1.exe PID=    104407.
  
 Copyright (c) 1988,1990,1992,1993,1995,1998,2003,2009,2016,
            Gaussian, Inc.  All Rights Reserved.
  
 This is part of the Gaussian(R) 16 program.  It is based on
 the Gaussian(R) 09 system (copyright 2009, Gaussian, Inc.),
 the Gaussian(R) 03 system (copyright 2003, Gaussian, Inc.),
 the Gaussian(R) 98 system (copyright 1998, Gaussian, Inc.),
 the Gaussian(R) 94 system (copyright 1995, Gaussian, Inc.),
 the Gaussian 92(TM) system (copyright 1992, Gaussian, Inc.),
 the Gaussian 90(TM) system (copyright 1990, Gaussian, Inc.),
 the Gaussian 88(TM) system (copyright 1988, Gaussian, Inc.),
 the Gaussian 86(TM) system (copyright 1986, Carnegie Mellon
 University), and the Gaussian 82(TM) system (copyright 1983,
 Carnegie Mellon University). Gaussian is a federally registered
 trademark of Gaussian, Inc.
  
 This software contains proprietary and confidential information,
 including trade secrets, belonging to Gaussian, Inc.
  
 This software is provided under written license and may be
 used, copied, transmitted, or stored only in accord with that
 written license.
  
 The following legend is applicable only to US Government
 contracts under FAR:
  
                    RESTRICTED RIGHTS LEGEND
  
 Use, reproduction and disclosure by the US Government is
 subject to restrictions as set forth in subparagraphs (a)
 and (c) of the Commercial Computer Software - Restricted
 Rights clause in FAR 52.227-19.
  
 Gaussian, Inc.
 340 Quinnipiac St., Bldg. 40, Wallingford CT 06492
  
  
 ---------------------------------------------------------------
 Warning -- This program may not be used in any manner that
 competes with the business of Gaussian, Inc. or will provide
 assistance to any competitor of Gaussian, Inc.  The licensee
 of this program is prohibited from giving any competitor of
 Gaussian, Inc. access to this program.  By using this program,
 the user acknowledges that Gaussian, Inc. is engaged in the
 business of creating and licensing software in the field of
 computational chemistry and represents and warrants to the
 licensee that it is not a competitor of Gaussian, Inc. and that
 it will not use this program in any manner prohibited above.
 ---------------------------------------------------------------
  

 Cite this work as:
 Gaussian 16, Revision A.03,
 M. J. Frisch, G. W. Trucks, H. B. Schlegel, G. E. Scuseria, 
 M. A. Robb, J. R. Cheeseman, G. Scalmani, V. Barone, 
 G. A. Petersson, H. Nakatsuji, X. Li, M. Caricato, A. V. Marenich, 
 J. Bloino, B. G. Janesko, R. Gomperts, B. Mennucci, H. P. Hratchian, 
 J. V. Ortiz, A. F. Izmaylov, J. L. Sonnenberg, D. Williams-Young, 
 F. Ding, F. Lipparini, F. Egidi, J. Goings, B. Peng, A. Petrone, 
 T. Henderson, D. Ranasinghe, V. G. Zakrzewski, J. Gao, N. Rega, 
 G. Zheng, W. Liang, M. Hada, M. Ehara, K. Toyota, R. Fukuda, 
 J. Hasegawa, M. Ishida, T. Nakajima, Y. Honda, O. Kitao, H. Nakai, 
 T. Vreven, K. Throssell, J. A. Montgomery, Jr., J. E. Peralta, 
 F. Ogliaro, M. J. Bearpark, J. J. Heyd, E. N. Brothers, K. N. Kudin, 
 V. N. Staroverov, T. A. Keith, R. Kobayashi, J. Normand, 
 K. Raghavachari, A. P. Rendell, J. C. Burant, S. S. Iyengar, 
 J. Tomasi, M. Cossi, J. M. Millam, M. Klene, C. Adamo, R. Cammi, 
 J. W. Ochterski, R. L. Martin, K. Morokuma, O. Farkas, 
 J. B. Foresman, and D. J. Fox, Gaussian, Inc., Wallingford CT, 2016.
 
 ******************************************
 Gaussian 16:  ES64L-G16RevA.03 25-Dec-2016
                11-Feb-2020 
 ******************************************
 %chk=checkpoint.chk
 %mem=3GB
 %nprocshared=4
 Will use up to    4 processors via shared memory.
 --------------------------------
 #t pop=none jul-cc-pvdz upbe1pbe
 --------------------------------
 ------------------------
 theory_abbreviation pbe0
 ------------------------
 Symbolic Z-matrix:
 Charge =  0 Multiplicity = 6
 O                    -0.31477  -0.13959  -0.65702 
 C                    -1.19131  -1.06757  -0.57325 
 C                    -3.12621  -0.02696   0.10739 
 C                    -2.34832   1.04802  -0.19421 
 C                    -2.33      1.64777  -1.56599 
 Fe                    1.45763   0.07659   0.04967 
 Cl                    2.08481   2.00396  -0.77306 
 C                    -1.56146   1.80023   0.83417 
 Cl                    2.48092  -1.70702  -0.72203 
 Cl                    1.33512   0.05761   2.24968 
 H                    -3.75706  -0.41799  -0.68814 
 H                    -2.1981    2.6049    1.22934 
 H                    -1.24272   1.18731   1.67774 
 H                    -0.6803    2.27244   0.39192 
 H                    -2.6418    2.6978   -1.49229 
 H                    -1.31067   1.64923  -1.96751 
 H                    -3.00525   1.14325  -2.26124 
 C                    -3.50202  -0.47064   1.49656 
 H                    -4.4138    0.05496   1.81075 
 H                    -3.72522  -1.54084   1.53569 
 H                    -2.73131  -0.25452   2.23978 
 C                    -1.1024   -2.03946   0.56874 
 H                    -1.98042  -2.68061   0.64704 
 H                    -0.2319   -2.67265   0.34025 
 H                    -0.89587  -1.54102   1.51598 
 C                    -1.73706  -1.58993  -1.87639 
 H                    -0.93975  -2.22477  -2.28899 
 H                    -2.63174  -2.20066  -1.74473 
 H                    -1.91607  -0.78728  -2.5912 
 
                    Distance matrix (angstroms):
                    1          2          3          4          5
     1  O    0.000000
     2  C    1.279250   0.000000
     3  C    2.915685   2.300000   0.000000
     4  C    2.399990   2.440916   1.360753   0.000000
     5  C    2.842890   3.107280   2.497767   1.497263   0.000000
     6  Fe   1.920298   2.951950   4.585377   3.935538   4.407392
     7  Cl   3.219665   4.495236   5.661671   4.571817   4.499566
     8  C    2.746048   3.215915   2.513018   1.497511   2.524805
     9  Cl   3.205762   3.730450   5.911889   5.584835   5.925516
    10  Cl   3.348120   3.951936   4.949753   4.530043   5.524583
    11  H    3.453671   2.649194   1.088002   2.092295   2.659788
    12  H    3.825901   4.213073   3.007794   2.114935   2.957597
    13  H    2.841279   3.186547   2.736416   2.178525   3.451954
    14  H    2.655519   3.514020   3.369070   2.150591   2.635359
    15  H    3.763452   4.138427   3.196545   2.119646   1.097828
    16  H    2.430868   3.056014   3.226605   2.140736   1.095554
    17  H    3.384951   3.320754   2.644693   2.170992   1.092644
    18  C    3.860841   3.159090   1.505954   2.548743   3.903911
    19  H    4.788508   4.162691   2.136829   3.045039   4.275703
    20  H    4.289829   3.330512   2.165806   3.404501   4.662004
    21  H    3.774167   3.308445   2.180561   2.787050   4.273601
    22  C    2.394229   1.502200   2.891160   3.415688   4.433921
    23  H    3.306314   2.171104   2.940402   3.840020   4.873862
    24  H    2.723557   2.081154   3.928221   4.313725   5.167368
    25  H    2.650207   2.162479   3.041534   3.426003   4.660857
    26  C    2.369234   1.506280   2.882359   3.187810   3.306146
    27  H    2.720644   2.084747   3.918374   4.133198   4.177564
    28  H    3.286254   2.175107   2.898241   3.610860   3.864368
    29  H    2.593209   2.162396   3.053668   3.049704   2.674292
                    6          7          8          9         10
     6  Fe   0.000000
     7  Cl   2.187467   0.000000
     8  C    3.563889   3.989979   0.000000
     9  Cl   2.196335   3.732413   5.573452   0.000000
    10  Cl   2.203499   3.672503   3.664777   3.641132   0.000000
    11  H    5.289801   6.324591   3.472548   6.369856   5.898076
    12  H    4.598737   4.765924   1.099530   6.655352   4.473637
    13  H    3.343090   4.212578   1.090362   5.291650   2.872041
    14  H    3.083777   3.012490   1.093159   5.202913   3.524014
    15  H    5.104291   4.831101   2.717567   6.799853   6.065383
    16  H    3.769055   3.616883   2.816931   5.214577   5.226683
    17  H    5.137643   5.372536   3.478172   6.371121   6.353409
    18  C    5.195301   6.518245   3.059644   6.499720   4.923841
    19  H    6.129898   7.259932   3.483612   7.553590   5.765659
    20  H    5.629056   7.186956   4.041875   6.606134   5.354610
    21  H    4.738510   6.113343   2.750696   6.168420   4.078406
    22  C    3.361675   5.320523   3.876129   3.823190   3.628330
    23  H    4.447377   6.363013   4.504274   4.767148   4.589020
    24  H    3.239944   5.336408   4.692364   3.069244   3.681816
    25  H    3.210250   5.166338   3.474453   4.054499   2.840998
    26  C    4.085714   5.360977   4.344092   4.374652   5.401586
    27  H    4.063621   5.415545   5.132374   3.797942   5.566312
    28  H    5.012851   6.392868   4.878860   5.237255   6.065562
    29  H    4.370623   5.206121   4.307445   4.865512   5.892214
                   11         12         13         14         15
    11  H    0.000000
    12  H    3.904480   0.000000
    13  H    3.807398   1.767306   0.000000
    14  H    4.227455   1.765081   1.774024   0.000000
    15  H    3.405672   2.759127   3.779962   2.752938   0.000000
    16  H    3.448911   3.452638   3.675035   2.520454   1.759896
    17  H    2.340368   3.869374   4.315554   3.704010   1.772004
    18  C    2.200171   3.351205   2.808213   4.087399   4.439846
    19  H    2.626681   3.427764   3.369815   4.568294   4.586354
    20  H    2.491435   4.428668   3.691308   5.012067   5.320577
    21  H    3.106708   3.079221   2.147244   3.742561   4.759474
    22  C    3.355010   4.817362   3.414906   4.336113   5.390657
    23  H    3.171531   5.321944   4.070300   5.127190   5.825929
    24  H    4.309034   5.701655   4.208310   4.965640   6.165021
    25  H    3.782291   4.355065   2.755039   3.981512   5.483205
    26  C    2.620258   5.239724   4.537540   4.602159   4.398946
    27  H    3.710041   6.106375   5.241093   5.242088   5.269098
    28  H    2.358091   5.668022   5.012081   5.327471   4.904965
    29  H    2.673427   5.116927   4.751446   4.448372   3.725597
                   16         17         18         19         20
    16  H    0.000000
    17  H    1.792726   0.000000
    18  C    4.614725   4.119769   0.000000
    19  H    5.142602   4.444038   1.098324   0.000000
    20  H    5.317802   4.705250   1.093926   1.759658   0.000000
    21  H    4.831545   4.721018   1.092284   1.763700   1.771500
    22  C    4.481335   4.664676   3.013338   4.110297   2.839500
    23  H    5.102151   4.912255   2.814418   3.841739   2.265637
    24  H    5.016784   5.387043   4.108474   5.204852   3.861773
    25  H    4.741780   5.091378   2.817464   3.874258   2.829412
    26  C    3.268376   3.037545   3.967957   4.844128   3.949360
    27  H    3.904971   3.951025   4.896187   5.837304   4.780670
    28  H    4.076331   3.404114   3.775749   4.572192   3.520252
    29  H    2.586906   2.241010   4.396051   5.130803   4.568593
                   21         22         23         24         25
    21  H    0.000000
    22  C    2.937978   0.000000
    23  H    2.997765   1.090007   0.000000
    24  H    3.962647   1.100412   1.775240   0.000000
    25  H    2.355375   1.090119   1.797211   1.761752   0.000000
    26  C    4.440124   2.565834   2.759794   2.889853   3.495446
    27  H    5.253702   2.868351   3.148183   2.759450   3.866169
    28  H    4.435500   2.777945   2.524897   3.213896   3.752407
    29  H    4.928164   3.495023   3.751663   3.870968   4.298583
                   26         27         28         29
    26  C    0.000000
    27  H    1.099533   0.000000
    28  H    1.091224   1.777542   0.000000
    29  H    1.089606   1.763775   1.796195   0.000000
 Framework group  C1[X(C8H16Cl3FeO)]
 Deg. of freedom    81
                         Standard orientation:                         
 ---------------------------------------------------------------------
 Center     Atomic      Atomic             Coordinates (Angstroms)
 Number     Number       Type             X           Y           Z
 ---------------------------------------------------------------------
      1          8           0       -0.314767   -0.139593   -0.657015
      2          6           0       -1.191307   -1.067570   -0.573248
      3          6           0       -3.126211   -0.026955    0.107388
      4          6           0       -2.348321    1.048020   -0.194214
      5          6           0       -2.329995    1.647765   -1.565989
      6         26           0        1.457634    0.076585    0.049673
      7         17           0        2.084807    2.003961   -0.773058
      8          6           0       -1.561459    1.800230    0.834167
      9         17           0        2.480916   -1.707023   -0.722030
     10         17           0        1.335121    0.057608    2.249682
     11          1           0       -3.757058   -0.417992   -0.688143
     12          1           0       -2.198100    2.604898    1.229343
     13          1           0       -1.242724    1.187307    1.677744
     14          1           0       -0.680303    2.272438    0.391923
     15          1           0       -2.641802    2.697799   -1.492289
     16          1           0       -1.310674    1.649230   -1.967512
     17          1           0       -3.005246    1.143249   -2.261238
     18          6           0       -3.502024   -0.470643    1.496562
     19          1           0       -4.413805    0.054960    1.810747
     20          1           0       -3.725217   -1.540843    1.535691
     21          1           0       -2.731311   -0.254524    2.239784
     22          6           0       -1.102404   -2.039457    0.568740
     23          1           0       -1.980416   -2.680612    0.647036
     24          1           0       -0.231903   -2.672645    0.340252
     25          1           0       -0.895874   -1.541020    1.515981
     26          6           0       -1.737061   -1.589932   -1.876386
     27          1           0       -0.939746   -2.224768   -2.288993
     28          1           0       -2.631741   -2.200656   -1.744725
     29          1           0       -1.916072   -0.787283   -2.591195
 ---------------------------------------------------------------------
 Rotational constants (GHZ):           0.5859194           0.3334418           0.3136481
   427 basis functions,  1056 primitive gaussians,   461 cartesian basis functions
    77 alpha electrons       72 beta electrons
       nuclear repulsion energy      1645.2081661144 Hartrees.
 NAtoms=   29 NActive=   29 NUniq=   29 SFac= 1.00D+00 NAtFMM=   60 NAOKFM=F Big=F
 ExpMin= 1.40D-02 ExpMax= 4.32D+06 ExpMxC= 4.91D+03 IAcc=3 IRadAn=         5 AccDes= 0.00D+00
 Harris functional with IExCor= 1009 and IRadAn=       5 diagonalized for initial guess.
 HarFok:  IExCor= 1009 AccDes= 0.00D+00 IRadAn=         5 IDoV= 1 UseB2=F ITyADJ=14
 ICtDFT=  3500011 ScaDFX=  1.000000  1.000000  1.000000  1.000000
 FoFCou: FMM=F IPFlag=           0 FMFlag=      100000 FMFlg1=           0
         NFxFlg=           0 DoJE=T BraDBF=F KetDBF=T FulRan=T
         wScrn=  0.000000 ICntrl=       500 IOpCl=  0 I1Cent=   200000004 NGrid=           0
         NMat0=    1 NMatS0=      1 NMatT0=    0 NMatD0=    1 NMtDS0=    0 NMtDT0=    0
 Petite list used in FoFCou.
 Initial guess <Sx>= 0.0000 <Sy>= 0.0000 <Sz>= 2.5000 <S**2>= 8.7500 S= 2.5000
 EnCoef did   100 forward-backward iterations
 SCF Done:  E(UPBE1PBE) =  -3033.11424463     A.U. after   20 cycles
            NFock= 20  Conv=0.67D-08     -V/T= 2.0021
 <Sx>= 0.0000 <Sy>= 0.0000 <Sz>= 2.5000 <S**2>= 8.7626 S= 2.5021
 <L.S>= 0.000000000000E+00
 Annihilation of the first spin contaminant:
 S**2 before annihilation     8.7626,   after     8.7500
 1\1\GINC-HOLY7C16202\SP\UPBE1PBE\Jul-CC-pVDZ\C8H16Cl3Fe1O1(6)\EKWAN\11
 -Feb-2020\0\\#t pop=none jul-cc-pvdz upbe1pbe\\theory_abbreviation pbe
 0\\0,6\O,0,-0.314767,-0.139593,-0.657015\C,0,-1.191307,-1.06757,-0.573
 248\C,0,-3.126211,-0.026955,0.107388\C,0,-2.348321,1.04802,-0.194214\C
 ,0,-2.329995,1.647765,-1.565989\Fe,0,1.457634,0.076585,0.049673\Cl,0,2
 .084807,2.003961,-0.773058\C,0,-1.561459,1.80023,0.834167\Cl,0,2.48091
 6,-1.707023,-0.72203\Cl,0,1.335121,0.057608,2.249682\H,0,-3.757058,-0.
 417992,-0.688143\H,0,-2.1981,2.604898,1.229343\H,0,-1.242724,1.187307,
 1.677744\H,0,-0.680303,2.272438,0.391923\H,0,-2.641802,2.697799,-1.492
 289\H,0,-1.310674,1.64923,-1.967512\H,0,-3.005246,1.143249,-2.261238\C
 ,0,-3.502024,-0.470643,1.496562\H,0,-4.413805,0.05496,1.810747\H,0,-3.
 725217,-1.540843,1.535691\H,0,-2.731311,-0.254524,2.239784\C,0,-1.1024
 04,-2.039457,0.56874\H,0,-1.980416,-2.680612,0.647036\H,0,-0.231903,-2
 .672645,0.340252\H,0,-0.895874,-1.54102,1.515981\C,0,-1.737061,-1.5899
 32,-1.876386\H,0,-0.939746,-2.224768,-2.288993\H,0,-2.631741,-2.200656
 ,-1.744725\H,0,-1.916072,-0.787283,-2.591195\\Version=ES64L-G16RevA.03
 \HF=-3033.1142446\S2=8.762638\S2-1=0.\S2A=8.750049\RMSD=6.701e-09\PG=C
 01 [X(C8H16Cl3Fe1O1)]\\@


 I DON'T PRETEND TO UNDERSTAND THE UNIVERSE --
 IT'S A GREAT DEAL BIGGER THAN I AM.
       -- ATTR. TO WILLIAM ALLINGHAM (1828-89)
 Job cpu time:       0 days  1 hours 20 minutes 35.5 seconds.
 Elapsed time:       0 days  0 hours 20 minutes 16.3 seconds.
 File lengths (MBytes):  RWF=    173 Int=      0 D2E=      0 Chk=     13 Scr=      1
 Normal termination of Gaussian 16 at Tue Feb 11 23:38:10 2020.
 Initial command:
 /n/sw/g16_nehalem/g16/l1.exe "/scratch/Gau-104406.inp" -scrdir="/scratch/"
 Entering Link 1 = /n/sw/g16_nehalem/g16/l1.exe PID=    106087.
  
 Copyright (c) 1988,1990,1992,1993,1995,1998,2003,2009,2016,
            Gaussian, Inc.  All Rights Reserved.
  
 This is part of the Gaussian(R) 16 program.  It is based on
 the Gaussian(R) 09 system (copyright 2009, Gaussian, Inc.),
 the Gaussian(R) 03 system (copyright 2003, Gaussian, Inc.),
 the Gaussian(R) 98 system (copyright 1998, Gaussian, Inc.),
 the Gaussian(R) 94 system (copyright 1995, Gaussian, Inc.),
 the Gaussian 92(TM) system (copyright 1992, Gaussian, Inc.),
 the Gaussian 90(TM) system (copyright 1990, Gaussian, Inc.),
 the Gaussian 88(TM) system (copyright 1988, Gaussian, Inc.),
 the Gaussian 86(TM) system (copyright 1986, Carnegie Mellon
 University), and the Gaussian 82(TM) system (copyright 1983,
 Carnegie Mellon University). Gaussian is a federally registered
 trademark of Gaussian, Inc.
  
 This software contains proprietary and confidential information,
 including trade secrets, belonging to Gaussian, Inc.
  
 This software is provided under written license and may be
 used, copied, transmitted, or stored only in accord with that
 written license.
  
 The following legend is applicable only to US Government
 contracts under FAR:
  
                    RESTRICTED RIGHTS LEGEND
  
 Use, reproduction and disclosure by the US Government is
 subject to restrictions as set forth in subparagraphs (a)
 and (c) of the Commercial Computer Software - Restricted
 Rights clause in FAR 52.227-19.
  
 Gaussian, Inc.
 340 Quinnipiac St., Bldg. 40, Wallingford CT 06492
  
  
 ---------------------------------------------------------------
 Warning -- This program may not be used in any manner that
 competes with the business of Gaussian, Inc. or will provide
 assistance to any competitor of Gaussian, Inc.  The licensee
 of this program is prohibited from giving any competitor of
 Gaussian, Inc. access to this program.  By using this program,
 the user acknowledges that Gaussian, Inc. is engaged in the
 business of creating and licensing software in the field of
 computational chemistry and represents and warrants to the
 licensee that it is not a competitor of Gaussian, Inc. and that
 it will not use this program in any manner prohibited above.
 ---------------------------------------------------------------
  

 Cite this work as:
 Gaussian 16, Revision A.03,
 M. J. Frisch, G. W. Trucks, H. B. Schlegel, G. E. Scuseria, 
 M. A. Robb, J. R. Cheeseman, G. Scalmani, V. Barone, 
 G. A. Petersson, H. Nakatsuji, X. Li, M. Caricato, A. V. Marenich, 
 J. Bloino, B. G. Janesko, R. Gomperts, B. Mennucci, H. P. Hratchian, 
 J. V. Ortiz, A. F. Izmaylov, J. L. Sonnenberg, D. Williams-Young, 
 F. Ding, F. Lipparini, F. Egidi, J. Goings, B. Peng, A. Petrone, 
 T. Henderson, D. Ranasinghe, V. G. Zakrzewski, J. Gao, N. Rega, 
 G. Zheng, W. Liang, M. Hada, M. Ehara, K. Toyota, R. Fukuda, 
 J. Hasegawa, M. Ishida, T. Nakajima, Y. Honda, O. Kitao, H. Nakai, 
 T. Vreven, K. Throssell, J. A. Montgomery, Jr., J. E. Peralta, 
 F. Ogliaro, M. J. Bearpark, J. J. Heyd, E. N. Brothers, K. N. Kudin, 
 V. N. Staroverov, T. A. Keith, R. Kobayashi, J. Normand, 
 K. Raghavachari, A. P. Rendell, J. C. Burant, S. S. Iyengar, 
 J. Tomasi, M. Cossi, J. M. Millam, M. Klene, C. Adamo, R. Cammi, 
 J. W. Ochterski, R. L. Martin, K. Morokuma, O. Farkas, 
 J. B. Foresman, and D. J. Fox, Gaussian, Inc., Wallingford CT, 2016.
 
 ******************************************
 Gaussian 16:  ES64L-G16RevA.03 25-Dec-2016
                11-Feb-2020 
 ******************************************
 %chk=checkpoint.chk
 %mem=3GB
 %nprocshared=4
 Will use up to    4 processors via shared memory.
 ---------------------------------------------------------------------
 #t pop=none jul-cc-pvdz guess=read upbe1pbe empiricaldispersion=gd3bj
 ---------------------------------------------------------------------
 -----------------------------
 theory_abbreviation pbe0_d3bj
 -----------------------------
 Symbolic Z-matrix:
 Charge =  0 Multiplicity = 6
 O                    -0.31477  -0.13959  -0.65702 
 C                    -1.19131  -1.06757  -0.57325 
 C                    -3.12621  -0.02696   0.10739 
 C                    -2.34832   1.04802  -0.19421 
 C                    -2.33      1.64777  -1.56599 
 Fe                    1.45763   0.07659   0.04967 
 Cl                    2.08481   2.00396  -0.77306 
 C                    -1.56146   1.80023   0.83417 
 Cl                    2.48092  -1.70702  -0.72203 
 Cl                    1.33512   0.05761   2.24968 
 H                    -3.75706  -0.41799  -0.68814 
 H                    -2.1981    2.6049    1.22934 
 H                    -1.24272   1.18731   1.67774 
 H                    -0.6803    2.27244   0.39192 
 H                    -2.6418    2.6978   -1.49229 
 H                    -1.31067   1.64923  -1.96751 
 H                    -3.00525   1.14325  -2.26124 
 C                    -3.50202  -0.47064   1.49656 
 H                    -4.4138    0.05496   1.81075 
 H                    -3.72522  -1.54084   1.53569 
 H                    -2.73131  -0.25452   2.23978 
 C                    -1.1024   -2.03946   0.56874 
 H                    -1.98042  -2.68061   0.64704 
 H                    -0.2319   -2.67265   0.34025 
 H                    -0.89587  -1.54102   1.51598 
 C                    -1.73706  -1.58993  -1.87639 
 H                    -0.93975  -2.22477  -2.28899 
 H                    -2.63174  -2.20066  -1.74473 
 H                    -1.91607  -0.78728  -2.5912 
 
                    Distance matrix (angstroms):
                    1          2          3          4          5
     1  O    0.000000
     2  C    1.279250   0.000000
     3  C    2.915685   2.300000   0.000000
     4  C    2.399990   2.440916   1.360753   0.000000
     5  C    2.842890   3.107280   2.497767   1.497263   0.000000
     6  Fe   1.920298   2.951950   4.585377   3.935538   4.407392
     7  Cl   3.219665   4.495236   5.661671   4.571817   4.499566
     8  C    2.746048   3.215915   2.513018   1.497511   2.524805
     9  Cl   3.205762   3.730450   5.911889   5.584835   5.925516
    10  Cl   3.348120   3.951936   4.949753   4.530043   5.524583
    11  H    3.453671   2.649194   1.088002   2.092295   2.659788
    12  H    3.825901   4.213073   3.007794   2.114935   2.957597
    13  H    2.841279   3.186547   2.736416   2.178525   3.451954
    14  H    2.655519   3.514020   3.369070   2.150591   2.635359
    15  H    3.763452   4.138427   3.196545   2.119646   1.097828
    16  H    2.430868   3.056014   3.226605   2.140736   1.095554
    17  H    3.384951   3.320754   2.644693   2.170992   1.092644
    18  C    3.860841   3.159090   1.505954   2.548743   3.903911
    19  H    4.788508   4.162691   2.136829   3.045039   4.275703
    20  H    4.289829   3.330512   2.165806   3.404501   4.662004
    21  H    3.774167   3.308445   2.180561   2.787050   4.273601
    22  C    2.394229   1.502200   2.891160   3.415688   4.433921
    23  H    3.306314   2.171104   2.940402   3.840020   4.873862
    24  H    2.723557   2.081154   3.928221   4.313725   5.167368
    25  H    2.650207   2.162479   3.041534   3.426003   4.660857
    26  C    2.369234   1.506280   2.882359   3.187810   3.306146
    27  H    2.720644   2.084747   3.918374   4.133198   4.177564
    28  H    3.286254   2.175107   2.898241   3.610860   3.864368
    29  H    2.593209   2.162396   3.053668   3.049704   2.674292
                    6          7          8          9         10
     6  Fe   0.000000
     7  Cl   2.187467   0.000000
     8  C    3.563889   3.989979   0.000000
     9  Cl   2.196335   3.732413   5.573452   0.000000
    10  Cl   2.203499   3.672503   3.664777   3.641132   0.000000
    11  H    5.289801   6.324591   3.472548   6.369856   5.898076
    12  H    4.598737   4.765924   1.099530   6.655352   4.473637
    13  H    3.343090   4.212578   1.090362   5.291650   2.872041
    14  H    3.083777   3.012490   1.093159   5.202913   3.524014
    15  H    5.104291   4.831101   2.717567   6.799853   6.065383
    16  H    3.769055   3.616883   2.816931   5.214577   5.226683
    17  H    5.137643   5.372536   3.478172   6.371121   6.353409
    18  C    5.195301   6.518245   3.059644   6.499720   4.923841
    19  H    6.129898   7.259932   3.483612   7.553590   5.765659
    20  H    5.629056   7.186956   4.041875   6.606134   5.354610
    21  H    4.738510   6.113343   2.750696   6.168420   4.078406
    22  C    3.361675   5.320523   3.876129   3.823190   3.628330
    23  H    4.447377   6.363013   4.504274   4.767148   4.589020
    24  H    3.239944   5.336408   4.692364   3.069244   3.681816
    25  H    3.210250   5.166338   3.474453   4.054499   2.840998
    26  C    4.085714   5.360977   4.344092   4.374652   5.401586
    27  H    4.063621   5.415545   5.132374   3.797942   5.566312
    28  H    5.012851   6.392868   4.878860   5.237255   6.065562
    29  H    4.370623   5.206121   4.307445   4.865512   5.892214
                   11         12         13         14         15
    11  H    0.000000
    12  H    3.904480   0.000000
    13  H    3.807398   1.767306   0.000000
    14  H    4.227455   1.765081   1.774024   0.000000
    15  H    3.405672   2.759127   3.779962   2.752938   0.000000
    16  H    3.448911   3.452638   3.675035   2.520454   1.759896
    17  H    2.340368   3.869374   4.315554   3.704010   1.772004
    18  C    2.200171   3.351205   2.808213   4.087399   4.439846
    19  H    2.626681   3.427764   3.369815   4.568294   4.586354
    20  H    2.491435   4.428668   3.691308   5.012067   5.320577
    21  H    3.106708   3.079221   2.147244   3.742561   4.759474
    22  C    3.355010   4.817362   3.414906   4.336113   5.390657
    23  H    3.171531   5.321944   4.070300   5.127190   5.825929
    24  H    4.309034   5.701655   4.208310   4.965640   6.165021
    25  H    3.782291   4.355065   2.755039   3.981512   5.483205
    26  C    2.620258   5.239724   4.537540   4.602159   4.398946
    27  H    3.710041   6.106375   5.241093   5.242088   5.269098
    28  H    2.358091   5.668022   5.012081   5.327471   4.904965
    29  H    2.673427   5.116927   4.751446   4.448372   3.725597
                   16         17         18         19         20
    16  H    0.000000
    17  H    1.792726   0.000000
    18  C    4.614725   4.119769   0.000000
    19  H    5.142602   4.444038   1.098324   0.000000
    20  H    5.317802   4.705250   1.093926   1.759658   0.000000
    21  H    4.831545   4.721018   1.092284   1.763700   1.771500
    22  C    4.481335   4.664676   3.013338   4.110297   2.839500
    23  H    5.102151   4.912255   2.814418   3.841739   2.265637
    24  H    5.016784   5.387043   4.108474   5.204852   3.861773
    25  H    4.741780   5.091378   2.817464   3.874258   2.829412
    26  C    3.268376   3.037545   3.967957   4.844128   3.949360
    27  H    3.904971   3.951025   4.896187   5.837304   4.780670
    28  H    4.076331   3.404114   3.775749   4.572192   3.520252
    29  H    2.586906   2.241010   4.396051   5.130803   4.568593
                   21         22         23         24         25
    21  H    0.000000
    22  C    2.937978   0.000000
    23  H    2.997765   1.090007   0.000000
    24  H    3.962647   1.100412   1.775240   0.000000
    25  H    2.355375   1.090119   1.797211   1.761752   0.000000
    26  C    4.440124   2.565834   2.759794   2.889853   3.495446
    27  H    5.253702   2.868351   3.148183   2.759450   3.866169
    28  H    4.435500   2.777945   2.524897   3.213896   3.752407
    29  H    4.928164   3.495023   3.751663   3.870968   4.298583
                   26         27         28         29
    26  C    0.000000
    27  H    1.099533   0.000000
    28  H    1.091224   1.777542   0.000000
    29  H    1.089606   1.763775   1.796195   0.000000
 Framework group  C1[X(C8H16Cl3FeO)]
 Deg. of freedom    81
                         Standard orientation:                         
 ---------------------------------------------------------------------
 Center     Atomic      Atomic             Coordinates (Angstroms)
 Number     Number       Type             X           Y           Z
 ---------------------------------------------------------------------
      1          8           0       -0.314767   -0.139593   -0.657015
      2          6           0       -1.191307   -1.067570   -0.573248
      3          6           0       -3.126211   -0.026955    0.107388
      4          6           0       -2.348321    1.048020   -0.194214
      5          6           0       -2.329995    1.647765   -1.565989
      6         26           0        1.457634    0.076585    0.049673
      7         17           0        2.084807    2.003961   -0.773058
      8          6           0       -1.561459    1.800230    0.834167
      9         17           0        2.480916   -1.707023   -0.722030
     10         17           0        1.335121    0.057608    2.249682
     11          1           0       -3.757058   -0.417992   -0.688143
     12          1           0       -2.198100    2.604898    1.229343
     13          1           0       -1.242724    1.187307    1.677744
     14          1           0       -0.680303    2.272438    0.391923
     15          1           0       -2.641802    2.697799   -1.492289
     16          1           0       -1.310674    1.649230   -1.967512
     17          1           0       -3.005246    1.143249   -2.261238
     18          6           0       -3.502024   -0.470643    1.496562
     19          1           0       -4.413805    0.054960    1.810747
     20          1           0       -3.725217   -1.540843    1.535691
     21          1           0       -2.731311   -0.254524    2.239784
     22          6           0       -1.102404   -2.039457    0.568740
     23          1           0       -1.980416   -2.680612    0.647036
     24          1           0       -0.231903   -2.672645    0.340252
     25          1           0       -0.895874   -1.541020    1.515981
     26          6           0       -1.737061   -1.589932   -1.876386
     27          1           0       -0.939746   -2.224768   -2.288993
     28          1           0       -2.631741   -2.200656   -1.744725
     29          1           0       -1.916072   -0.787283   -2.591195
 ---------------------------------------------------------------------
 Rotational constants (GHZ):           0.5859194           0.3334418           0.3136481
   427 basis functions,  1056 primitive gaussians,   461 cartesian basis functions
    77 alpha electrons       72 beta electrons
       nuclear repulsion energy      1645.2081661144 Hartrees.
 NAtoms=   29 NActive=   29 NUniq=   29 SFac= 1.00D+00 NAtFMM=   60 NAOKFM=F Big=F
 Nuclear repulsion after empirical dispersion term =     1645.1703450185 Hartrees.
 Initial guess from the checkpoint file:  "checkpoint.chk"
 B after Tr=     0.000000    0.000000    0.000000
         Rot=    1.000000    0.000000    0.000000    0.000000 Ang=   0.00 deg.
 Initial guess <Sx>= 0.0000 <Sy>= 0.0000 <Sz>= 2.5000 <S**2>= 8.7626 S= 2.5021
 SCF Done:  E(UPBE1PBE) =  -3033.15206573     A.U. after    1 cycles
            NFock=  1  Conv=0.22D-08     -V/T= 2.0021
 <Sx>= 0.0000 <Sy>= 0.0000 <Sz>= 2.5000 <S**2>= 8.7626 S= 2.5021
 <L.S>= 0.000000000000E+00
 Annihilation of the first spin contaminant:
 S**2 before annihilation     8.7626,   after     8.7500
 1\1\GINC-HOLY7C16202\SP\UPBE1PBE\Jul-CC-pVDZ\C8H16Cl3Fe1O1(6)\EKWAN\11
 -Feb-2020\0\\#t pop=none jul-cc-pvdz guess=read upbe1pbe empiricaldisp
 ersion=gd3bj\\theory_abbreviation pbe0_d3bj\\0,6\O,0,-0.314767,-0.1395
 93,-0.657015\C,0,-1.191307,-1.06757,-0.573248\C,0,-3.126211,-0.026955,
 0.107388\C,0,-2.348321,1.04802,-0.194214\C,0,-2.329995,1.647765,-1.565
 989\Fe,0,1.457634,0.076585,0.049673\Cl,0,2.084807,2.003961,-0.773058\C
 ,0,-1.561459,1.80023,0.834167\Cl,0,2.480916,-1.707023,-0.72203\Cl,0,1.
 335121,0.057608,2.249682\H,0,-3.757058,-0.417992,-0.688143\H,0,-2.1981
 ,2.604898,1.229343\H,0,-1.242724,1.187307,1.677744\H,0,-0.680303,2.272
 438,0.391923\H,0,-2.641802,2.697799,-1.492289\H,0,-1.310674,1.64923,-1
 .967512\H,0,-3.005246,1.143249,-2.261238\C,0,-3.502024,-0.470643,1.496
 562\H,0,-4.413805,0.05496,1.810747\H,0,-3.725217,-1.540843,1.535691\H,
 0,-2.731311,-0.254524,2.239784\C,0,-1.102404,-2.039457,0.56874\H,0,-1.
 980416,-2.680612,0.647036\H,0,-0.231903,-2.672645,0.340252\H,0,-0.8958
 74,-1.54102,1.515981\C,0,-1.737061,-1.589932,-1.876386\H,0,-0.939746,-
 2.224768,-2.288993\H,0,-2.631741,-2.200656,-1.744725\H,0,-1.916072,-0.
 787283,-2.591195\\Version=ES64L-G16RevA.03\HF=-3033.1520657\S2=8.76263
 8\S2-1=0.\S2A=8.750049\RMSD=2.166e-09\PG=C01 [X(C8H16Cl3Fe1O1)]\\@


 THE MEEK SHALL INHERIT THE EARTH.
 (THE REST OF US WILL ESCAPE TO THE STARS)
 Job cpu time:       0 days  0 hours  4 minutes 29.6 seconds.
 Elapsed time:       0 days  0 hours  1 minutes  8.8 seconds.
 File lengths (MBytes):  RWF=    170 Int=      0 D2E=      0 Chk=     13 Scr=      1
 Normal termination of Gaussian 16 at Tue Feb 11 23:39:19 2020.
 Initial command:
 /n/sw/g16_nehalem/g16/l1.exe "/scratch/Gau-104406.inp" -scrdir="/scratch/"
 Entering Link 1 = /n/sw/g16_nehalem/g16/l1.exe PID=    106250.
  
 Copyright (c) 1988,1990,1992,1993,1995,1998,2003,2009,2016,
            Gaussian, Inc.  All Rights Reserved.
  
 This is part of the Gaussian(R) 16 program.  It is based on
 the Gaussian(R) 09 system (copyright 2009, Gaussian, Inc.),
 the Gaussian(R) 03 system (copyright 2003, Gaussian, Inc.),
 the Gaussian(R) 98 system (copyright 1998, Gaussian, Inc.),
 the Gaussian(R) 94 system (copyright 1995, Gaussian, Inc.),
 the Gaussian 92(TM) system (copyright 1992, Gaussian, Inc.),
 the Gaussian 90(TM) system (copyright 1990, Gaussian, Inc.),
 the Gaussian 88(TM) system (copyright 1988, Gaussian, Inc.),
 the Gaussian 86(TM) system (copyright 1986, Carnegie Mellon
 University), and the Gaussian 82(TM) system (copyright 1983,
 Carnegie Mellon University). Gaussian is a federally registered
 trademark of Gaussian, Inc.
  
 This software contains proprietary and confidential information,
 including trade secrets, belonging to Gaussian, Inc.
  
 This software is provided under written license and may be
 used, copied, transmitted, or stored only in accord with that
 written license.
  
 The following legend is applicable only to US Government
 contracts under FAR:
  
                    RESTRICTED RIGHTS LEGEND
  
 Use, reproduction and disclosure by the US Government is
 subject to restrictions as set forth in subparagraphs (a)
 and (c) of the Commercial Computer Software - Restricted
 Rights clause in FAR 52.227-19.
  
 Gaussian, Inc.
 340 Quinnipiac St., Bldg. 40, Wallingford CT 06492
  
  
 ---------------------------------------------------------------
 Warning -- This program may not be used in any manner that
 competes with the business of Gaussian, Inc. or will provide
 assistance to any competitor of Gaussian, Inc.  The licensee
 of this program is prohibited from giving any competitor of
 Gaussian, Inc. access to this program.  By using this program,
 the user acknowledges that Gaussian, Inc. is engaged in the
 business of creating and licensing software in the field of
 computational chemistry and represents and warrants to the
 licensee that it is not a competitor of Gaussian, Inc. and that
 it will not use this program in any manner prohibited above.
 ---------------------------------------------------------------
  

 Cite this work as:
 Gaussian 16, Revision A.03,
 M. J. Frisch, G. W. Trucks, H. B. Schlegel, G. E. Scuseria, 
 M. A. Robb, J. R. Cheeseman, G. Scalmani, V. Barone, 
 G. A. Petersson, H. Nakatsuji, X. Li, M. Caricato, A. V. Marenich, 
 J. Bloino, B. G. Janesko, R. Gomperts, B. Mennucci, H. P. Hratchian, 
 J. V. Ortiz, A. F. Izmaylov, J. L. Sonnenberg, D. Williams-Young, 
 F. Ding, F. Lipparini, F. Egidi, J. Goings, B. Peng, A. Petrone, 
 T. Henderson, D. Ranasinghe, V. G. Zakrzewski, J. Gao, N. Rega, 
 G. Zheng, W. Liang, M. Hada, M. Ehara, K. Toyota, R. Fukuda, 
 J. Hasegawa, M. Ishida, T. Nakajima, Y. Honda, O. Kitao, H. Nakai, 
 T. Vreven, K. Throssell, J. A. Montgomery, Jr., J. E. Peralta, 
 F. Ogliaro, M. J. Bearpark, J. J. Heyd, E. N. Brothers, K. N. Kudin, 
 V. N. Staroverov, T. A. Keith, R. Kobayashi, J. Normand, 
 K. Raghavachari, A. P. Rendell, J. C. Burant, S. S. Iyengar, 
 J. Tomasi, M. Cossi, J. M. Millam, M. Klene, C. Adamo, R. Cammi, 
 J. W. Ochterski, R. L. Martin, K. Morokuma, O. Farkas, 
 J. B. Foresman, and D. J. Fox, Gaussian, Inc., Wallingford CT, 2016.
 
 ******************************************
 Gaussian 16:  ES64L-G16RevA.03 25-Dec-2016
                11-Feb-2020 
 ******************************************
 %chk=checkpoint.chk
 %mem=3GB
 %nprocshared=4
 Will use up to    4 processors via shared memory.
 -----------------------------------------
 #t pop=none jul-cc-pvdz guess=read ub3lyp
 -----------------------------------------
 -------------------------
 theory_abbreviation b3lyp
 -------------------------
 Symbolic Z-matrix:
 Charge =  0 Multiplicity = 6
 O                    -0.31477  -0.13959  -0.65702 
 C                    -1.19131  -1.06757  -0.57325 
 C                    -3.12621  -0.02696   0.10739 
 C                    -2.34832   1.04802  -0.19421 
 C                    -2.33      1.64777  -1.56599 
 Fe                    1.45763   0.07659   0.04967 
 Cl                    2.08481   2.00396  -0.77306 
 C                    -1.56146   1.80023   0.83417 
 Cl                    2.48092  -1.70702  -0.72203 
 Cl                    1.33512   0.05761   2.24968 
 H                    -3.75706  -0.41799  -0.68814 
 H                    -2.1981    2.6049    1.22934 
 H                    -1.24272   1.18731   1.67774 
 H                    -0.6803    2.27244   0.39192 
 H                    -2.6418    2.6978   -1.49229 
 H                    -1.31067   1.64923  -1.96751 
 H                    -3.00525   1.14325  -2.26124 
 C                    -3.50202  -0.47064   1.49656 
 H                    -4.4138    0.05496   1.81075 
 H                    -3.72522  -1.54084   1.53569 
 H                    -2.73131  -0.25452   2.23978 
 C                    -1.1024   -2.03946   0.56874 
 H                    -1.98042  -2.68061   0.64704 
 H                    -0.2319   -2.67265   0.34025 
 H                    -0.89587  -1.54102   1.51598 
 C                    -1.73706  -1.58993  -1.87639 
 H                    -0.93975  -2.22477  -2.28899 
 H                    -2.63174  -2.20066  -1.74473 
 H                    -1.91607  -0.78728  -2.5912 
 
                    Distance matrix (angstroms):
                    1          2          3          4          5
     1  O    0.000000
     2  C    1.279250   0.000000
     3  C    2.915685   2.300000   0.000000
     4  C    2.399990   2.440916   1.360753   0.000000
     5  C    2.842890   3.107280   2.497767   1.497263   0.000000
     6  Fe   1.920298   2.951950   4.585377   3.935538   4.407392
     7  Cl   3.219665   4.495236   5.661671   4.571817   4.499566
     8  C    2.746048   3.215915   2.513018   1.497511   2.524805
     9  Cl   3.205762   3.730450   5.911889   5.584835   5.925516
    10  Cl   3.348120   3.951936   4.949753   4.530043   5.524583
    11  H    3.453671   2.649194   1.088002   2.092295   2.659788
    12  H    3.825901   4.213073   3.007794   2.114935   2.957597
    13  H    2.841279   3.186547   2.736416   2.178525   3.451954
    14  H    2.655519   3.514020   3.369070   2.150591   2.635359
    15  H    3.763452   4.138427   3.196545   2.119646   1.097828
    16  H    2.430868   3.056014   3.226605   2.140736   1.095554
    17  H    3.384951   3.320754   2.644693   2.170992   1.092644
    18  C    3.860841   3.159090   1.505954   2.548743   3.903911
    19  H    4.788508   4.162691   2.136829   3.045039   4.275703
    20  H    4.289829   3.330512   2.165806   3.404501   4.662004
    21  H    3.774167   3.308445   2.180561   2.787050   4.273601
    22  C    2.394229   1.502200   2.891160   3.415688   4.433921
    23  H    3.306314   2.171104   2.940402   3.840020   4.873862
    24  H    2.723557   2.081154   3.928221   4.313725   5.167368
    25  H    2.650207   2.162479   3.041534   3.426003   4.660857
    26  C    2.369234   1.506280   2.882359   3.187810   3.306146
    27  H    2.720644   2.084747   3.918374   4.133198   4.177564
    28  H    3.286254   2.175107   2.898241   3.610860   3.864368
    29  H    2.593209   2.162396   3.053668   3.049704   2.674292
                    6          7          8          9         10
     6  Fe   0.000000
     7  Cl   2.187467   0.000000
     8  C    3.563889   3.989979   0.000000
     9  Cl   2.196335   3.732413   5.573452   0.000000
    10  Cl   2.203499   3.672503   3.664777   3.641132   0.000000
    11  H    5.289801   6.324591   3.472548   6.369856   5.898076
    12  H    4.598737   4.765924   1.099530   6.655352   4.473637
    13  H    3.343090   4.212578   1.090362   5.291650   2.872041
    14  H    3.083777   3.012490   1.093159   5.202913   3.524014
    15  H    5.104291   4.831101   2.717567   6.799853   6.065383
    16  H    3.769055   3.616883   2.816931   5.214577   5.226683
    17  H    5.137643   5.372536   3.478172   6.371121   6.353409
    18  C    5.195301   6.518245   3.059644   6.499720   4.923841
    19  H    6.129898   7.259932   3.483612   7.553590   5.765659
    20  H    5.629056   7.186956   4.041875   6.606134   5.354610
    21  H    4.738510   6.113343   2.750696   6.168420   4.078406
    22  C    3.361675   5.320523   3.876129   3.823190   3.628330
    23  H    4.447377   6.363013   4.504274   4.767148   4.589020
    24  H    3.239944   5.336408   4.692364   3.069244   3.681816
    25  H    3.210250   5.166338   3.474453   4.054499   2.840998
    26  C    4.085714   5.360977   4.344092   4.374652   5.401586
    27  H    4.063621   5.415545   5.132374   3.797942   5.566312
    28  H    5.012851   6.392868   4.878860   5.237255   6.065562
    29  H    4.370623   5.206121   4.307445   4.865512   5.892214
                   11         12         13         14         15
    11  H    0.000000
    12  H    3.904480   0.000000
    13  H    3.807398   1.767306   0.000000
    14  H    4.227455   1.765081   1.774024   0.000000
    15  H    3.405672   2.759127   3.779962   2.752938   0.000000
    16  H    3.448911   3.452638   3.675035   2.520454   1.759896
    17  H    2.340368   3.869374   4.315554   3.704010   1.772004
    18  C    2.200171   3.351205   2.808213   4.087399   4.439846
    19  H    2.626681   3.427764   3.369815   4.568294   4.586354
    20  H    2.491435   4.428668   3.691308   5.012067   5.320577
    21  H    3.106708   3.079221   2.147244   3.742561   4.759474
    22  C    3.355010   4.817362   3.414906   4.336113   5.390657
    23  H    3.171531   5.321944   4.070300   5.127190   5.825929
    24  H    4.309034   5.701655   4.208310   4.965640   6.165021
    25  H    3.782291   4.355065   2.755039   3.981512   5.483205
    26  C    2.620258   5.239724   4.537540   4.602159   4.398946
    27  H    3.710041   6.106375   5.241093   5.242088   5.269098
    28  H    2.358091   5.668022   5.012081   5.327471   4.904965
    29  H    2.673427   5.116927   4.751446   4.448372   3.725597
                   16         17         18         19         20
    16  H    0.000000
    17  H    1.792726   0.000000
    18  C    4.614725   4.119769   0.000000
    19  H    5.142602   4.444038   1.098324   0.000000
    20  H    5.317802   4.705250   1.093926   1.759658   0.000000
    21  H    4.831545   4.721018   1.092284   1.763700   1.771500
    22  C    4.481335   4.664676   3.013338   4.110297   2.839500
    23  H    5.102151   4.912255   2.814418   3.841739   2.265637
    24  H    5.016784   5.387043   4.108474   5.204852   3.861773
    25  H    4.741780   5.091378   2.817464   3.874258   2.829412
    26  C    3.268376   3.037545   3.967957   4.844128   3.949360
    27  H    3.904971   3.951025   4.896187   5.837304   4.780670
    28  H    4.076331   3.404114   3.775749   4.572192   3.520252
    29  H    2.586906   2.241010   4.396051   5.130803   4.568593
                   21         22         23         24         25
    21  H    0.000000
    22  C    2.937978   0.000000
    23  H    2.997765   1.090007   0.000000
    24  H    3.962647   1.100412   1.775240   0.000000
    25  H    2.355375   1.090119   1.797211   1.761752   0.000000
    26  C    4.440124   2.565834   2.759794   2.889853   3.495446
    27  H    5.253702   2.868351   3.148183   2.759450   3.866169
    28  H    4.435500   2.777945   2.524897   3.213896   3.752407
    29  H    4.928164   3.495023   3.751663   3.870968   4.298583
                   26         27         28         29
    26  C    0.000000
    27  H    1.099533   0.000000
    28  H    1.091224   1.777542   0.000000
    29  H    1.089606   1.763775   1.796195   0.000000
 Framework group  C1[X(C8H16Cl3FeO)]
 Deg. of freedom    81
                         Standard orientation:                         
 ---------------------------------------------------------------------
 Center     Atomic      Atomic             Coordinates (Angstroms)
 Number     Number       Type             X           Y           Z
 ---------------------------------------------------------------------
      1          8           0       -0.314767   -0.139593   -0.657015
      2          6           0       -1.191307   -1.067570   -0.573248
      3          6           0       -3.126211   -0.026955    0.107388
      4          6           0       -2.348321    1.048020   -0.194214
      5          6           0       -2.329995    1.647765   -1.565989
      6         26           0        1.457634    0.076585    0.049673
      7         17           0        2.084807    2.003961   -0.773058
      8          6           0       -1.561459    1.800230    0.834167
      9         17           0        2.480916   -1.707023   -0.722030
     10         17           0        1.335121    0.057608    2.249682
     11          1           0       -3.757058   -0.417992   -0.688143
     12          1           0       -2.198100    2.604898    1.229343
     13          1           0       -1.242724    1.187307    1.677744
     14          1           0       -0.680303    2.272438    0.391923
     15          1           0       -2.641802    2.697799   -1.492289
     16          1           0       -1.310674    1.649230   -1.967512
     17          1           0       -3.005246    1.143249   -2.261238
     18          6           0       -3.502024   -0.470643    1.496562
     19          1           0       -4.413805    0.054960    1.810747
     20          1           0       -3.725217   -1.540843    1.535691
     21          1           0       -2.731311   -0.254524    2.239784
     22          6           0       -1.102404   -2.039457    0.568740
     23          1           0       -1.980416   -2.680612    0.647036
     24          1           0       -0.231903   -2.672645    0.340252
     25          1           0       -0.895874   -1.541020    1.515981
     26          6           0       -1.737061   -1.589932   -1.876386
     27          1           0       -0.939746   -2.224768   -2.288993
     28          1           0       -2.631741   -2.200656   -1.744725
     29          1           0       -1.916072   -0.787283   -2.591195
 ---------------------------------------------------------------------
 Rotational constants (GHZ):           0.5859194           0.3334418           0.3136481
   427 basis functions,  1056 primitive gaussians,   461 cartesian basis functions
    77 alpha electrons       72 beta electrons
       nuclear repulsion energy      1645.2081661144 Hartrees.
 NAtoms=   29 NActive=   29 NUniq=   29 SFac= 1.00D+00 NAtFMM=   60 NAOKFM=F Big=F
 Initial guess from the checkpoint file:  "checkpoint.chk"
 B after Tr=     0.000000    0.000000    0.000000
         Rot=    1.000000    0.000000    0.000000    0.000000 Ang=   0.00 deg.
 Initial guess <Sx>= 0.0000 <Sy>= 0.0000 <Sz>= 2.5000 <S**2>= 8.7626 S= 2.5021
 SCF Done:  E(UB3LYP) =  -3034.32923198     A.U. after   13 cycles
            NFock= 13  Conv=0.84D-08     -V/T= 2.0024
 <Sx>= 0.0000 <Sy>= 0.0000 <Sz>= 2.5000 <S**2>= 8.7619 S= 2.5020
 <L.S>= 0.000000000000E+00
 Annihilation of the first spin contaminant:
 S**2 before annihilation     8.7619,   after     8.7500
 1\1\GINC-HOLY7C16202\SP\UB3LYP\Jul-CC-pVDZ\C8H16Cl3Fe1O1(6)\EKWAN\11-F
 eb-2020\0\\#t pop=none jul-cc-pvdz guess=read ub3lyp\\theory_abbreviat
 ion b3lyp\\0,6\O,0,-0.314767,-0.139593,-0.657015\C,0,-1.191307,-1.0675
 7,-0.573248\C,0,-3.126211,-0.026955,0.107388\C,0,-2.348321,1.04802,-0.
 194214\C,0,-2.329995,1.647765,-1.565989\Fe,0,1.457634,0.076585,0.04967
 3\Cl,0,2.084807,2.003961,-0.773058\C,0,-1.561459,1.80023,0.834167\Cl,0
 ,2.480916,-1.707023,-0.72203\Cl,0,1.335121,0.057608,2.249682\H,0,-3.75
 7058,-0.417992,-0.688143\H,0,-2.1981,2.604898,1.229343\H,0,-1.242724,1
 .187307,1.677744\H,0,-0.680303,2.272438,0.391923\H,0,-2.641802,2.69779
 9,-1.492289\H,0,-1.310674,1.64923,-1.967512\H,0,-3.005246,1.143249,-2.
 261238\C,0,-3.502024,-0.470643,1.496562\H,0,-4.413805,0.05496,1.810747
 \H,0,-3.725217,-1.540843,1.535691\H,0,-2.731311,-0.254524,2.239784\C,0
 ,-1.102404,-2.039457,0.56874\H,0,-1.980416,-2.680612,0.647036\H,0,-0.2
 31903,-2.672645,0.340252\H,0,-0.895874,-1.54102,1.515981\C,0,-1.737061
 ,-1.589932,-1.876386\H,0,-0.939746,-2.224768,-2.288993\H,0,-2.631741,-
 2.200656,-1.744725\H,0,-1.916072,-0.787283,-2.591195\\Version=ES64L-G1
 6RevA.03\HF=-3034.329232\S2=8.761895\S2-1=0.\S2A=8.750044\RMSD=8.356e-
 09\PG=C01 [X(C8H16Cl3Fe1O1)]\\@


 THE PROGRESS OF RIVERS TO THE SEA IS NOT AS RAPID
 AS THAT OF MAN TO ERROR.
                                              -- VOLTAIRE
 Job cpu time:       0 days  0 hours 52 minutes  3.3 seconds.
 Elapsed time:       0 days  0 hours 13 minutes 12.8 seconds.
 File lengths (MBytes):  RWF=    174 Int=      0 D2E=      0 Chk=     13 Scr=      1
 Normal termination of Gaussian 16 at Tue Feb 11 23:52:33 2020.
 Initial command:
 /n/sw/g16_nehalem/g16/l1.exe "/scratch/Gau-104406.inp" -scrdir="/scratch/"
 Entering Link 1 = /n/sw/g16_nehalem/g16/l1.exe PID=    107114.
  
 Copyright (c) 1988,1990,1992,1993,1995,1998,2003,2009,2016,
            Gaussian, Inc.  All Rights Reserved.
  
 This is part of the Gaussian(R) 16 program.  It is based on
 the Gaussian(R) 09 system (copyright 2009, Gaussian, Inc.),
 the Gaussian(R) 03 system (copyright 2003, Gaussian, Inc.),
 the Gaussian(R) 98 system (copyright 1998, Gaussian, Inc.),
 the Gaussian(R) 94 system (copyright 1995, Gaussian, Inc.),
 the Gaussian 92(TM) system (copyright 1992, Gaussian, Inc.),
 the Gaussian 90(TM) system (copyright 1990, Gaussian, Inc.),
 the Gaussian 88(TM) system (copyright 1988, Gaussian, Inc.),
 the Gaussian 86(TM) system (copyright 1986, Carnegie Mellon
 University), and the Gaussian 82(TM) system (copyright 1983,
 Carnegie Mellon University). Gaussian is a federally registered
 trademark of Gaussian, Inc.
  
 This software contains proprietary and confidential information,
 including trade secrets, belonging to Gaussian, Inc.
  
 This software is provided under written license and may be
 used, copied, transmitted, or stored only in accord with that
 written license.
  
 The following legend is applicable only to US Government
 contracts under FAR:
  
                    RESTRICTED RIGHTS LEGEND
  
 Use, reproduction and disclosure by the US Government is
 subject to restrictions as set forth in subparagraphs (a)
 and (c) of the Commercial Computer Software - Restricted
 Rights clause in FAR 52.227-19.
  
 Gaussian, Inc.
 340 Quinnipiac St., Bldg. 40, Wallingford CT 06492
  
  
 ---------------------------------------------------------------
 Warning -- This program may not be used in any manner that
 competes with the business of Gaussian, Inc. or will provide
 assistance to any competitor of Gaussian, Inc.  The licensee
 of this program is prohibited from giving any competitor of
 Gaussian, Inc. access to this program.  By using this program,
 the user acknowledges that Gaussian, Inc. is engaged in the
 business of creating and licensing software in the field of
 computational chemistry and represents and warrants to the
 licensee that it is not a competitor of Gaussian, Inc. and that
 it will not use this program in any manner prohibited above.
 ---------------------------------------------------------------
  

 Cite this work as:
 Gaussian 16, Revision A.03,
 M. J. Frisch, G. W. Trucks, H. B. Schlegel, G. E. Scuseria, 
 M. A. Robb, J. R. Cheeseman, G. Scalmani, V. Barone, 
 G. A. Petersson, H. Nakatsuji, X. Li, M. Caricato, A. V. Marenich, 
 J. Bloino, B. G. Janesko, R. Gomperts, B. Mennucci, H. P. Hratchian, 
 J. V. Ortiz, A. F. Izmaylov, J. L. Sonnenberg, D. Williams-Young, 
 F. Ding, F. Lipparini, F. Egidi, J. Goings, B. Peng, A. Petrone, 
 T. Henderson, D. Ranasinghe, V. G. Zakrzewski, J. Gao, N. Rega, 
 G. Zheng, W. Liang, M. Hada, M. Ehara, K. Toyota, R. Fukuda, 
 J. Hasegawa, M. Ishida, T. Nakajima, Y. Honda, O. Kitao, H. Nakai, 
 T. Vreven, K. Throssell, J. A. Montgomery, Jr., J. E. Peralta, 
 F. Ogliaro, M. J. Bearpark, J. J. Heyd, E. N. Brothers, K. N. Kudin, 
 V. N. Staroverov, T. A. Keith, R. Kobayashi, J. Normand, 
 K. Raghavachari, A. P. Rendell, J. C. Burant, S. S. Iyengar, 
 J. Tomasi, M. Cossi, J. M. Millam, M. Klene, C. Adamo, R. Cammi, 
 J. W. Ochterski, R. L. Martin, K. Morokuma, O. Farkas, 
 J. B. Foresman, and D. J. Fox, Gaussian, Inc., Wallingford CT, 2016.
 
 ******************************************
 Gaussian 16:  ES64L-G16RevA.03 25-Dec-2016
                11-Feb-2020 
 ******************************************
 %chk=checkpoint.chk
 %mem=3GB
 %nprocshared=4
 Will use up to    4 processors via shared memory.
 -------------------------------------------------------------------
 #t pop=none jul-cc-pvdz guess=read ub3lyp empiricaldispersion=gd3bj
 -------------------------------------------------------------------
 ------------------------------
 theory_abbreviation b3lyp_d3bj
 ------------------------------
 Symbolic Z-matrix:
 Charge =  0 Multiplicity = 6
 O                    -0.31477  -0.13959  -0.65702 
 C                    -1.19131  -1.06757  -0.57325 
 C                    -3.12621  -0.02696   0.10739 
 C                    -2.34832   1.04802  -0.19421 
 C                    -2.33      1.64777  -1.56599 
 Fe                    1.45763   0.07659   0.04967 
 Cl                    2.08481   2.00396  -0.77306 
 C                    -1.56146   1.80023   0.83417 
 Cl                    2.48092  -1.70702  -0.72203 
 Cl                    1.33512   0.05761   2.24968 
 H                    -3.75706  -0.41799  -0.68814 
 H                    -2.1981    2.6049    1.22934 
 H                    -1.24272   1.18731   1.67774 
 H                    -0.6803    2.27244   0.39192 
 H                    -2.6418    2.6978   -1.49229 
 H                    -1.31067   1.64923  -1.96751 
 H                    -3.00525   1.14325  -2.26124 
 C                    -3.50202  -0.47064   1.49656 
 H                    -4.4138    0.05496   1.81075 
 H                    -3.72522  -1.54084   1.53569 
 H                    -2.73131  -0.25452   2.23978 
 C                    -1.1024   -2.03946   0.56874 
 H                    -1.98042  -2.68061   0.64704 
 H                    -0.2319   -2.67265   0.34025 
 H                    -0.89587  -1.54102   1.51598 
 C                    -1.73706  -1.58993  -1.87639 
 H                    -0.93975  -2.22477  -2.28899 
 H                    -2.63174  -2.20066  -1.74473 
 H                    -1.91607  -0.78728  -2.5912 
 
                    Distance matrix (angstroms):
                    1          2          3          4          5
     1  O    0.000000
     2  C    1.279250   0.000000
     3  C    2.915685   2.300000   0.000000
     4  C    2.399990   2.440916   1.360753   0.000000
     5  C    2.842890   3.107280   2.497767   1.497263   0.000000
     6  Fe   1.920298   2.951950   4.585377   3.935538   4.407392
     7  Cl   3.219665   4.495236   5.661671   4.571817   4.499566
     8  C    2.746048   3.215915   2.513018   1.497511   2.524805
     9  Cl   3.205762   3.730450   5.911889   5.584835   5.925516
    10  Cl   3.348120   3.951936   4.949753   4.530043   5.524583
    11  H    3.453671   2.649194   1.088002   2.092295   2.659788
    12  H    3.825901   4.213073   3.007794   2.114935   2.957597
    13  H    2.841279   3.186547   2.736416   2.178525   3.451954
    14  H    2.655519   3.514020   3.369070   2.150591   2.635359
    15  H    3.763452   4.138427   3.196545   2.119646   1.097828
    16  H    2.430868   3.056014   3.226605   2.140736   1.095554
    17  H    3.384951   3.320754   2.644693   2.170992   1.092644
    18  C    3.860841   3.159090   1.505954   2.548743   3.903911
    19  H    4.788508   4.162691   2.136829   3.045039   4.275703
    20  H    4.289829   3.330512   2.165806   3.404501   4.662004
    21  H    3.774167   3.308445   2.180561   2.787050   4.273601
    22  C    2.394229   1.502200   2.891160   3.415688   4.433921
    23  H    3.306314   2.171104   2.940402   3.840020   4.873862
    24  H    2.723557   2.081154   3.928221   4.313725   5.167368
    25  H    2.650207   2.162479   3.041534   3.426003   4.660857
    26  C    2.369234   1.506280   2.882359   3.187810   3.306146
    27  H    2.720644   2.084747   3.918374   4.133198   4.177564
    28  H    3.286254   2.175107   2.898241   3.610860   3.864368
    29  H    2.593209   2.162396   3.053668   3.049704   2.674292
                    6          7          8          9         10
     6  Fe   0.000000
     7  Cl   2.187467   0.000000
     8  C    3.563889   3.989979   0.000000
     9  Cl   2.196335   3.732413   5.573452   0.000000
    10  Cl   2.203499   3.672503   3.664777   3.641132   0.000000
    11  H    5.289801   6.324591   3.472548   6.369856   5.898076
    12  H    4.598737   4.765924   1.099530   6.655352   4.473637
    13  H    3.343090   4.212578   1.090362   5.291650   2.872041
    14  H    3.083777   3.012490   1.093159   5.202913   3.524014
    15  H    5.104291   4.831101   2.717567   6.799853   6.065383
    16  H    3.769055   3.616883   2.816931   5.214577   5.226683
    17  H    5.137643   5.372536   3.478172   6.371121   6.353409
    18  C    5.195301   6.518245   3.059644   6.499720   4.923841
    19  H    6.129898   7.259932   3.483612   7.553590   5.765659
    20  H    5.629056   7.186956   4.041875   6.606134   5.354610
    21  H    4.738510   6.113343   2.750696   6.168420   4.078406
    22  C    3.361675   5.320523   3.876129   3.823190   3.628330
    23  H    4.447377   6.363013   4.504274   4.767148   4.589020
    24  H    3.239944   5.336408   4.692364   3.069244   3.681816
    25  H    3.210250   5.166338   3.474453   4.054499   2.840998
    26  C    4.085714   5.360977   4.344092   4.374652   5.401586
    27  H    4.063621   5.415545   5.132374   3.797942   5.566312
    28  H    5.012851   6.392868   4.878860   5.237255   6.065562
    29  H    4.370623   5.206121   4.307445   4.865512   5.892214
                   11         12         13         14         15
    11  H    0.000000
    12  H    3.904480   0.000000
    13  H    3.807398   1.767306   0.000000
    14  H    4.227455   1.765081   1.774024   0.000000
    15  H    3.405672   2.759127   3.779962   2.752938   0.000000
    16  H    3.448911   3.452638   3.675035   2.520454   1.759896
    17  H    2.340368   3.869374   4.315554   3.704010   1.772004
    18  C    2.200171   3.351205   2.808213   4.087399   4.439846
    19  H    2.626681   3.427764   3.369815   4.568294   4.586354
    20  H    2.491435   4.428668   3.691308   5.012067   5.320577
    21  H    3.106708   3.079221   2.147244   3.742561   4.759474
    22  C    3.355010   4.817362   3.414906   4.336113   5.390657
    23  H    3.171531   5.321944   4.070300   5.127190   5.825929
    24  H    4.309034   5.701655   4.208310   4.965640   6.165021
    25  H    3.782291   4.355065   2.755039   3.981512   5.483205
    26  C    2.620258   5.239724   4.537540   4.602159   4.398946
    27  H    3.710041   6.106375   5.241093   5.242088   5.269098
    28  H    2.358091   5.668022   5.012081   5.327471   4.904965
    29  H    2.673427   5.116927   4.751446   4.448372   3.725597
                   16         17         18         19         20
    16  H    0.000000
    17  H    1.792726   0.000000
    18  C    4.614725   4.119769   0.000000
    19  H    5.142602   4.444038   1.098324   0.000000
    20  H    5.317802   4.705250   1.093926   1.759658   0.000000
    21  H    4.831545   4.721018   1.092284   1.763700   1.771500
    22  C    4.481335   4.664676   3.013338   4.110297   2.839500
    23  H    5.102151   4.912255   2.814418   3.841739   2.265637
    24  H    5.016784   5.387043   4.108474   5.204852   3.861773
    25  H    4.741780   5.091378   2.817464   3.874258   2.829412
    26  C    3.268376   3.037545   3.967957   4.844128   3.949360
    27  H    3.904971   3.951025   4.896187   5.837304   4.780670
    28  H    4.076331   3.404114   3.775749   4.572192   3.520252
    29  H    2.586906   2.241010   4.396051   5.130803   4.568593
                   21         22         23         24         25
    21  H    0.000000
    22  C    2.937978   0.000000
    23  H    2.997765   1.090007   0.000000
    24  H    3.962647   1.100412   1.775240   0.000000
    25  H    2.355375   1.090119   1.797211   1.761752   0.000000
    26  C    4.440124   2.565834   2.759794   2.889853   3.495446
    27  H    5.253702   2.868351   3.148183   2.759450   3.866169
    28  H    4.435500   2.777945   2.524897   3.213896   3.752407
    29  H    4.928164   3.495023   3.751663   3.870968   4.298583
                   26         27         28         29
    26  C    0.000000
    27  H    1.099533   0.000000
    28  H    1.091224   1.777542   0.000000
    29  H    1.089606   1.763775   1.796195   0.000000
 Framework group  C1[X(C8H16Cl3FeO)]
 Deg. of freedom    81
                         Standard orientation:                         
 ---------------------------------------------------------------------
 Center     Atomic      Atomic             Coordinates (Angstroms)
 Number     Number       Type             X           Y           Z
 ---------------------------------------------------------------------
      1          8           0       -0.314767   -0.139593   -0.657015
      2          6           0       -1.191307   -1.067570   -0.573248
      3          6           0       -3.126211   -0.026955    0.107388
      4          6           0       -2.348321    1.048020   -0.194214
      5          6           0       -2.329995    1.647765   -1.565989
      6         26           0        1.457634    0.076585    0.049673
      7         17           0        2.084807    2.003961   -0.773058
      8          6           0       -1.561459    1.800230    0.834167
      9         17           0        2.480916   -1.707023   -0.722030
     10         17           0        1.335121    0.057608    2.249682
     11          1           0       -3.757058   -0.417992   -0.688143
     12          1           0       -2.198100    2.604898    1.229343
     13          1           0       -1.242724    1.187307    1.677744
     14          1           0       -0.680303    2.272438    0.391923
     15          1           0       -2.641802    2.697799   -1.492289
     16          1           0       -1.310674    1.649230   -1.967512
     17          1           0       -3.005246    1.143249   -2.261238
     18          6           0       -3.502024   -0.470643    1.496562
     19          1           0       -4.413805    0.054960    1.810747
     20          1           0       -3.725217   -1.540843    1.535691
     21          1           0       -2.731311   -0.254524    2.239784
     22          6           0       -1.102404   -2.039457    0.568740
     23          1           0       -1.980416   -2.680612    0.647036
     24          1           0       -0.231903   -2.672645    0.340252
     25          1           0       -0.895874   -1.541020    1.515981
     26          6           0       -1.737061   -1.589932   -1.876386
     27          1           0       -0.939746   -2.224768   -2.288993
     28          1           0       -2.631741   -2.200656   -1.744725
     29          1           0       -1.916072   -0.787283   -2.591195
 ---------------------------------------------------------------------
 Rotational constants (GHZ):           0.5859194           0.3334418           0.3136481
   427 basis functions,  1056 primitive gaussians,   461 cartesian basis functions
    77 alpha electrons       72 beta electrons
       nuclear repulsion energy      1645.2081661144 Hartrees.
 NAtoms=   29 NActive=   29 NUniq=   29 SFac= 1.00D+00 NAtFMM=   60 NAOKFM=F Big=F
 Nuclear repulsion after empirical dispersion term =     1645.1377132406 Hartrees.
 Initial guess from the checkpoint file:  "checkpoint.chk"
 B after Tr=     0.000000    0.000000    0.000000
         Rot=    1.000000    0.000000    0.000000    0.000000 Ang=   0.00 deg.
 Initial guess <Sx>= 0.0000 <Sy>= 0.0000 <Sz>= 2.5000 <S**2>= 8.7619 S= 2.5020
 SCF Done:  E(UB3LYP) =  -3034.39968485     A.U. after    1 cycles
            NFock=  1  Conv=0.53D-08     -V/T= 2.0024
 <Sx>= 0.0000 <Sy>= 0.0000 <Sz>= 2.5000 <S**2>= 8.7619 S= 2.5020
 <L.S>= 0.000000000000E+00
 Annihilation of the first spin contaminant:
 S**2 before annihilation     8.7619,   after     8.7500
 1\1\GINC-HOLY7C16202\SP\UB3LYP\Jul-CC-pVDZ\C8H16Cl3Fe1O1(6)\EKWAN\11-F
 eb-2020\0\\#t pop=none jul-cc-pvdz guess=read ub3lyp empiricaldispersi
 on=gd3bj\\theory_abbreviation b3lyp_d3bj\\0,6\O,0,-0.314767,-0.139593,
 -0.657015\C,0,-1.191307,-1.06757,-0.573248\C,0,-3.126211,-0.026955,0.1
 07388\C,0,-2.348321,1.04802,-0.194214\C,0,-2.329995,1.647765,-1.565989
 \Fe,0,1.457634,0.076585,0.049673\Cl,0,2.084807,2.003961,-0.773058\C,0,
 -1.561459,1.80023,0.834167\Cl,0,2.480916,-1.707023,-0.72203\Cl,0,1.335
 121,0.057608,2.249682\H,0,-3.757058,-0.417992,-0.688143\H,0,-2.1981,2.
 604898,1.229343\H,0,-1.242724,1.187307,1.677744\H,0,-0.680303,2.272438
 ,0.391923\H,0,-2.641802,2.697799,-1.492289\H,0,-1.310674,1.64923,-1.96
 7512\H,0,-3.005246,1.143249,-2.261238\C,0,-3.502024,-0.470643,1.496562
 \H,0,-4.413805,0.05496,1.810747\H,0,-3.725217,-1.540843,1.535691\H,0,-
 2.731311,-0.254524,2.239784\C,0,-1.102404,-2.039457,0.56874\H,0,-1.980
 416,-2.680612,0.647036\H,0,-0.231903,-2.672645,0.340252\H,0,-0.895874,
 -1.54102,1.515981\C,0,-1.737061,-1.589932,-1.876386\H,0,-0.939746,-2.2
 24768,-2.288993\H,0,-2.631741,-2.200656,-1.744725\H,0,-1.916072,-0.787
 283,-2.591195\\Version=ES64L-G16RevA.03\HF=-3034.3996849\S2=8.761895\S
 2-1=0.\S2A=8.750044\RMSD=5.315e-09\PG=C01 [X(C8H16Cl3Fe1O1)]\\@


 HE WHO LAUGHS LAST PROBABLY DIDN'T GET THE JOKE.
 Job cpu time:       0 days  0 hours  4 minutes 37.8 seconds.
 Elapsed time:       0 days  0 hours  1 minutes 11.9 seconds.
 File lengths (MBytes):  RWF=    170 Int=      0 D2E=      0 Chk=     13 Scr=      1
 Normal termination of Gaussian 16 at Tue Feb 11 23:53:45 2020.
 Initial command:
 /n/sw/g16_nehalem/g16/l1.exe "/scratch/Gau-104406.inp" -scrdir="/scratch/"
 Entering Link 1 = /n/sw/g16_nehalem/g16/l1.exe PID=    107244.
  
 Copyright (c) 1988,1990,1992,1993,1995,1998,2003,2009,2016,
            Gaussian, Inc.  All Rights Reserved.
  
 This is part of the Gaussian(R) 16 program.  It is based on
 the Gaussian(R) 09 system (copyright 2009, Gaussian, Inc.),
 the Gaussian(R) 03 system (copyright 2003, Gaussian, Inc.),
 the Gaussian(R) 98 system (copyright 1998, Gaussian, Inc.),
 the Gaussian(R) 94 system (copyright 1995, Gaussian, Inc.),
 the Gaussian 92(TM) system (copyright 1992, Gaussian, Inc.),
 the Gaussian 90(TM) system (copyright 1990, Gaussian, Inc.),
 the Gaussian 88(TM) system (copyright 1988, Gaussian, Inc.),
 the Gaussian 86(TM) system (copyright 1986, Carnegie Mellon
 University), and the Gaussian 82(TM) system (copyright 1983,
 Carnegie Mellon University). Gaussian is a federally registered
 trademark of Gaussian, Inc.
  
 This software contains proprietary and confidential information,
 including trade secrets, belonging to Gaussian, Inc.
  
 This software is provided under written license and may be
 used, copied, transmitted, or stored only in accord with that
 written license.
  
 The following legend is applicable only to US Government
 contracts under FAR:
  
                    RESTRICTED RIGHTS LEGEND
  
 Use, reproduction and disclosure by the US Government is
 subject to restrictions as set forth in subparagraphs (a)
 and (c) of the Commercial Computer Software - Restricted
 Rights clause in FAR 52.227-19.
  
 Gaussian, Inc.
 340 Quinnipiac St., Bldg. 40, Wallingford CT 06492
  
  
 ---------------------------------------------------------------
 Warning -- This program may not be used in any manner that
 competes with the business of Gaussian, Inc. or will provide
 assistance to any competitor of Gaussian, Inc.  The licensee
 of this program is prohibited from giving any competitor of
 Gaussian, Inc. access to this program.  By using this program,
 the user acknowledges that Gaussian, Inc. is engaged in the
 business of creating and licensing software in the field of
 computational chemistry and represents and warrants to the
 licensee that it is not a competitor of Gaussian, Inc. and that
 it will not use this program in any manner prohibited above.
 ---------------------------------------------------------------
  

 Cite this work as:
 Gaussian 16, Revision A.03,
 M. J. Frisch, G. W. Trucks, H. B. Schlegel, G. E. Scuseria, 
 M. A. Robb, J. R. Cheeseman, G. Scalmani, V. Barone, 
 G. A. Petersson, H. Nakatsuji, X. Li, M. Caricato, A. V. Marenich, 
 J. Bloino, B. G. Janesko, R. Gomperts, B. Mennucci, H. P. Hratchian, 
 J. V. Ortiz, A. F. Izmaylov, J. L. Sonnenberg, D. Williams-Young, 
 F. Ding, F. Lipparini, F. Egidi, J. Goings, B. Peng, A. Petrone, 
 T. Henderson, D. Ranasinghe, V. G. Zakrzewski, J. Gao, N. Rega, 
 G. Zheng, W. Liang, M. Hada, M. Ehara, K. Toyota, R. Fukuda, 
 J. Hasegawa, M. Ishida, T. Nakajima, Y. Honda, O. Kitao, H. Nakai, 
 T. Vreven, K. Throssell, J. A. Montgomery, Jr., J. E. Peralta, 
 F. Ogliaro, M. J. Bearpark, J. J. Heyd, E. N. Brothers, K. N. Kudin, 
 V. N. Staroverov, T. A. Keith, R. Kobayashi, J. Normand, 
 K. Raghavachari, A. P. Rendell, J. C. Burant, S. S. Iyengar, 
 J. Tomasi, M. Cossi, J. M. Millam, M. Klene, C. Adamo, R. Cammi, 
 J. W. Ochterski, R. L. Martin, K. Morokuma, O. Farkas, 
 J. B. Foresman, and D. J. Fox, Gaussian, Inc., Wallingford CT, 2016.
 
 ******************************************
 Gaussian 16:  ES64L-G16RevA.03 25-Dec-2016
                11-Feb-2020 
 ******************************************
 %chk=checkpoint.chk
 %mem=3GB
 %nprocshared=4
 Will use up to    4 processors via shared memory.
 ----------------------------------------
 #t pop=none jul-cc-pvdz guess=read ub97d
 ----------------------------------------
 ------------------------
 theory_abbreviation b97d
 ------------------------
 Symbolic Z-matrix:
 Charge =  0 Multiplicity = 6
 O                    -0.31477  -0.13959  -0.65702 
 C                    -1.19131  -1.06757  -0.57325 
 C                    -3.12621  -0.02696   0.10739 
 C                    -2.34832   1.04802  -0.19421 
 C                    -2.33      1.64777  -1.56599 
 Fe                    1.45763   0.07659   0.04967 
 Cl                    2.08481   2.00396  -0.77306 
 C                    -1.56146   1.80023   0.83417 
 Cl                    2.48092  -1.70702  -0.72203 
 Cl                    1.33512   0.05761   2.24968 
 H                    -3.75706  -0.41799  -0.68814 
 H                    -2.1981    2.6049    1.22934 
 H                    -1.24272   1.18731   1.67774 
 H                    -0.6803    2.27244   0.39192 
 H                    -2.6418    2.6978   -1.49229 
 H                    -1.31067   1.64923  -1.96751 
 H                    -3.00525   1.14325  -2.26124 
 C                    -3.50202  -0.47064   1.49656 
 H                    -4.4138    0.05496   1.81075 
 H                    -3.72522  -1.54084   1.53569 
 H                    -2.73131  -0.25452   2.23978 
 C                    -1.1024   -2.03946   0.56874 
 H                    -1.98042  -2.68061   0.64704 
 H                    -0.2319   -2.67265   0.34025 
 H                    -0.89587  -1.54102   1.51598 
 C                    -1.73706  -1.58993  -1.87639 
 H                    -0.93975  -2.22477  -2.28899 
 H                    -2.63174  -2.20066  -1.74473 
 H                    -1.91607  -0.78728  -2.5912 
 
                    Distance matrix (angstroms):
                    1          2          3          4          5
     1  O    0.000000
     2  C    1.279250   0.000000
     3  C    2.915685   2.300000   0.000000
     4  C    2.399990   2.440916   1.360753   0.000000
     5  C    2.842890   3.107280   2.497767   1.497263   0.000000
     6  Fe   1.920298   2.951950   4.585377   3.935538   4.407392
     7  Cl   3.219665   4.495236   5.661671   4.571817   4.499566
     8  C    2.746048   3.215915   2.513018   1.497511   2.524805
     9  Cl   3.205762   3.730450   5.911889   5.584835   5.925516
    10  Cl   3.348120   3.951936   4.949753   4.530043   5.524583
    11  H    3.453671   2.649194   1.088002   2.092295   2.659788
    12  H    3.825901   4.213073   3.007794   2.114935   2.957597
    13  H    2.841279   3.186547   2.736416   2.178525   3.451954
    14  H    2.655519   3.514020   3.369070   2.150591   2.635359
    15  H    3.763452   4.138427   3.196545   2.119646   1.097828
    16  H    2.430868   3.056014   3.226605   2.140736   1.095554
    17  H    3.384951   3.320754   2.644693   2.170992   1.092644
    18  C    3.860841   3.159090   1.505954   2.548743   3.903911
    19  H    4.788508   4.162691   2.136829   3.045039   4.275703
    20  H    4.289829   3.330512   2.165806   3.404501   4.662004
    21  H    3.774167   3.308445   2.180561   2.787050   4.273601
    22  C    2.394229   1.502200   2.891160   3.415688   4.433921
    23  H    3.306314   2.171104   2.940402   3.840020   4.873862
    24  H    2.723557   2.081154   3.928221   4.313725   5.167368
    25  H    2.650207   2.162479   3.041534   3.426003   4.660857
    26  C    2.369234   1.506280   2.882359   3.187810   3.306146
    27  H    2.720644   2.084747   3.918374   4.133198   4.177564
    28  H    3.286254   2.175107   2.898241   3.610860   3.864368
    29  H    2.593209   2.162396   3.053668   3.049704   2.674292
                    6          7          8          9         10
     6  Fe   0.000000
     7  Cl   2.187467   0.000000
     8  C    3.563889   3.989979   0.000000
     9  Cl   2.196335   3.732413   5.573452   0.000000
    10  Cl   2.203499   3.672503   3.664777   3.641132   0.000000
    11  H    5.289801   6.324591   3.472548   6.369856   5.898076
    12  H    4.598737   4.765924   1.099530   6.655352   4.473637
    13  H    3.343090   4.212578   1.090362   5.291650   2.872041
    14  H    3.083777   3.012490   1.093159   5.202913   3.524014
    15  H    5.104291   4.831101   2.717567   6.799853   6.065383
    16  H    3.769055   3.616883   2.816931   5.214577   5.226683
    17  H    5.137643   5.372536   3.478172   6.371121   6.353409
    18  C    5.195301   6.518245   3.059644   6.499720   4.923841
    19  H    6.129898   7.259932   3.483612   7.553590   5.765659
    20  H    5.629056   7.186956   4.041875   6.606134   5.354610
    21  H    4.738510   6.113343   2.750696   6.168420   4.078406
    22  C    3.361675   5.320523   3.876129   3.823190   3.628330
    23  H    4.447377   6.363013   4.504274   4.767148   4.589020
    24  H    3.239944   5.336408   4.692364   3.069244   3.681816
    25  H    3.210250   5.166338   3.474453   4.054499   2.840998
    26  C    4.085714   5.360977   4.344092   4.374652   5.401586
    27  H    4.063621   5.415545   5.132374   3.797942   5.566312
    28  H    5.012851   6.392868   4.878860   5.237255   6.065562
    29  H    4.370623   5.206121   4.307445   4.865512   5.892214
                   11         12         13         14         15
    11  H    0.000000
    12  H    3.904480   0.000000
    13  H    3.807398   1.767306   0.000000
    14  H    4.227455   1.765081   1.774024   0.000000
    15  H    3.405672   2.759127   3.779962   2.752938   0.000000
    16  H    3.448911   3.452638   3.675035   2.520454   1.759896
    17  H    2.340368   3.869374   4.315554   3.704010   1.772004
    18  C    2.200171   3.351205   2.808213   4.087399   4.439846
    19  H    2.626681   3.427764   3.369815   4.568294   4.586354
    20  H    2.491435   4.428668   3.691308   5.012067   5.320577
    21  H    3.106708   3.079221   2.147244   3.742561   4.759474
    22  C    3.355010   4.817362   3.414906   4.336113   5.390657
    23  H    3.171531   5.321944   4.070300   5.127190   5.825929
    24  H    4.309034   5.701655   4.208310   4.965640   6.165021
    25  H    3.782291   4.355065   2.755039   3.981512   5.483205
    26  C    2.620258   5.239724   4.537540   4.602159   4.398946
    27  H    3.710041   6.106375   5.241093   5.242088   5.269098
    28  H    2.358091   5.668022   5.012081   5.327471   4.904965
    29  H    2.673427   5.116927   4.751446   4.448372   3.725597
                   16         17         18         19         20
    16  H    0.000000
    17  H    1.792726   0.000000
    18  C    4.614725   4.119769   0.000000
    19  H    5.142602   4.444038   1.098324   0.000000
    20  H    5.317802   4.705250   1.093926   1.759658   0.000000
    21  H    4.831545   4.721018   1.092284   1.763700   1.771500
    22  C    4.481335   4.664676   3.013338   4.110297   2.839500
    23  H    5.102151   4.912255   2.814418   3.841739   2.265637
    24  H    5.016784   5.387043   4.108474   5.204852   3.861773
    25  H    4.741780   5.091378   2.817464   3.874258   2.829412
    26  C    3.268376   3.037545   3.967957   4.844128   3.949360
    27  H    3.904971   3.951025   4.896187   5.837304   4.780670
[...]
 Rotational constants (GHZ):           0.5859194           0.3334418           0.3136481
   427 basis functions,  1056 primitive gaussians,   461 cartesian basis functions
    77 alpha electrons       72 beta electrons
       nuclear repulsion energy      1645.2081661144 Hartrees.
 NAtoms=   29 NActive=   29 NUniq=   29 SFac= 1.00D+00 NAtFMM=   60 NAOKFM=F Big=F
 Nuclear repulsion after empirical dispersion term =     1645.2057172676 Hartrees.
 Initial guess from the checkpoint file:  "checkpoint.chk"
 B after Tr=     0.000000    0.000000    0.000000
         Rot=    1.000000    0.000000    0.000000    0.000000 Ang=   0.00 deg.
 Initial guess <Sx>= 0.0000 <Sy>= 0.0000 <Sz>= 2.5000 <S**2>= 8.7616 S= 2.5019
 SCF Done:  E(UM06L) =  -3034.19793813     A.U. after   17 cycles
            NFock= 17  Conv=0.78D-08     -V/T= 2.0020
 <Sx>= 0.0000 <Sy>= 0.0000 <Sz>= 2.5000 <S**2>= 8.7616 S= 2.5019
 <L.S>= 0.000000000000E+00
 Annihilation of the first spin contaminant:
 S**2 before annihilation     8.7616,   after     8.7500
 1\1\GINC-HOLY7C16202\SP\UM06L\Jul-CC-pVDZ\C8H16Cl3Fe1O1(6)\EKWAN\12-Fe
 b-2020\0\\#t pop=none jul-cc-pvdz guess=read um06l empiricaldispersion
 =gd3\\theory_abbreviation m06l_d3\\0,6\O,0,-0.314767,-0.139593,-0.6570
 15\C,0,-1.191307,-1.06757,-0.573248\C,0,-3.126211,-0.026955,0.107388\C
 ,0,-2.348321,1.04802,-0.194214\C,0,-2.329995,1.647765,-1.565989\Fe,0,1
 .457634,0.076585,0.049673\Cl,0,2.084807,2.003961,-0.773058\C,0,-1.5614
 59,1.80023,0.834167\Cl,0,2.480916,-1.707023,-0.72203\Cl,0,1.335121,0.0
 57608,2.249682\H,0,-3.757058,-0.417992,-0.688143\H,0,-2.1981,2.604898,
 1.229343\H,0,-1.242724,1.187307,1.677744\H,0,-0.680303,2.272438,0.3919
 23\H,0,-2.641802,2.697799,-1.492289\H,0,-1.310674,1.64923,-1.967512\H,
 0,-3.005246,1.143249,-2.261238\C,0,-3.502024,-0.470643,1.496562\H,0,-4
 .413805,0.05496,1.810747\H,0,-3.725217,-1.540843,1.535691\H,0,-2.73131
 1,-0.254524,2.239784\C,0,-1.102404,-2.039457,0.56874\H,0,-1.980416,-2.
 680612,0.647036\H,0,-0.231903,-2.672645,0.340252\H,0,-0.895874,-1.5410
 2,1.515981\C,0,-1.737061,-1.589932,-1.876386\H,0,-0.939746,-2.224768,-
 2.288993\H,0,-2.631741,-2.200656,-1.744725\H,0,-1.916072,-0.787283,-2.
 591195\\Version=ES64L-G16RevA.03\HF=-3034.1979381\S2=8.761583\S2-1=0.\
 S2A=8.750043\RMSD=7.800e-09\PG=C01 [X(C8H16Cl3Fe1O1)]\\@


 I DO NOT DEFINE TIME, SPACE, PLACE, AND MOTION, AS BEING WELL KNOWN TO ALL.
                                            -- NEWTON (1642-1726), PRINCIPIA
 Job cpu time:       0 days  1 hours 14 minutes 49.9 seconds.
 Elapsed time:       0 days  0 hours 19 minutes 20.2 seconds.
 File lengths (MBytes):  RWF=    174 Int=      0 D2E=      0 Chk=     13 Scr=      1
 Normal termination of Gaussian 16 at Wed Feb 12 08:26:44 2020.
 Initial command:
 /n/sw/g16_nehalem/g16/l1.exe "/scratch/Gau-104406.inp" -scrdir="/scratch/"
 Entering Link 1 = /n/sw/g16_nehalem/g16/l1.exe PID=    147684.
  
 Copyright (c) 1988,1990,1992,1993,1995,1998,2003,2009,2016,
            Gaussian, Inc.  All Rights Reserved.
  
 This is part of the Gaussian(R) 16 program.  It is based on
 the Gaussian(R) 09 system (copyright 2009, Gaussian, Inc.),
 the Gaussian(R) 03 system (copyright 2003, Gaussian, Inc.),
 the Gaussian(R) 98 system (copyright 1998, Gaussian, Inc.),
 the Gaussian(R) 94 system (copyright 1995, Gaussian, Inc.),
 the Gaussian 92(TM) system (copyright 1992, Gaussian, Inc.),
 the Gaussian 90(TM) system (copyright 1990, Gaussian, Inc.),
 the Gaussian 88(TM) system (copyright 1988, Gaussian, Inc.),
 the Gaussian 86(TM) system (copyright 1986, Carnegie Mellon
 University), and the Gaussian 82(TM) system (copyright 1983,
 Carnegie Mellon University). Gaussian is a federally registered
 trademark of Gaussian, Inc.
  
 This software contains proprietary and confidential information,
 including trade secrets, belonging to Gaussian, Inc.
  
 This software is provided under written license and may be
 used, copied, transmitted, or stored only in accord with that
 written license.
  
 The following legend is applicable only to US Government
 contracts under FAR:
  
                    RESTRICTED RIGHTS LEGEND
  
 Use, reproduction and disclosure by the US Government is
 subject to restrictions as set forth in subparagraphs (a)
 and (c) of the Commercial Computer Software - Restricted
 Rights clause in FAR 52.227-19.
  
 Gaussian, Inc.
 340 Quinnipiac St., Bldg. 40, Wallingford CT 06492
  
  
 ---------------------------------------------------------------
 Warning -- This program may not be used in any manner that
 competes with the business of Gaussian, Inc. or will provide
 assistance to any competitor of Gaussian, Inc.  The licensee
 of this program is prohibited from giving any competitor of
 Gaussian, Inc. access to this program.  By using this program,
 the user acknowledges that Gaussian, Inc. is engaged in the
 business of creating and licensing software in the field of
 computational chemistry and represents and warrants to the
 licensee that it is not a competitor of Gaussian, Inc. and that
 it will not use this program in any manner prohibited above.
 ---------------------------------------------------------------
  

 Cite this work as:
 Gaussian 16, Revision A.03,
 M. J. Frisch, G. W. Trucks, H. B. Schlegel, G. E. Scuseria, 
 M. A. Robb, J. R. Cheeseman, G. Scalmani, V. Barone, 
 G. A. Petersson, H. Nakatsuji, X. Li, M. Caricato, A. V. Marenich, 
 J. Bloino, B. G. Janesko, R. Gomperts, B. Mennucci, H. P. Hratchian, 
 J. V. Ortiz, A. F. Izmaylov, J. L. Sonnenberg, D. Williams-Young, 
 F. Ding, F. Lipparini, F. Egidi, J. Goings, B. Peng, A. Petrone, 
 T. Henderson, D. Ranasinghe, V. G. Zakrzewski, J. Gao, N. Rega, 
 G. Zheng, W. Liang, M. Hada, M. Ehara, K. Toyota, R. Fukuda, 
 J. Hasegawa, M. Ishida, T. Nakajima, Y. Honda, O. Kitao, H. Nakai, 
 T. Vreven, K. Throssell, J. A. Montgomery, Jr., J. E. Peralta, 
 F. Ogliaro, M. J. Bearpark, J. J. Heyd, E. N. Brothers, K. N. Kudin, 
 V. N. Staroverov, T. A. Keith, R. Kobayashi, J. Normand, 
 K. Raghavachari, A. P. Rendell, J. C. Burant, S. S. Iyengar, 
 J. Tomasi, M. Cossi, J. M. Millam, M. Klene, C. Adamo, R. Cammi, 
 J. W. Ochterski, R. L. Martin, K. Morokuma, O. Farkas, 
 J. B. Foresman, and D. J. Fox, Gaussian, Inc., Wallingford CT, 2016.
 
 ******************************************
 Gaussian 16:  ES64L-G16RevA.03 25-Dec-2016
                12-Feb-2020 
 ******************************************
 %chk=checkpoint.chk
 %mem=3GB
 %nprocshared=4
 Will use up to    4 processors via shared memory.
 -------------------------------------------------------------------
 #t pop=none jul-cc-pvdz guess=read ub97d3 empiricaldispersion=gd3bj
 -------------------------------------------------------------------
 ------------------------------
 theory_abbreviation b97d3_d3bj
 ------------------------------
 Symbolic Z-matrix:
 Charge =  0 Multiplicity = 6
 O                    -0.31477  -0.13959  -0.65702 
 C                    -1.19131  -1.06757  -0.57325 
 C                    -3.12621  -0.02696   0.10739 
 C                    -2.34832   1.04802  -0.19421 
 C                    -2.33      1.64777  -1.56599 
 Fe                    1.45763   0.07659   0.04967 
 Cl                    2.08481   2.00396  -0.77306 
 C                    -1.56146   1.80023   0.83417 
 Cl                    2.48092  -1.70702  -0.72203 
 Cl                    1.33512   0.05761   2.24968 
 H                    -3.75706  -0.41799  -0.68814 
 H                    -2.1981    2.6049    1.22934 
 H                    -1.24272   1.18731   1.67774 
 H                    -0.6803    2.27244   0.39192 
 H                    -2.6418    2.6978   -1.49229 
 H                    -1.31067   1.64923  -1.96751 
 H                    -3.00525   1.14325  -2.26124 
 C                    -3.50202  -0.47064   1.49656 
 H                    -4.4138    0.05496   1.81075 
 H                    -3.72522  -1.54084   1.53569 
 H                    -2.73131  -0.25452   2.23978 
 C                    -1.1024   -2.03946   0.56874 
 H                    -1.98042  -2.68061   0.64704 
 H                    -0.2319   -2.67265   0.34025 
 H                    -0.89587  -1.54102   1.51598 
 C                    -1.73706  -1.58993  -1.87639 
 H                    -0.93975  -2.22477  -2.28899 
 H                    -2.63174  -2.20066  -1.74473 
 H                    -1.91607  -0.78728  -2.5912 
 
                    Distance matrix (angstroms):
                    1          2          3          4          5
     1  O    0.000000
     2  C    1.279250   0.000000
     3  C    2.915685   2.300000   0.000000
     4  C    2.399990   2.440916   1.360753   0.000000
     5  C    2.842890   3.107280   2.497767   1.497263   0.000000
     6  Fe   1.920298   2.951950   4.585377   3.935538   4.407392
     7  Cl   3.219665   4.495236   5.661671   4.571817   4.499566
     8  C    2.746048   3.215915   2.513018   1.497511   2.524805
     9  Cl   3.205762   3.730450   5.911889   5.584835   5.925516
    10  Cl   3.348120   3.951936   4.949753   4.530043   5.524583
    11  H    3.453671   2.649194   1.088002   2.092295   2.659788
    12  H    3.825901   4.213073   3.007794   2.114935   2.957597
    13  H    2.841279   3.186547   2.736416   2.178525   3.451954
    14  H    2.655519   3.514020   3.369070   2.150591   2.635359
    15  H    3.763452   4.138427   3.196545   2.119646   1.097828
    16  H    2.430868   3.056014   3.226605   2.140736   1.095554
    17  H    3.384951   3.320754   2.644693   2.170992   1.092644
    18  C    3.860841   3.159090   1.505954   2.548743   3.903911
    19  H    4.788508   4.162691   2.136829   3.045039   4.275703
    20  H    4.289829   3.330512   2.165806   3.404501   4.662004
    21  H    3.774167   3.308445   2.180561   2.787050   4.273601
    22  C    2.394229   1.502200   2.891160   3.415688   4.433921
    23  H    3.306314   2.171104   2.940402   3.840020   4.873862
    24  H    2.723557   2.081154   3.928221   4.313725   5.167368
    25  H    2.650207   2.162479   3.041534   3.426003   4.660857
    26  C    2.369234   1.506280   2.882359   3.187810   3.306146
    27  H    2.720644   2.084747   3.918374   4.133198   4.177564
    28  H    3.286254   2.175107   2.898241   3.610860   3.864368
    29  H    2.593209   2.162396   3.053668   3.049704   2.674292
                    6          7          8          9         10
     6  Fe   0.000000
     7  Cl   2.187467   0.000000
     8  C    3.563889   3.989979   0.000000
     9  Cl   2.196335   3.732413   5.573452   0.000000
    10  Cl   2.203499   3.672503   3.664777   3.641132   0.000000
    11  H    5.289801   6.324591   3.472548   6.369856   5.898076
    12  H    4.598737   4.765924   1.099530   6.655352   4.473637
    13  H    3.343090   4.212578   1.090362   5.291650   2.872041
    14  H    3.083777   3.012490   1.093159   5.202913   3.524014
    15  H    5.104291   4.831101   2.717567   6.799853   6.065383
    16  H    3.769055   3.616883   2.816931   5.214577   5.226683
    17  H    5.137643   5.372536   3.478172   6.371121   6.353409
    18  C    5.195301   6.518245   3.059644   6.499720   4.923841
    19  H    6.129898   7.259932   3.483612   7.553590   5.765659
    20  H    5.629056   7.186956   4.041875   6.606134   5.354610
    21  H    4.738510   6.113343   2.750696   6.168420   4.078406
    22  C    3.361675   5.320523   3.876129   3.823190   3.628330
    23  H    4.447377   6.363013   4.504274   4.767148   4.589020
    24  H    3.239944   5.336408   4.692364   3.069244   3.681816
    25  H    3.210250   5.166338   3.474453   4.054499   2.840998
    26  C    4.085714   5.360977   4.344092   4.374652   5.401586
    27  H    4.063621   5.415545   5.132374   3.797942   5.566312
    28  H    5.012851   6.392868   4.878860   5.237255   6.065562
    29  H    4.370623   5.206121   4.307445   4.865512   5.892214
                   11         12         13         14         15
    11  H    0.000000
    12  H    3.904480   0.000000
    13  H    3.807398   1.767306   0.000000
    14  H    4.227455   1.765081   1.774024   0.000000
    15  H    3.405672   2.759127   3.779962   2.752938   0.000000
    16  H    3.448911   3.452638   3.675035   2.520454   1.759896
    17  H    2.340368   3.869374   4.315554   3.704010   1.772004
    18  C    2.200171   3.351205   2.808213   4.087399   4.439846
    19  H    2.626681   3.427764   3.369815   4.568294   4.586354
    20  H    2.491435   4.428668   3.691308   5.012067   5.320577
    21  H    3.106708   3.079221   2.147244   3.742561   4.759474
    22  C    3.355010   4.817362   3.414906   4.336113   5.390657
    23  H    3.171531   5.321944   4.070300   5.127190   5.825929
    24  H    4.309034   5.701655   4.208310   4.965640   6.165021
    25  H    3.782291   4.355065   2.755039   3.981512   5.483205
    26  C    2.620258   5.239724   4.537540   4.602159   4.398946
    27  H    3.710041   6.106375   5.241093   5.242088   5.269098
    28  H    2.358091   5.668022   5.012081   5.327471   4.904965
    29  H    2.673427   5.116927   4.751446   4.448372   3.725597
                   16         17         18         19         20
    16  H    0.000000
    17  H    1.792726   0.000000
    18  C    4.614725   4.119769   0.000000
    19  H    5.142602   4.444038   1.098324   0.000000
    20  H    5.317802   4.705250   1.093926   1.759658   0.000000
    21  H    4.831545   4.721018   1.092284   1.763700   1.771500
    22  C    4.481335   4.664676   3.013338   4.110297   2.839500
    23  H    5.102151   4.912255   2.814418   3.841739   2.265637
    24  H    5.016784   5.387043   4.108474   5.204852   3.861773
    25  H    4.741780   5.091378   2.817464   3.874258   2.829412
    26  C    3.268376   3.037545   3.967957   4.844128   3.949360
    27  H    3.904971   3.951025   4.896187   5.837304   4.780670
    28  H    4.076331   3.404114   3.775749   4.572192   3.520252
    29  H    2.586906   2.241010   4.396051   5.130803   4.568593
                   21         22         23         24         25
    21  H    0.000000
    22  C    2.937978   0.000000
    23  H    2.997765   1.090007   0.000000
    24  H    3.962647   1.100412   1.775240   0.000000
    25  H    2.355375   1.090119   1.797211   1.761752   0.000000
    26  C    4.440124   2.565834   2.759794   2.889853   3.495446
    27  H    5.253702   2.868351   3.148183   2.759450   3.866169
    28  H    4.435500   2.777945   2.524897   3.213896   3.752407
    29  H    4.928164   3.495023   3.751663   3.870968   4.298583
                   26         27         28         29
    26  C    0.000000
    27  H    1.099533   0.000000
    28  H    1.091224   1.777542   0.000000
    29  H    1.089606   1.763775   1.796195   0.000000
 Framework group  C1[X(C8H16Cl3FeO)]
 Deg. of freedom    81
                         Standard orientation:                         
 ---------------------------------------------------------------------
 Center     Atomic      Atomic             Coordinates (Angstroms)
 Number     Number       Type             X           Y           Z
 ---------------------------------------------------------------------
      1          8           0       -0.314767   -0.139593   -0.657015
      2          6           0       -1.191307   -1.067570   -0.573248
      3          6           0       -3.126211   -0.026955    0.107388
      4          6           0       -2.348321    1.048020   -0.194214
      5          6           0       -2.329995    1.647765   -1.565989
      6         26           0        1.457634    0.076585    0.049673
      7         17           0        2.084807    2.003961   -0.773058
      8          6           0       -1.561459    1.800230    0.834167
      9         17           0        2.480916   -1.707023   -0.722030
     10         17           0        1.335121    0.057608    2.249682
     11          1           0       -3.757058   -0.417992   -0.688143
     12          1           0       -2.198100    2.604898    1.229343
     13          1           0       -1.242724    1.187307    1.677744
     14          1           0       -0.680303    2.272438    0.391923
     15          1           0       -2.641802    2.697799   -1.492289
     16          1           0       -1.310674    1.649230   -1.967512
     17          1           0       -3.005246    1.143249   -2.261238
     18          6           0       -3.502024   -0.470643    1.496562
     19          1           0       -4.413805    0.054960    1.810747
     20          1           0       -3.725217   -1.540843    1.535691
     21          1           0       -2.731311   -0.254524    2.239784
     22          6           0       -1.102404   -2.039457    0.568740
     23          1           0       -1.980416   -2.680612    0.647036
     24          1           0       -0.231903   -2.672645    0.340252
     25          1           0       -0.895874   -1.541020    1.515981
     26          6           0       -1.737061   -1.589932   -1.876386
     27          1           0       -0.939746   -2.224768   -2.288993
     28          1           0       -2.631741   -2.200656   -1.744725
     29          1           0       -1.916072   -0.787283   -2.591195
 ---------------------------------------------------------------------
 Rotational constants (GHZ):           0.5859194           0.3334418           0.3136481
   427 basis functions,  1056 primitive gaussians,   461 cartesian basis functions
    77 alpha electrons       72 beta electrons
       nuclear repulsion energy      1645.2081661144 Hartrees.
 NAtoms=   29 NActive=   29 NUniq=   29 SFac= 1.00D+00 NAtFMM=   60 NAOKFM=F Big=F
 Nuclear repulsion after empirical dispersion term =     1645.1046747861 Hartrees.
 Initial guess from the checkpoint file:  "checkpoint.chk"
 B after Tr=     0.000000    0.000000    0.000000
         Rot=    1.000000    0.000000    0.000000    0.000000 Ang=   0.00 deg.
 Initial guess <Sx>= 0.0000 <Sy>= 0.0000 <Sz>= 2.5000 <S**2>= 8.7616 S= 2.5019
 EnCoef did     1 forward-backward iterations
 SCF Done:  E(UB97D3) =  -3034.61978733     A.U. after   17 cycles
            NFock= 17  Conv=0.50D-08     -V/T= 2.0019
 <Sx>= 0.0000 <Sy>= 0.0000 <Sz>= 2.5000 <S**2>= 8.7596 S= 2.5016
 <L.S>= 0.000000000000E+00
 Annihilation of the first spin contaminant:
 S**2 before annihilation     8.7596,   after     8.7500
 1\1\GINC-HOLY7C16202\SP\UB97D3\Jul-CC-pVDZ\C8H16Cl3Fe1O1(6)\EKWAN\12-F
 eb-2020\0\\#t pop=none jul-cc-pvdz guess=read ub97d3 empiricaldispersi
 on=gd3bj\\theory_abbreviation b97d3_d3bj\\0,6\O,0,-0.314767,-0.139593,
 -0.657015\C,0,-1.191307,-1.06757,-0.573248\C,0,-3.126211,-0.026955,0.1
 07388\C,0,-2.348321,1.04802,-0.194214\C,0,-2.329995,1.647765,-1.565989
 \Fe,0,1.457634,0.076585,0.049673\Cl,0,2.084807,2.003961,-0.773058\C,0,
 -1.561459,1.80023,0.834167\Cl,0,2.480916,-1.707023,-0.72203\Cl,0,1.335
 121,0.057608,2.249682\H,0,-3.757058,-0.417992,-0.688143\H,0,-2.1981,2.
 604898,1.229343\H,0,-1.242724,1.187307,1.677744\H,0,-0.680303,2.272438
 ,0.391923\H,0,-2.641802,2.697799,-1.492289\H,0,-1.310674,1.64923,-1.96
 7512\H,0,-3.005246,1.143249,-2.261238\C,0,-3.502024,-0.470643,1.496562
 \H,0,-4.413805,0.05496,1.810747\H,0,-3.725217,-1.540843,1.535691\H,0,-
 2.731311,-0.254524,2.239784\C,0,-1.102404,-2.039457,0.56874\H,0,-1.980
 416,-2.680612,0.647036\H,0,-0.231903,-2.672645,0.340252\H,0,-0.895874,
 -1.54102,1.515981\C,0,-1.737061,-1.589932,-1.876386\H,0,-0.939746,-2.2
 24768,-2.288993\H,0,-2.631741,-2.200656,-1.744725\H,0,-1.916072,-0.787
 283,-2.591195\\Version=ES64L-G16RevA.03\HF=-3034.6197873\S2=8.759608\S
 2-1=0.\S2A=8.750029\RMSD=4.980e-09\PG=C01 [X(C8H16Cl3Fe1O1)]\\@


 MOST BUREAUCRACIES FUNCTION LIKE A SEPTIC TANK.
 THE LARGE CHUNKS RISE TO THE TOP.
 Job cpu time:       0 days  0 hours 56 minutes 45.4 seconds.
 Elapsed time:       0 days  0 hours 17 minutes 38.8 seconds.
 File lengths (MBytes):  RWF=    174 Int=      0 D2E=      0 Chk=     13 Scr=      1
 Normal termination of Gaussian 16 at Wed Feb 12 08:44:46 2020.
