 Entering Gaussian System, Link 0=g16
 Input=simple-grid-200-275-b3lyp_d3bj-631gd-gas-singlepoint-DFT-juldz2-gas.gjf
 Output=simple-grid-200-275-b3lyp_d3bj-631gd-gas-singlepoint-DFT-juldz2-gas.out
 Initial command:
 /n/sw/g16_nehalem/g16/l1.exe "/scratch/Gau-98686.inp" -scrdir="/scratch/"
 Entering Link 1 = /n/sw/g16_nehalem/g16/l1.exe PID=     98698.
  
 Copyright (c) 1988,1990,1992,1993,1995,1998,2003,2009,2016,
            Gaussian, Inc.  All Rights Reserved.
  
 This is part of the Gaussian(R) 16 program.  It is based on
 the Gaussian(R) 09 system (copyright 2009, Gaussian, Inc.),
 the Gaussian(R) 03 system (copyright 2003, Gaussian, Inc.),
 the Gaussian(R) 98 system (copyright 1998, Gaussian, Inc.),
 the Gaussian(R) 94 system (copyright 1995, Gaussian, Inc.),
 the Gaussian 92(TM) system (copyright 1992, Gaussian, Inc.),
 the Gaussian 90(TM) system (copyright 1990, Gaussian, Inc.),
 the Gaussian 88(TM) system (copyright 1988, Gaussian, Inc.),
 the Gaussian 86(TM) system (copyright 1986, Carnegie Mellon
 University), and the Gaussian 82(TM) system (copyright 1983,
 Carnegie Mellon University). Gaussian is a federally registered
 trademark of Gaussian, Inc.
  
 This software contains proprietary and confidential information,
 including trade secrets, belonging to Gaussian, Inc.
  
 This software is provided under written license and may be
 used, copied, transmitted, or stored only in accord with that
 written license.
  
 The following legend is applicable only to US Government
 contracts under FAR:
  
                    RESTRICTED RIGHTS LEGEND
  
 Use, reproduction and disclosure by the US Government is
 subject to restrictions as set forth in subparagraphs (a)
 and (c) of the Commercial Computer Software - Restricted
 Rights clause in FAR 52.227-19.
  
 Gaussian, Inc.
 340 Quinnipiac St., Bldg. 40, Wallingford CT 06492
  
  
 ---------------------------------------------------------------
 Warning -- This program may not be used in any manner that
 competes with the business of Gaussian, Inc. or will provide
 assistance to any competitor of Gaussian, Inc.  The licensee
 of this program is prohibited from giving any competitor of
 Gaussian, Inc. access to this program.  By using this program,
 the user acknowledges that Gaussian, Inc. is engaged in the
 business of creating and licensing software in the field of
 computational chemistry and represents and warrants to the
 licensee that it is not a competitor of Gaussian, Inc. and that
 it will not use this program in any manner prohibited above.
 ---------------------------------------------------------------
  

 Cite this work as:
 Gaussian 16, Revision A.03,
 M. J. Frisch, G. W. Trucks, H. B. Schlegel, G. E. Scuseria, 
 M. A. Robb, J. R. Cheeseman, G. Scalmani, V. Barone, 
 G. A. Petersson, H. Nakatsuji, X. Li, M. Caricato, A. V. Marenich, 
 J. Bloino, B. G. Janesko, R. Gomperts, B. Mennucci, H. P. Hratchian, 
 J. V. Ortiz, A. F. Izmaylov, J. L. Sonnenberg, D. Williams-Young, 
 F. Ding, F. Lipparini, F. Egidi, J. Goings, B. Peng, A. Petrone, 
 T. Henderson, D. Ranasinghe, V. G. Zakrzewski, J. Gao, N. Rega, 
 G. Zheng, W. Liang, M. Hada, M. Ehara, K. Toyota, R. Fukuda, 
 J. Hasegawa, M. Ishida, T. Nakajima, Y. Honda, O. Kitao, H. Nakai, 
 T. Vreven, K. Throssell, J. A. Montgomery, Jr., J. E. Peralta, 
 F. Ogliaro, M. J. Bearpark, J. J. Heyd, E. N. Brothers, K. N. Kudin, 
 V. N. Staroverov, T. A. Keith, R. Kobayashi, J. Normand, 
 K. Raghavachari, A. P. Rendell, J. C. Burant, S. S. Iyengar, 
 J. Tomasi, M. Cossi, J. M. Millam, M. Klene, C. Adamo, R. Cammi, 
 J. W. Ochterski, R. L. Martin, K. Morokuma, O. Farkas, 
 J. B. Foresman, and D. J. Fox, Gaussian, Inc., Wallingford CT, 2016.
 
 ******************************************
 Gaussian 16:  ES64L-G16RevA.03 25-Dec-2016
                11-Feb-2020 
 ******************************************
 %chk=checkpoint.chk
 %mem=3GB
 %nprocshared=4
 Will use up to    4 processors via shared memory.
 --------------------------------
 #t pop=none jul-cc-pvdz upbe1pbe
 --------------------------------
 ------------------------
 theory_abbreviation pbe0
 ------------------------
 Symbolic Z-matrix:
 Charge =  0 Multiplicity = 6
 O                    -0.33187  -0.15748  -0.50606 
 C                    -1.18266  -1.1258   -0.33227 
 C                    -2.6625   -0.34078   0.76035 
 C                    -2.89056   0.7483   -0.0643 
 C                    -3.87311   0.69328  -1.18746 
 Fe                    1.48963   0.17406  -0.07651 
 Cl                    1.82418   2.16615  -0.9331 
 C                    -2.11565   2.00013   0.08152 
 Cl                    2.56899  -1.49075  -1.01927 
 Cl                    1.68419   0.16471   2.12272 
 H                    -3.3689   -1.16355   0.65251 
 H                    -2.55168   2.83172  -0.4765 
 H                    -1.95506   2.28621   1.12404 
 H                    -1.1142    1.79272  -0.33887 
 H                    -4.6817    1.40442  -0.96599 
 H                    -3.42038   1.0324   -2.12778 
 H                    -4.31551  -0.29471  -1.32565 
 C                    -2.08878  -0.14272   2.1521 
 H                    -2.72303   0.54817   2.71968 
 H                    -2.05918  -1.08532   2.70091 
 H                    -1.07652   0.26806   2.13234 
 C                    -0.76244  -2.24504   0.61083 
 H                    -1.58972  -2.91367   0.86063 
 H                    -0.00288  -2.81918   0.06447 
 H                    -0.29354  -1.86508   1.51747 
 C                    -1.8237   -1.63025  -1.61448 
 H                    -1.07028  -2.25643  -2.10737 
 H                    -2.71004  -2.24338  -1.43162 
 H                    -2.06166  -0.8126   -2.29436 
 
                    Distance matrix (angstroms):
                    1          2          3          4          5
     1  O    0.000000
     2  C    1.300651   0.000000
     3  C    2.658799   1.999999   0.000000
     4  C    2.749996   2.549703   1.384974   0.000000
     5  C    3.705194   3.358408   2.515716   1.493295   0.000000
     6  Fe   1.900602   2.982647   4.266794   4.417685   5.501158
     7  Cl   3.198460   4.498777   5.411349   4.999384   5.890086
     8  C    2.860490   3.288337   2.497948   1.479472   2.531175
     9  Cl   3.233572   3.831454   5.644283   5.977625   6.804329
    10  Cl   3.328478   3.988887   4.583148   5.104110   6.490010
    11  H    3.402643   2.398091   1.089763   2.097090   2.662239
    12  H    3.723403   4.190104   3.406877   2.150669   2.612389
    13  H    3.356124   3.789359   2.744775   2.156955   3.399907
    14  H    2.107910   2.919334   2.856104   2.078859   3.088764
    15  H    4.644577   4.364276   3.178548   2.109914   1.099362
    16  H    3.685741   3.590137   3.286539   2.149280   1.097350
    17  H    4.069393   3.390025   2.661953   2.170110   1.091300
    18  C    3.186337   2.821273   1.518331   2.519755   3.877546
    19  H    4.076879   3.806482   2.152406   2.796179   4.075470
    20  H    3.758878   3.157552   2.164280   3.420489   4.644695
    21  H    2.774302   2.833451   2.183661   2.889050   4.361518
    22  C    2.406389   1.522729   2.694211   3.734267   4.641529
    23  H    3.323645   2.187508   2.789381   3.994706   4.734826
    24  H    2.741965   2.101621   3.701388   4.591533   5.374322
    25  H    2.648029   2.181426   2.916963   4.009521   5.164800
    26  C    2.371327   1.519687   2.829506   3.032939   3.127484
    27  H    2.741356   2.107583   3.798506   4.063979   4.171667
    28  H    3.295958   2.188707   2.902911   3.294287   3.168015
    29  H    2.572814   2.172675   3.148791   2.845466   2.602738
                    6          7          8          9         10
     6  Fe   0.000000
     7  Cl   2.194101   0.000000
     8  C    4.044444   4.071758   0.000000
     9  Cl   2.196685   3.732973   5.945069   0.000000
    10  Cl   2.207832   3.655592   4.687651   3.659984   0.000000
    11  H    5.091751   6.369383   3.450445   6.177410   5.427659
    12  H    4.853380   4.449673   1.092259   6.723065   5.640163
    13  H    4.215253   4.304518   1.092925   6.271063   4.329234
    14  H    3.077145   3.021030   1.105729   4.980968   4.067040
    15  H    6.355334   6.550403   2.834922   7.807521   7.183425
    16  H    5.390051   5.497092   2.742231   6.592999   6.698975
    17  H    5.956488   6.626137   3.476468   6.994336   6.935325
    18  C    4.227534   5.491863   2.979911   5.793926   3.785591
    19  H    5.070016   6.052905   3.071970   6.792818   4.463965
    20  H    4.679120   6.233664   4.047775   5.951815   3.988701
    21  H    3.387176   4.627495   2.878503   5.129894   2.762660
    22  C    3.375833   5.341611   4.486961   3.784780   3.752155
    23  H    4.460349   6.377831   5.002907   4.780547   4.667738
    24  H    3.347675   5.402475   5.262115   3.090908   3.998270
    25  H    3.143020   5.171156   4.507988   3.843081   2.897896
    26  C    4.074191   5.308852   4.017621   4.435029   5.430818
    27  H    4.072447   5.414426   4.899216   3.874860   5.598449
    28  H    5.031656   6.344416   4.544262   5.348330   6.143407
    29  H    4.301628   5.081899   3.682279   4.850633   5.873421
                   11         12         13         14         15
    11  H    0.000000
    12  H    4.231390   0.000000
    13  H    3.757937   1.793112   0.000000
    14  H    3.847860   1.778988   1.758030   0.000000
    15  H    3.307183   2.610323   3.546879   3.642956   0.000000
    16  H    3.543285   2.592091   3.780681   3.016085   1.754736
    17  H    2.358830   3.688729   4.270111   3.947089   1.774963
    18  C    2.220259   3.996382   2.640923   3.301614   4.340432
    19  H    2.760495   3.931850   2.481246   3.673133   4.260716
    20  H    2.432578   5.067710   3.723516   4.291433   5.150010
    21  H    3.081302   3.943919   2.421040   2.903946   4.887571
    22  C    2.822229   5.491546   4.713586   4.162829   5.582607
    23  H    2.504332   5.976850   5.219343   4.880065   5.616293
    24  H    3.796968   6.222672   5.567643   4.761023   6.386861
    25  H    3.270797   5.579878   4.488723   4.183183   6.009424
    26  C    2.782919   4.661981   4.780724   3.721194   4.218753
    27  H    3.754317   5.544683   5.644497   4.418727   5.267530
    28  H    2.437972   5.166623   5.255337   4.475596   4.172616
    29  H    3.242847   4.101929   4.615131   3.392542   3.680268
                   16         17         18         19         20
    16  H    0.000000
    17  H    1.790502   0.000000
    18  C    4.633729   4.132331   0.000000
    19  H    4.921244   4.428447   1.096244   0.000000
    20  H    5.445541   4.682875   1.091132   1.763336   0.000000
    21  H    4.922052   4.771324   1.092616   1.770428   1.766505
    22  C    5.030529   4.491998   2.924795   4.011631   2.719365
    23  H    5.277630   4.366771   3.097592   4.089592   2.636260
    24  H    5.596420   5.186922   3.984043   5.078227   3.766361
    25  H    5.608958   5.169687   2.567520   3.629256   2.264076
    26  C    3.146830   2.841862   4.058332   4.933474   4.356027
    27  H    4.042246   3.871809   4.862932   5.822171   5.046677
    28  H    3.423447   2.527072   4.200207   5.002619   4.340798
    29  H    2.297369   2.507281   4.496715   5.237334   5.002712
                   21         22         23         24         25
    21  H    0.000000
    22  C    2.954540   0.000000
    23  H    3.464682   1.092648   0.000000
    24  H    3.867796   1.097759   1.777888   0.000000
    25  H    2.354021   1.089144   1.791942   1.762386   0.000000
    26  C    4.266206   2.540910   2.797871   2.747328   3.493658
    27  H    4.934391   2.735592   3.083957   2.484532   3.727725
    28  H    4.655917   2.822185   2.637953   3.146192   3.831409
    29  H    4.661978   3.489977   3.819839   3.718734   4.331744
                   26         27         28         29
    26  C    0.000000
    27  H    1.096670   0.000000
    28  H    1.093146   1.773584   0.000000
    29  H    1.089680   1.761370   1.792166   0.000000
 Framework group  C1[X(C8H16Cl3FeO)]
 Deg. of freedom    81
                         Standard orientation:                         
 ---------------------------------------------------------------------
 Center     Atomic      Atomic             Coordinates (Angstroms)
 Number     Number       Type             X           Y           Z
 ---------------------------------------------------------------------
      1          8           0       -0.331869   -0.157480   -0.506058
      2          6           0       -1.182659   -1.125802   -0.332271
      3          6           0       -2.662495   -0.340781    0.760352
      4          6           0       -2.890558    0.748299   -0.064296
      5          6           0       -3.873107    0.693275   -1.187461
      6         26           0        1.489629    0.174061   -0.076506
      7         17           0        1.824178    2.166148   -0.933096
      8          6           0       -2.115647    2.000134    0.081515
      9         17           0        2.568992   -1.490751   -1.019268
     10         17           0        1.684192    0.164708    2.122717
     11          1           0       -3.368895   -1.163552    0.652507
     12          1           0       -2.551679    2.831717   -0.476495
     13          1           0       -1.955061    2.286205    1.124041
     14          1           0       -1.114200    1.792722   -0.338866
     15          1           0       -4.681701    1.404417   -0.965991
     16          1           0       -3.420377    1.032399   -2.127784
     17          1           0       -4.315509   -0.294712   -1.325653
     18          6           0       -2.088781   -0.142724    2.152097
     19          1           0       -2.723027    0.548172    2.719676
     20          1           0       -2.059181   -1.085324    2.700913
     21          1           0       -1.076517    0.268058    2.132345
     22          6           0       -0.762435   -2.245036    0.610826
     23          1           0       -1.589723   -2.913669    0.860633
     24          1           0       -0.002877   -2.819178    0.064468
     25          1           0       -0.293541   -1.865084    1.517473
     26          6           0       -1.823701   -1.630246   -1.614476
     27          1           0       -1.070283   -2.256430   -2.107365
     28          1           0       -2.710037   -2.243385   -1.431617
     29          1           0       -2.061656   -0.812603   -2.294359
 ---------------------------------------------------------------------
 Rotational constants (GHZ):           0.5897679           0.3172465           0.3022470
   427 basis functions,  1056 primitive gaussians,   461 cartesian basis functions
    77 alpha electrons       72 beta electrons
       nuclear repulsion energy      1632.7941048932 Hartrees.
 NAtoms=   29 NActive=   29 NUniq=   29 SFac= 1.00D+00 NAtFMM=   60 NAOKFM=F Big=F
 ExpMin= 1.40D-02 ExpMax= 4.32D+06 ExpMxC= 4.91D+03 IAcc=3 IRadAn=         5 AccDes= 0.00D+00
 Harris functional with IExCor= 1009 and IRadAn=       5 diagonalized for initial guess.
 HarFok:  IExCor= 1009 AccDes= 0.00D+00 IRadAn=         5 IDoV= 1 UseB2=F ITyADJ=14
 ICtDFT=  3500011 ScaDFX=  1.000000  1.000000  1.000000  1.000000
 FoFCou: FMM=F IPFlag=           0 FMFlag=      100000 FMFlg1=           0
         NFxFlg=           0 DoJE=T BraDBF=F KetDBF=T FulRan=T
         wScrn=  0.000000 ICntrl=       500 IOpCl=  0 I1Cent=   200000004 NGrid=           0
         NMat0=    1 NMatS0=      1 NMatT0=    0 NMatD0=    1 NMtDS0=    0 NMtDT0=    0
 Petite list used in FoFCou.
 Initial guess <Sx>= 0.0000 <Sy>= 0.0000 <Sz>= 2.5000 <S**2>= 8.7500 S= 2.5000
 EnCoef did   100 forward-backward iterations
 Restarting incremental Fock formation.
 SCF Done:  E(UPBE1PBE) =  -3033.11521827     A.U. after   21 cycles
            NFock= 21  Conv=0.58D-08     -V/T= 2.0021
 <Sx>= 0.0000 <Sy>= 0.0000 <Sz>= 2.5000 <S**2>= 8.7626 S= 2.5021
 <L.S>= 0.000000000000E+00
 Annihilation of the first spin contaminant:
 S**2 before annihilation     8.7626,   after     8.7500
 1\1\GINC-HOLY7C08607\SP\UPBE1PBE\Jul-CC-pVDZ\C8H16Cl3Fe1O1(6)\EKWAN\11
 -Feb-2020\0\\#t pop=none jul-cc-pvdz upbe1pbe\\theory_abbreviation pbe
 0\\0,6\O,0,-0.331869,-0.15748,-0.506058\C,0,-1.182659,-1.125802,-0.332
 271\C,0,-2.662495,-0.340781,0.760352\C,0,-2.890558,0.748299,-0.064296\
 C,0,-3.873107,0.693275,-1.187461\Fe,0,1.489629,0.174061,-0.076506\Cl,0
 ,1.824178,2.166148,-0.933096\C,0,-2.115647,2.000134,0.081515\Cl,0,2.56
 8992,-1.490751,-1.019268\Cl,0,1.684192,0.164708,2.122717\H,0,-3.368895
 ,-1.163552,0.652507\H,0,-2.551679,2.831717,-0.476495\H,0,-1.955061,2.2
 86205,1.124041\H,0,-1.1142,1.792722,-0.338866\H,0,-4.681701,1.404417,-
 0.965991\H,0,-3.420377,1.032399,-2.127784\H,0,-4.315509,-0.294712,-1.3
 25653\C,0,-2.088781,-0.142724,2.152097\H,0,-2.723027,0.548172,2.719676
 \H,0,-2.059181,-1.085324,2.700913\H,0,-1.076517,0.268058,2.132345\C,0,
 -0.762435,-2.245036,0.610826\H,0,-1.589723,-2.913669,0.860633\H,0,-0.0
 02877,-2.819178,0.064468\H,0,-0.293541,-1.865084,1.517473\C,0,-1.82370
 1,-1.630246,-1.614476\H,0,-1.070283,-2.25643,-2.107365\H,0,-2.710037,-
 2.243385,-1.431617\H,0,-2.061656,-0.812603,-2.294359\\Version=ES64L-G1
 6RevA.03\HF=-3033.1152183\S2=8.762615\S2-1=0.\S2A=8.750049\RMSD=5.806e
 -09\PG=C01 [X(C8H16Cl3Fe1O1)]\\@


 BE CAREFUL NOT TO BECOME TOO GOOD OF A SONGBIRD OR 
 THEY'LL THROW YOU INTO A CAGE.

                                    -- SNOOPY TO WOODSTOCK
 Job cpu time:       0 days  1 hours 31 minutes 14.5 seconds.
 Elapsed time:       0 days  0 hours 22 minutes 53.5 seconds.
 File lengths (MBytes):  RWF=    173 Int=      0 D2E=      0 Chk=     13 Scr=      1
 Normal termination of Gaussian 16 at Tue Feb 11 13:59:13 2020.
 Initial command:
 /n/sw/g16_nehalem/g16/l1.exe "/scratch/Gau-98686.inp" -scrdir="/scratch/"
 Entering Link 1 = /n/sw/g16_nehalem/g16/l1.exe PID=    100802.
  
 Copyright (c) 1988,1990,1992,1993,1995,1998,2003,2009,2016,
            Gaussian, Inc.  All Rights Reserved.
  
 This is part of the Gaussian(R) 16 program.  It is based on
 the Gaussian(R) 09 system (copyright 2009, Gaussian, Inc.),
 the Gaussian(R) 03 system (copyright 2003, Gaussian, Inc.),
 the Gaussian(R) 98 system (copyright 1998, Gaussian, Inc.),
 the Gaussian(R) 94 system (copyright 1995, Gaussian, Inc.),
 the Gaussian 92(TM) system (copyright 1992, Gaussian, Inc.),
 the Gaussian 90(TM) system (copyright 1990, Gaussian, Inc.),
 the Gaussian 88(TM) system (copyright 1988, Gaussian, Inc.),
 the Gaussian 86(TM) system (copyright 1986, Carnegie Mellon
 University), and the Gaussian 82(TM) system (copyright 1983,
 Carnegie Mellon University). Gaussian is a federally registered
 trademark of Gaussian, Inc.
  
 This software contains proprietary and confidential information,
 including trade secrets, belonging to Gaussian, Inc.
  
 This software is provided under written license and may be
 used, copied, transmitted, or stored only in accord with that
 written license.
  
 The following legend is applicable only to US Government
 contracts under FAR:
  
                    RESTRICTED RIGHTS LEGEND
  
 Use, reproduction and disclosure by the US Government is
 subject to restrictions as set forth in subparagraphs (a)
 and (c) of the Commercial Computer Software - Restricted
 Rights clause in FAR 52.227-19.
  
 Gaussian, Inc.
 340 Quinnipiac St., Bldg. 40, Wallingford CT 06492
  
  
 ---------------------------------------------------------------
 Warning -- This program may not be used in any manner that
 competes with the business of Gaussian, Inc. or will provide
 assistance to any competitor of Gaussian, Inc.  The licensee
 of this program is prohibited from giving any competitor of
 Gaussian, Inc. access to this program.  By using this program,
 the user acknowledges that Gaussian, Inc. is engaged in the
 business of creating and licensing software in the field of
 computational chemistry and represents and warrants to the
 licensee that it is not a competitor of Gaussian, Inc. and that
 it will not use this program in any manner prohibited above.
 ---------------------------------------------------------------
  

 Cite this work as:
 Gaussian 16, Revision A.03,
 M. J. Frisch, G. W. Trucks, H. B. Schlegel, G. E. Scuseria, 
 M. A. Robb, J. R. Cheeseman, G. Scalmani, V. Barone, 
 G. A. Petersson, H. Nakatsuji, X. Li, M. Caricato, A. V. Marenich, 
 J. Bloino, B. G. Janesko, R. Gomperts, B. Mennucci, H. P. Hratchian, 
 J. V. Ortiz, A. F. Izmaylov, J. L. Sonnenberg, D. Williams-Young, 
 F. Ding, F. Lipparini, F. Egidi, J. Goings, B. Peng, A. Petrone, 
 T. Henderson, D. Ranasinghe, V. G. Zakrzewski, J. Gao, N. Rega, 
 G. Zheng, W. Liang, M. Hada, M. Ehara, K. Toyota, R. Fukuda, 
 J. Hasegawa, M. Ishida, T. Nakajima, Y. Honda, O. Kitao, H. Nakai, 
 T. Vreven, K. Throssell, J. A. Montgomery, Jr., J. E. Peralta, 
 F. Ogliaro, M. J. Bearpark, J. J. Heyd, E. N. Brothers, K. N. Kudin, 
 V. N. Staroverov, T. A. Keith, R. Kobayashi, J. Normand, 
 K. Raghavachari, A. P. Rendell, J. C. Burant, S. S. Iyengar, 
 J. Tomasi, M. Cossi, J. M. Millam, M. Klene, C. Adamo, R. Cammi, 
 J. W. Ochterski, R. L. Martin, K. Morokuma, O. Farkas, 
 J. B. Foresman, and D. J. Fox, Gaussian, Inc., Wallingford CT, 2016.
 
 ******************************************
 Gaussian 16:  ES64L-G16RevA.03 25-Dec-2016
                11-Feb-2020 
 ******************************************
 %chk=checkpoint.chk
 %mem=3GB
 %nprocshared=4
 Will use up to    4 processors via shared memory.
 ---------------------------------------------------------------------
 #t pop=none jul-cc-pvdz guess=read upbe1pbe empiricaldispersion=gd3bj
 ---------------------------------------------------------------------
 -----------------------------
 theory_abbreviation pbe0_d3bj
 -----------------------------
 Symbolic Z-matrix:
 Charge =  0 Multiplicity = 6
 O                    -0.33187  -0.15748  -0.50606 
 C                    -1.18266  -1.1258   -0.33227 
 C                    -2.6625   -0.34078   0.76035 
 C                    -2.89056   0.7483   -0.0643 
 C                    -3.87311   0.69328  -1.18746 
 Fe                    1.48963   0.17406  -0.07651 
 Cl                    1.82418   2.16615  -0.9331 
 C                    -2.11565   2.00013   0.08152 
 Cl                    2.56899  -1.49075  -1.01927 
 Cl                    1.68419   0.16471   2.12272 
 H                    -3.3689   -1.16355   0.65251 
 H                    -2.55168   2.83172  -0.4765 
 H                    -1.95506   2.28621   1.12404 
 H                    -1.1142    1.79272  -0.33887 
 H                    -4.6817    1.40442  -0.96599 
 H                    -3.42038   1.0324   -2.12778 
 H                    -4.31551  -0.29471  -1.32565 
 C                    -2.08878  -0.14272   2.1521 
 H                    -2.72303   0.54817   2.71968 
 H                    -2.05918  -1.08532   2.70091 
 H                    -1.07652   0.26806   2.13234 
 C                    -0.76244  -2.24504   0.61083 
 H                    -1.58972  -2.91367   0.86063 
 H                    -0.00288  -2.81918   0.06447 
 H                    -0.29354  -1.86508   1.51747 
 C                    -1.8237   -1.63025  -1.61448 
 H                    -1.07028  -2.25643  -2.10737 
 H                    -2.71004  -2.24338  -1.43162 
 H                    -2.06166  -0.8126   -2.29436 
 
                    Distance matrix (angstroms):
                    1          2          3          4          5
     1  O    0.000000
     2  C    1.300651   0.000000
     3  C    2.658799   1.999999   0.000000
     4  C    2.749996   2.549703   1.384974   0.000000
     5  C    3.705194   3.358408   2.515716   1.493295   0.000000
     6  Fe   1.900602   2.982647   4.266794   4.417685   5.501158
     7  Cl   3.198460   4.498777   5.411349   4.999384   5.890086
     8  C    2.860490   3.288337   2.497948   1.479472   2.531175
     9  Cl   3.233572   3.831454   5.644283   5.977625   6.804329
    10  Cl   3.328478   3.988887   4.583148   5.104110   6.490010
    11  H    3.402643   2.398091   1.089763   2.097090   2.662239
    12  H    3.723403   4.190104   3.406877   2.150669   2.612389
    13  H    3.356124   3.789359   2.744775   2.156955   3.399907
    14  H    2.107910   2.919334   2.856104   2.078859   3.088764
    15  H    4.644577   4.364276   3.178548   2.109914   1.099362
    16  H    3.685741   3.590137   3.286539   2.149280   1.097350
    17  H    4.069393   3.390025   2.661953   2.170110   1.091300
    18  C    3.186337   2.821273   1.518331   2.519755   3.877546
    19  H    4.076879   3.806482   2.152406   2.796179   4.075470
    20  H    3.758878   3.157552   2.164280   3.420489   4.644695
    21  H    2.774302   2.833451   2.183661   2.889050   4.361518
    22  C    2.406389   1.522729   2.694211   3.734267   4.641529
    23  H    3.323645   2.187508   2.789381   3.994706   4.734826
    24  H    2.741965   2.101621   3.701388   4.591533   5.374322
    25  H    2.648029   2.181426   2.916963   4.009521   5.164800
    26  C    2.371327   1.519687   2.829506   3.032939   3.127484
    27  H    2.741356   2.107583   3.798506   4.063979   4.171667
    28  H    3.295958   2.188707   2.902911   3.294287   3.168015
    29  H    2.572814   2.172675   3.148791   2.845466   2.602738
                    6          7          8          9         10
     6  Fe   0.000000
     7  Cl   2.194101   0.000000
     8  C    4.044444   4.071758   0.000000
     9  Cl   2.196685   3.732973   5.945069   0.000000
    10  Cl   2.207832   3.655592   4.687651   3.659984   0.000000
    11  H    5.091751   6.369383   3.450445   6.177410   5.427659
    12  H    4.853380   4.449673   1.092259   6.723065   5.640163
    13  H    4.215253   4.304518   1.092925   6.271063   4.329234
    14  H    3.077145   3.021030   1.105729   4.980968   4.067040
    15  H    6.355334   6.550403   2.834922   7.807521   7.183425
    16  H    5.390051   5.497092   2.742231   6.592999   6.698975
    17  H    5.956488   6.626137   3.476468   6.994336   6.935325
    18  C    4.227534   5.491863   2.979911   5.793926   3.785591
    19  H    5.070016   6.052905   3.071970   6.792818   4.463965
    20  H    4.679120   6.233664   4.047775   5.951815   3.988701
    21  H    3.387176   4.627495   2.878503   5.129894   2.762660
    22  C    3.375833   5.341611   4.486961   3.784780   3.752155
    23  H    4.460349   6.377831   5.002907   4.780547   4.667738
    24  H    3.347675   5.402475   5.262115   3.090908   3.998270
    25  H    3.143020   5.171156   4.507988   3.843081   2.897896
    26  C    4.074191   5.308852   4.017621   4.435029   5.430818
    27  H    4.072447   5.414426   4.899216   3.874860   5.598449
    28  H    5.031656   6.344416   4.544262   5.348330   6.143407
    29  H    4.301628   5.081899   3.682279   4.850633   5.873421
                   11         12         13         14         15
    11  H    0.000000
    12  H    4.231390   0.000000
    13  H    3.757937   1.793112   0.000000
    14  H    3.847860   1.778988   1.758030   0.000000
    15  H    3.307183   2.610323   3.546879   3.642956   0.000000
    16  H    3.543285   2.592091   3.780681   3.016085   1.754736
    17  H    2.358830   3.688729   4.270111   3.947089   1.774963
    18  C    2.220259   3.996382   2.640923   3.301614   4.340432
    19  H    2.760495   3.931850   2.481246   3.673133   4.260716
    20  H    2.432578   5.067710   3.723516   4.291433   5.150010
    21  H    3.081302   3.943919   2.421040   2.903946   4.887571
    22  C    2.822229   5.491546   4.713586   4.162829   5.582607
    23  H    2.504332   5.976850   5.219343   4.880065   5.616293
    24  H    3.796968   6.222672   5.567643   4.761023   6.386861
    25  H    3.270797   5.579878   4.488723   4.183183   6.009424
    26  C    2.782919   4.661981   4.780724   3.721194   4.218753
    27  H    3.754317   5.544683   5.644497   4.418727   5.267530
    28  H    2.437972   5.166623   5.255337   4.475596   4.172616
    29  H    3.242847   4.101929   4.615131   3.392542   3.680268
                   16         17         18         19         20
    16  H    0.000000
    17  H    1.790502   0.000000
    18  C    4.633729   4.132331   0.000000
    19  H    4.921244   4.428447   1.096244   0.000000
    20  H    5.445541   4.682875   1.091132   1.763336   0.000000
    21  H    4.922052   4.771324   1.092616   1.770428   1.766505
    22  C    5.030529   4.491998   2.924795   4.011631   2.719365
    23  H    5.277630   4.366771   3.097592   4.089592   2.636260
    24  H    5.596420   5.186922   3.984043   5.078227   3.766361
    25  H    5.608958   5.169687   2.567520   3.629256   2.264076
    26  C    3.146830   2.841862   4.058332   4.933474   4.356027
    27  H    4.042246   3.871809   4.862932   5.822171   5.046677
    28  H    3.423447   2.527072   4.200207   5.002619   4.340798
    29  H    2.297369   2.507281   4.496715   5.237334   5.002712
                   21         22         23         24         25
    21  H    0.000000
    22  C    2.954540   0.000000
    23  H    3.464682   1.092648   0.000000
    24  H    3.867796   1.097759   1.777888   0.000000
    25  H    2.354021   1.089144   1.791942   1.762386   0.000000
    26  C    4.266206   2.540910   2.797871   2.747328   3.493658
    27  H    4.934391   2.735592   3.083957   2.484532   3.727725
    28  H    4.655917   2.822185   2.637953   3.146192   3.831409
    29  H    4.661978   3.489977   3.819839   3.718734   4.331744
                   26         27         28         29
    26  C    0.000000
    27  H    1.096670   0.000000
    28  H    1.093146   1.773584   0.000000
    29  H    1.089680   1.761370   1.792166   0.000000
 Framework group  C1[X(C8H16Cl3FeO)]
 Deg. of freedom    81
                         Standard orientation:                         
 ---------------------------------------------------------------------
 Center     Atomic      Atomic             Coordinates (Angstroms)
 Number     Number       Type             X           Y           Z
 ---------------------------------------------------------------------
      1          8           0       -0.331869   -0.157480   -0.506058
      2          6           0       -1.182659   -1.125802   -0.332271
      3          6           0       -2.662495   -0.340781    0.760352
      4          6           0       -2.890558    0.748299   -0.064296
      5          6           0       -3.873107    0.693275   -1.187461
      6         26           0        1.489629    0.174061   -0.076506
      7         17           0        1.824178    2.166148   -0.933096
      8          6           0       -2.115647    2.000134    0.081515
      9         17           0        2.568992   -1.490751   -1.019268
     10         17           0        1.684192    0.164708    2.122717
     11          1           0       -3.368895   -1.163552    0.652507
     12          1           0       -2.551679    2.831717   -0.476495
     13          1           0       -1.955061    2.286205    1.124041
     14          1           0       -1.114200    1.792722   -0.338866
     15          1           0       -4.681701    1.404417   -0.965991
     16          1           0       -3.420377    1.032399   -2.127784
     17          1           0       -4.315509   -0.294712   -1.325653
     18          6           0       -2.088781   -0.142724    2.152097
     19          1           0       -2.723027    0.548172    2.719676
     20          1           0       -2.059181   -1.085324    2.700913
     21          1           0       -1.076517    0.268058    2.132345
     22          6           0       -0.762435   -2.245036    0.610826
     23          1           0       -1.589723   -2.913669    0.860633
     24          1           0       -0.002877   -2.819178    0.064468
     25          1           0       -0.293541   -1.865084    1.517473
     26          6           0       -1.823701   -1.630246   -1.614476
     27          1           0       -1.070283   -2.256430   -2.107365
     28          1           0       -2.710037   -2.243385   -1.431617
     29          1           0       -2.061656   -0.812603   -2.294359
 ---------------------------------------------------------------------
 Rotational constants (GHZ):           0.5897679           0.3172465           0.3022470
   427 basis functions,  1056 primitive gaussians,   461 cartesian basis functions
    77 alpha electrons       72 beta electrons
       nuclear repulsion energy      1632.7941048932 Hartrees.
 NAtoms=   29 NActive=   29 NUniq=   29 SFac= 1.00D+00 NAtFMM=   60 NAOKFM=F Big=F
 Nuclear repulsion after empirical dispersion term =     1632.7578024450 Hartrees.
 Initial guess from the checkpoint file:  "checkpoint.chk"
 B after Tr=     0.000000    0.000000    0.000000
         Rot=    1.000000    0.000000    0.000000    0.000000 Ang=   0.00 deg.
 Initial guess <Sx>= 0.0000 <Sy>= 0.0000 <Sz>= 2.5000 <S**2>= 8.7626 S= 2.5021
 SCF Done:  E(UPBE1PBE) =  -3033.15152072     A.U. after    1 cycles
            NFock=  1  Conv=0.27D-08     -V/T= 2.0021
 <Sx>= 0.0000 <Sy>= 0.0000 <Sz>= 2.5000 <S**2>= 8.7626 S= 2.5021
 <L.S>= 0.000000000000E+00
 Annihilation of the first spin contaminant:
 S**2 before annihilation     8.7626,   after     8.7500
 1\1\GINC-HOLY7C08607\SP\UPBE1PBE\Jul-CC-pVDZ\C8H16Cl3Fe1O1(6)\EKWAN\11
 -Feb-2020\0\\#t pop=none jul-cc-pvdz guess=read upbe1pbe empiricaldisp
 ersion=gd3bj\\theory_abbreviation pbe0_d3bj\\0,6\O,0,-0.331869,-0.1574
 8,-0.506058\C,0,-1.182659,-1.125802,-0.332271\C,0,-2.662495,-0.340781,
 0.760352\C,0,-2.890558,0.748299,-0.064296\C,0,-3.873107,0.693275,-1.18
 7461\Fe,0,1.489629,0.174061,-0.076506\Cl,0,1.824178,2.166148,-0.933096
 \C,0,-2.115647,2.000134,0.081515\Cl,0,2.568992,-1.490751,-1.019268\Cl,
 0,1.684192,0.164708,2.122717\H,0,-3.368895,-1.163552,0.652507\H,0,-2.5
 51679,2.831717,-0.476495\H,0,-1.955061,2.286205,1.124041\H,0,-1.1142,1
 .792722,-0.338866\H,0,-4.681701,1.404417,-0.965991\H,0,-3.420377,1.032
 399,-2.127784\H,0,-4.315509,-0.294712,-1.325653\C,0,-2.088781,-0.14272
 4,2.152097\H,0,-2.723027,0.548172,2.719676\H,0,-2.059181,-1.085324,2.7
 00913\H,0,-1.076517,0.268058,2.132345\C,0,-0.762435,-2.245036,0.610826
 \H,0,-1.589723,-2.913669,0.860633\H,0,-0.002877,-2.819178,0.064468\H,0
 ,-0.293541,-1.865084,1.517473\C,0,-1.823701,-1.630246,-1.614476\H,0,-1
 .070283,-2.25643,-2.107365\H,0,-2.710037,-2.243385,-1.431617\H,0,-2.06
 1656,-0.812603,-2.294359\\Version=ES64L-G16RevA.03\HF=-3033.1515207\S2
 =8.762615\S2-1=0.\S2A=8.750049\RMSD=2.730e-09\PG=C01 [X(C8H16Cl3Fe1O1)
 ]\\@


 COMMON SENSE IS NOT SO COMMON.   -- VOLTAIRE
 Job cpu time:       0 days  0 hours  4 minutes 38.7 seconds.
 Elapsed time:       0 days  0 hours  1 minutes 10.4 seconds.
 File lengths (MBytes):  RWF=    170 Int=      0 D2E=      0 Chk=     13 Scr=      1
 Normal termination of Gaussian 16 at Tue Feb 11 14:00:24 2020.
 Initial command:
 /n/sw/g16_nehalem/g16/l1.exe "/scratch/Gau-98686.inp" -scrdir="/scratch/"
 Entering Link 1 = /n/sw/g16_nehalem/g16/l1.exe PID=    101663.
  
 Copyright (c) 1988,1990,1992,1993,1995,1998,2003,2009,2016,
            Gaussian, Inc.  All Rights Reserved.
  
 This is part of the Gaussian(R) 16 program.  It is based on
 the Gaussian(R) 09 system (copyright 2009, Gaussian, Inc.),
 the Gaussian(R) 03 system (copyright 2003, Gaussian, Inc.),
 the Gaussian(R) 98 system (copyright 1998, Gaussian, Inc.),
 the Gaussian(R) 94 system (copyright 1995, Gaussian, Inc.),
 the Gaussian 92(TM) system (copyright 1992, Gaussian, Inc.),
 the Gaussian 90(TM) system (copyright 1990, Gaussian, Inc.),
 the Gaussian 88(TM) system (copyright 1988, Gaussian, Inc.),
 the Gaussian 86(TM) system (copyright 1986, Carnegie Mellon
 University), and the Gaussian 82(TM) system (copyright 1983,
 Carnegie Mellon University). Gaussian is a federally registered
 trademark of Gaussian, Inc.
  
 This software contains proprietary and confidential information,
 including trade secrets, belonging to Gaussian, Inc.
  
 This software is provided under written license and may be
 used, copied, transmitted, or stored only in accord with that
 written license.
  
 The following legend is applicable only to US Government
 contracts under FAR:
  
                    RESTRICTED RIGHTS LEGEND
  
 Use, reproduction and disclosure by the US Government is
 subject to restrictions as set forth in subparagraphs (a)
 and (c) of the Commercial Computer Software - Restricted
 Rights clause in FAR 52.227-19.
  
 Gaussian, Inc.
 340 Quinnipiac St., Bldg. 40, Wallingford CT 06492
  
  
 ---------------------------------------------------------------
 Warning -- This program may not be used in any manner that
 competes with the business of Gaussian, Inc. or will provide
 assistance to any competitor of Gaussian, Inc.  The licensee
 of this program is prohibited from giving any competitor of
 Gaussian, Inc. access to this program.  By using this program,
 the user acknowledges that Gaussian, Inc. is engaged in the
 business of creating and licensing software in the field of
 computational chemistry and represents and warrants to the
 licensee that it is not a competitor of Gaussian, Inc. and that
 it will not use this program in any manner prohibited above.
 ---------------------------------------------------------------
  

 Cite this work as:
 Gaussian 16, Revision A.03,
 M. J. Frisch, G. W. Trucks, H. B. Schlegel, G. E. Scuseria, 
 M. A. Robb, J. R. Cheeseman, G. Scalmani, V. Barone, 
 G. A. Petersson, H. Nakatsuji, X. Li, M. Caricato, A. V. Marenich, 
 J. Bloino, B. G. Janesko, R. Gomperts, B. Mennucci, H. P. Hratchian, 
 J. V. Ortiz, A. F. Izmaylov, J. L. Sonnenberg, D. Williams-Young, 
 F. Ding, F. Lipparini, F. Egidi, J. Goings, B. Peng, A. Petrone, 
 T. Henderson, D. Ranasinghe, V. G. Zakrzewski, J. Gao, N. Rega, 
 G. Zheng, W. Liang, M. Hada, M. Ehara, K. Toyota, R. Fukuda, 
 J. Hasegawa, M. Ishida, T. Nakajima, Y. Honda, O. Kitao, H. Nakai, 
 T. Vreven, K. Throssell, J. A. Montgomery, Jr., J. E. Peralta, 
 F. Ogliaro, M. J. Bearpark, J. J. Heyd, E. N. Brothers, K. N. Kudin, 
 V. N. Staroverov, T. A. Keith, R. Kobayashi, J. Normand, 
 K. Raghavachari, A. P. Rendell, J. C. Burant, S. S. Iyengar, 
 J. Tomasi, M. Cossi, J. M. Millam, M. Klene, C. Adamo, R. Cammi, 
 J. W. Ochterski, R. L. Martin, K. Morokuma, O. Farkas, 
 J. B. Foresman, and D. J. Fox, Gaussian, Inc., Wallingford CT, 2016.
 
 ******************************************
 Gaussian 16:  ES64L-G16RevA.03 25-Dec-2016
                11-Feb-2020 
 ******************************************
 %chk=checkpoint.chk
 %mem=3GB
 %nprocshared=4
 Will use up to    4 processors via shared memory.
 -----------------------------------------
 #t pop=none jul-cc-pvdz guess=read ub3lyp
 -----------------------------------------
 -------------------------
 theory_abbreviation b3lyp
 -------------------------
 Symbolic Z-matrix:
 Charge =  0 Multiplicity = 6
 O                    -0.33187  -0.15748  -0.50606 
 C                    -1.18266  -1.1258   -0.33227 
 C                    -2.6625   -0.34078   0.76035 
 C                    -2.89056   0.7483   -0.0643 
 C                    -3.87311   0.69328  -1.18746 
 Fe                    1.48963   0.17406  -0.07651 
 Cl                    1.82418   2.16615  -0.9331 
 C                    -2.11565   2.00013   0.08152 
 Cl                    2.56899  -1.49075  -1.01927 
 Cl                    1.68419   0.16471   2.12272 
 H                    -3.3689   -1.16355   0.65251 
 H                    -2.55168   2.83172  -0.4765 
 H                    -1.95506   2.28621   1.12404 
 H                    -1.1142    1.79272  -0.33887 
 H                    -4.6817    1.40442  -0.96599 
 H                    -3.42038   1.0324   -2.12778 
 H                    -4.31551  -0.29471  -1.32565 
 C                    -2.08878  -0.14272   2.1521 
 H                    -2.72303   0.54817   2.71968 
 H                    -2.05918  -1.08532   2.70091 
 H                    -1.07652   0.26806   2.13234 
 C                    -0.76244  -2.24504   0.61083 
 H                    -1.58972  -2.91367   0.86063 
 H                    -0.00288  -2.81918   0.06447 
 H                    -0.29354  -1.86508   1.51747 
 C                    -1.8237   -1.63025  -1.61448 
 H                    -1.07028  -2.25643  -2.10737 
 H                    -2.71004  -2.24338  -1.43162 
 H                    -2.06166  -0.8126   -2.29436 
 
                    Distance matrix (angstroms):
                    1          2          3          4          5
     1  O    0.000000
     2  C    1.300651   0.000000
     3  C    2.658799   1.999999   0.000000
     4  C    2.749996   2.549703   1.384974   0.000000
     5  C    3.705194   3.358408   2.515716   1.493295   0.000000
     6  Fe   1.900602   2.982647   4.266794   4.417685   5.501158
     7  Cl   3.198460   4.498777   5.411349   4.999384   5.890086
     8  C    2.860490   3.288337   2.497948   1.479472   2.531175
     9  Cl   3.233572   3.831454   5.644283   5.977625   6.804329
    10  Cl   3.328478   3.988887   4.583148   5.104110   6.490010
    11  H    3.402643   2.398091   1.089763   2.097090   2.662239
    12  H    3.723403   4.190104   3.406877   2.150669   2.612389
    13  H    3.356124   3.789359   2.744775   2.156955   3.399907
    14  H    2.107910   2.919334   2.856104   2.078859   3.088764
    15  H    4.644577   4.364276   3.178548   2.109914   1.099362
    16  H    3.685741   3.590137   3.286539   2.149280   1.097350
    17  H    4.069393   3.390025   2.661953   2.170110   1.091300
    18  C    3.186337   2.821273   1.518331   2.519755   3.877546
    19  H    4.076879   3.806482   2.152406   2.796179   4.075470
    20  H    3.758878   3.157552   2.164280   3.420489   4.644695
    21  H    2.774302   2.833451   2.183661   2.889050   4.361518
    22  C    2.406389   1.522729   2.694211   3.734267   4.641529
    23  H    3.323645   2.187508   2.789381   3.994706   4.734826
    24  H    2.741965   2.101621   3.701388   4.591533   5.374322
    25  H    2.648029   2.181426   2.916963   4.009521   5.164800
    26  C    2.371327   1.519687   2.829506   3.032939   3.127484
    27  H    2.741356   2.107583   3.798506   4.063979   4.171667
    28  H    3.295958   2.188707   2.902911   3.294287   3.168015
    29  H    2.572814   2.172675   3.148791   2.845466   2.602738
                    6          7          8          9         10
     6  Fe   0.000000
     7  Cl   2.194101   0.000000
     8  C    4.044444   4.071758   0.000000
     9  Cl   2.196685   3.732973   5.945069   0.000000
    10  Cl   2.207832   3.655592   4.687651   3.659984   0.000000
    11  H    5.091751   6.369383   3.450445   6.177410   5.427659
    12  H    4.853380   4.449673   1.092259   6.723065   5.640163
    13  H    4.215253   4.304518   1.092925   6.271063   4.329234
    14  H    3.077145   3.021030   1.105729   4.980968   4.067040
    15  H    6.355334   6.550403   2.834922   7.807521   7.183425
    16  H    5.390051   5.497092   2.742231   6.592999   6.698975
    17  H    5.956488   6.626137   3.476468   6.994336   6.935325
    18  C    4.227534   5.491863   2.979911   5.793926   3.785591
    19  H    5.070016   6.052905   3.071970   6.792818   4.463965
    20  H    4.679120   6.233664   4.047775   5.951815   3.988701
    21  H    3.387176   4.627495   2.878503   5.129894   2.762660
    22  C    3.375833   5.341611   4.486961   3.784780   3.752155
    23  H    4.460349   6.377831   5.002907   4.780547   4.667738
    24  H    3.347675   5.402475   5.262115   3.090908   3.998270
    25  H    3.143020   5.171156   4.507988   3.843081   2.897896
    26  C    4.074191   5.308852   4.017621   4.435029   5.430818
    27  H    4.072447   5.414426   4.899216   3.874860   5.598449
    28  H    5.031656   6.344416   4.544262   5.348330   6.143407
    29  H    4.301628   5.081899   3.682279   4.850633   5.873421
                   11         12         13         14         15
    11  H    0.000000
    12  H    4.231390   0.000000
    13  H    3.757937   1.793112   0.000000
    14  H    3.847860   1.778988   1.758030   0.000000
    15  H    3.307183   2.610323   3.546879   3.642956   0.000000
    16  H    3.543285   2.592091   3.780681   3.016085   1.754736
    17  H    2.358830   3.688729   4.270111   3.947089   1.774963
    18  C    2.220259   3.996382   2.640923   3.301614   4.340432
    19  H    2.760495   3.931850   2.481246   3.673133   4.260716
    20  H    2.432578   5.067710   3.723516   4.291433   5.150010
    21  H    3.081302   3.943919   2.421040   2.903946   4.887571
    22  C    2.822229   5.491546   4.713586   4.162829   5.582607
    23  H    2.504332   5.976850   5.219343   4.880065   5.616293
    24  H    3.796968   6.222672   5.567643   4.761023   6.386861
    25  H    3.270797   5.579878   4.488723   4.183183   6.009424
    26  C    2.782919   4.661981   4.780724   3.721194   4.218753
    27  H    3.754317   5.544683   5.644497   4.418727   5.267530
    28  H    2.437972   5.166623   5.255337   4.475596   4.172616
    29  H    3.242847   4.101929   4.615131   3.392542   3.680268
                   16         17         18         19         20
    16  H    0.000000
    17  H    1.790502   0.000000
    18  C    4.633729   4.132331   0.000000
    19  H    4.921244   4.428447   1.096244   0.000000
    20  H    5.445541   4.682875   1.091132   1.763336   0.000000
    21  H    4.922052   4.771324   1.092616   1.770428   1.766505
    22  C    5.030529   4.491998   2.924795   4.011631   2.719365
    23  H    5.277630   4.366771   3.097592   4.089592   2.636260
    24  H    5.596420   5.186922   3.984043   5.078227   3.766361
    25  H    5.608958   5.169687   2.567520   3.629256   2.264076
    26  C    3.146830   2.841862   4.058332   4.933474   4.356027
    27  H    4.042246   3.871809   4.862932   5.822171   5.046677
    28  H    3.423447   2.527072   4.200207   5.002619   4.340798
    29  H    2.297369   2.507281   4.496715   5.237334   5.002712
                   21         22         23         24         25
    21  H    0.000000
    22  C    2.954540   0.000000
    23  H    3.464682   1.092648   0.000000
    24  H    3.867796   1.097759   1.777888   0.000000
    25  H    2.354021   1.089144   1.791942   1.762386   0.000000
    26  C    4.266206   2.540910   2.797871   2.747328   3.493658
    27  H    4.934391   2.735592   3.083957   2.484532   3.727725
    28  H    4.655917   2.822185   2.637953   3.146192   3.831409
    29  H    4.661978   3.489977   3.819839   3.718734   4.331744
                   26         27         28         29
    26  C    0.000000
    27  H    1.096670   0.000000
    28  H    1.093146   1.773584   0.000000
    29  H    1.089680   1.761370   1.792166   0.000000
 Framework group  C1[X(C8H16Cl3FeO)]
 Deg. of freedom    81
                         Standard orientation:                         
 ---------------------------------------------------------------------
 Center     Atomic      Atomic             Coordinates (Angstroms)
 Number     Number       Type             X           Y           Z
 ---------------------------------------------------------------------
      1          8           0       -0.331869   -0.157480   -0.506058
      2          6           0       -1.182659   -1.125802   -0.332271
      3          6           0       -2.662495   -0.340781    0.760352
      4          6           0       -2.890558    0.748299   -0.064296
      5          6           0       -3.873107    0.693275   -1.187461
      6         26           0        1.489629    0.174061   -0.076506
      7         17           0        1.824178    2.166148   -0.933096
      8          6           0       -2.115647    2.000134    0.081515
      9         17           0        2.568992   -1.490751   -1.019268
     10         17           0        1.684192    0.164708    2.122717
     11          1           0       -3.368895   -1.163552    0.652507
     12          1           0       -2.551679    2.831717   -0.476495
     13          1           0       -1.955061    2.286205    1.124041
     14          1           0       -1.114200    1.792722   -0.338866
     15          1           0       -4.681701    1.404417   -0.965991
     16          1           0       -3.420377    1.032399   -2.127784
     17          1           0       -4.315509   -0.294712   -1.325653
     18          6           0       -2.088781   -0.142724    2.152097
     19          1           0       -2.723027    0.548172    2.719676
     20          1           0       -2.059181   -1.085324    2.700913
     21          1           0       -1.076517    0.268058    2.132345
     22          6           0       -0.762435   -2.245036    0.610826
     23          1           0       -1.589723   -2.913669    0.860633
     24          1           0       -0.002877   -2.819178    0.064468
     25          1           0       -0.293541   -1.865084    1.517473
     26          6           0       -1.823701   -1.630246   -1.614476
     27          1           0       -1.070283   -2.256430   -2.107365
     28          1           0       -2.710037   -2.243385   -1.431617
     29          1           0       -2.061656   -0.812603   -2.294359
 ---------------------------------------------------------------------
 Rotational constants (GHZ):           0.5897679           0.3172465           0.3022470
   427 basis functions,  1056 primitive gaussians,   461 cartesian basis functions
    77 alpha electrons       72 beta electrons
       nuclear repulsion energy      1632.7941048932 Hartrees.
 NAtoms=   29 NActive=   29 NUniq=   29 SFac= 1.00D+00 NAtFMM=   60 NAOKFM=F Big=F
 Initial guess from the checkpoint file:  "checkpoint.chk"
 B after Tr=     0.000000    0.000000    0.000000
         Rot=    1.000000    0.000000    0.000000    0.000000 Ang=   0.00 deg.
 Initial guess <Sx>= 0.0000 <Sy>= 0.0000 <Sz>= 2.5000 <S**2>= 8.7626 S= 2.5021
 SCF Done:  E(UB3LYP) =  -3034.32951580     A.U. after   14 cycles
            NFock= 14  Conv=0.88D-08     -V/T= 2.0024
 <Sx>= 0.0000 <Sy>= 0.0000 <Sz>= 2.5000 <S**2>= 8.7619 S= 2.5020
 <L.S>= 0.000000000000E+00
 Annihilation of the first spin contaminant:
 S**2 before annihilation     8.7619,   after     8.7500
 1\1\GINC-HOLY7C08607\SP\UB3LYP\Jul-CC-pVDZ\C8H16Cl3Fe1O1(6)\EKWAN\11-F
 eb-2020\0\\#t pop=none jul-cc-pvdz guess=read ub3lyp\\theory_abbreviat
 ion b3lyp\\0,6\O,0,-0.331869,-0.15748,-0.506058\C,0,-1.182659,-1.12580
 2,-0.332271\C,0,-2.662495,-0.340781,0.760352\C,0,-2.890558,0.748299,-0
 .064296\C,0,-3.873107,0.693275,-1.187461\Fe,0,1.489629,0.174061,-0.076
 506\Cl,0,1.824178,2.166148,-0.933096\C,0,-2.115647,2.000134,0.081515\C
 l,0,2.568992,-1.490751,-1.019268\Cl,0,1.684192,0.164708,2.122717\H,0,-
 3.368895,-1.163552,0.652507\H,0,-2.551679,2.831717,-0.476495\H,0,-1.95
 5061,2.286205,1.124041\H,0,-1.1142,1.792722,-0.338866\H,0,-4.681701,1.
 404417,-0.965991\H,0,-3.420377,1.032399,-2.127784\H,0,-4.315509,-0.294
 712,-1.325653\C,0,-2.088781,-0.142724,2.152097\H,0,-2.723027,0.548172,
 2.719676\H,0,-2.059181,-1.085324,2.700913\H,0,-1.076517,0.268058,2.132
 345\C,0,-0.762435,-2.245036,0.610826\H,0,-1.589723,-2.913669,0.860633\
 H,0,-0.002877,-2.819178,0.064468\H,0,-0.293541,-1.865084,1.517473\C,0,
 -1.823701,-1.630246,-1.614476\H,0,-1.070283,-2.25643,-2.107365\H,0,-2.
 710037,-2.243385,-1.431617\H,0,-2.061656,-0.812603,-2.294359\\Version=
 ES64L-G16RevA.03\HF=-3034.3295158\S2=8.761892\S2-1=0.\S2A=8.750044\RMS
 D=8.847e-09\PG=C01 [X(C8H16Cl3Fe1O1)]\\@


 ONLY A FOOL KNOWS EVERYTHING.

               -- THE CHEMIST ANALYST, SEPTEMBER 1946
 Job cpu time:       0 days  0 hours 59 minutes  0.8 seconds.
 Elapsed time:       0 days  0 hours 14 minutes 47.9 seconds.
 File lengths (MBytes):  RWF=    174 Int=      0 D2E=      0 Chk=     13 Scr=      1
 Normal termination of Gaussian 16 at Tue Feb 11 14:15:13 2020.
 Initial command:
 /n/sw/g16_nehalem/g16/l1.exe "/scratch/Gau-98686.inp" -scrdir="/scratch/"
 Entering Link 1 = /n/sw/g16_nehalem/g16/l1.exe PID=    102736.
  
 Copyright (c) 1988,1990,1992,1993,1995,1998,2003,2009,2016,
            Gaussian, Inc.  All Rights Reserved.
  
 This is part of the Gaussian(R) 16 program.  It is based on
 the Gaussian(R) 09 system (copyright 2009, Gaussian, Inc.),
 the Gaussian(R) 03 system (copyright 2003, Gaussian, Inc.),
 the Gaussian(R) 98 system (copyright 1998, Gaussian, Inc.),
 the Gaussian(R) 94 system (copyright 1995, Gaussian, Inc.),
 the Gaussian 92(TM) system (copyright 1992, Gaussian, Inc.),
 the Gaussian 90(TM) system (copyright 1990, Gaussian, Inc.),
 the Gaussian 88(TM) system (copyright 1988, Gaussian, Inc.),
 the Gaussian 86(TM) system (copyright 1986, Carnegie Mellon
 University), and the Gaussian 82(TM) system (copyright 1983,
 Carnegie Mellon University). Gaussian is a federally registered
 trademark of Gaussian, Inc.
  
 This software contains proprietary and confidential information,
 including trade secrets, belonging to Gaussian, Inc.
  
 This software is provided under written license and may be
 used, copied, transmitted, or stored only in accord with that
 written license.
  
 The following legend is applicable only to US Government
 contracts under FAR:
  
                    RESTRICTED RIGHTS LEGEND
  
 Use, reproduction and disclosure by the US Government is
 subject to restrictions as set forth in subparagraphs (a)
 and (c) of the Commercial Computer Software - Restricted
 Rights clause in FAR 52.227-19.
  
 Gaussian, Inc.
 340 Quinnipiac St., Bldg. 40, Wallingford CT 06492
  
  
 ---------------------------------------------------------------
 Warning -- This program may not be used in any manner that
 competes with the business of Gaussian, Inc. or will provide
 assistance to any competitor of Gaussian, Inc.  The licensee
 of this program is prohibited from giving any competitor of
 Gaussian, Inc. access to this program.  By using this program,
 the user acknowledges that Gaussian, Inc. is engaged in the
 business of creating and licensing software in the field of
 computational chemistry and represents and warrants to the
 licensee that it is not a competitor of Gaussian, Inc. and that
 it will not use this program in any manner prohibited above.
 ---------------------------------------------------------------
  

 Cite this work as:
 Gaussian 16, Revision A.03,
 M. J. Frisch, G. W. Trucks, H. B. Schlegel, G. E. Scuseria, 
 M. A. Robb, J. R. Cheeseman, G. Scalmani, V. Barone, 
 G. A. Petersson, H. Nakatsuji, X. Li, M. Caricato, A. V. Marenich, 
 J. Bloino, B. G. Janesko, R. Gomperts, B. Mennucci, H. P. Hratchian, 
 J. V. Ortiz, A. F. Izmaylov, J. L. Sonnenberg, D. Williams-Young, 
 F. Ding, F. Lipparini, F. Egidi, J. Goings, B. Peng, A. Petrone, 
 T. Henderson, D. Ranasinghe, V. G. Zakrzewski, J. Gao, N. Rega, 
 G. Zheng, W. Liang, M. Hada, M. Ehara, K. Toyota, R. Fukuda, 
 J. Hasegawa, M. Ishida, T. Nakajima, Y. Honda, O. Kitao, H. Nakai, 
 T. Vreven, K. Throssell, J. A. Montgomery, Jr., J. E. Peralta, 
 F. Ogliaro, M. J. Bearpark, J. J. Heyd, E. N. Brothers, K. N. Kudin, 
 V. N. Staroverov, T. A. Keith, R. Kobayashi, J. Normand, 
 K. Raghavachari, A. P. Rendell, J. C. Burant, S. S. Iyengar, 
 J. Tomasi, M. Cossi, J. M. Millam, M. Klene, C. Adamo, R. Cammi, 
 J. W. Ochterski, R. L. Martin, K. Morokuma, O. Farkas, 
 J. B. Foresman, and D. J. Fox, Gaussian, Inc., Wallingford CT, 2016.
 
 ******************************************
 Gaussian 16:  ES64L-G16RevA.03 25-Dec-2016
                11-Feb-2020 
 ******************************************
 %chk=checkpoint.chk
 %mem=3GB
 %nprocshared=4
 Will use up to    4 processors via shared memory.
 -------------------------------------------------------------------
 #t pop=none jul-cc-pvdz guess=read ub3lyp empiricaldispersion=gd3bj
 -------------------------------------------------------------------
 ------------------------------
 theory_abbreviation b3lyp_d3bj
 ------------------------------
 Symbolic Z-matrix:
 Charge =  0 Multiplicity = 6
 O                    -0.33187  -0.15748  -0.50606 
 C                    -1.18266  -1.1258   -0.33227 
 C                    -2.6625   -0.34078   0.76035 
 C                    -2.89056   0.7483   -0.0643 
 C                    -3.87311   0.69328  -1.18746 
 Fe                    1.48963   0.17406  -0.07651 
 Cl                    1.82418   2.16615  -0.9331 
 C                    -2.11565   2.00013   0.08152 
 Cl                    2.56899  -1.49075  -1.01927 
 Cl                    1.68419   0.16471   2.12272 
 H                    -3.3689   -1.16355   0.65251 
 H                    -2.55168   2.83172  -0.4765 
 H                    -1.95506   2.28621   1.12404 
 H                    -1.1142    1.79272  -0.33887 
 H                    -4.6817    1.40442  -0.96599 
 H                    -3.42038   1.0324   -2.12778 
 H                    -4.31551  -0.29471  -1.32565 
 C                    -2.08878  -0.14272   2.1521 
 H                    -2.72303   0.54817   2.71968 
 H                    -2.05918  -1.08532   2.70091 
 H                    -1.07652   0.26806   2.13234 
 C                    -0.76244  -2.24504   0.61083 
 H                    -1.58972  -2.91367   0.86063 
 H                    -0.00288  -2.81918   0.06447 
 H                    -0.29354  -1.86508   1.51747 
 C                    -1.8237   -1.63025  -1.61448 
 H                    -1.07028  -2.25643  -2.10737 
 H                    -2.71004  -2.24338  -1.43162 
 H                    -2.06166  -0.8126   -2.29436 
 
                    Distance matrix (angstroms):
                    1          2          3          4          5
     1  O    0.000000
     2  C    1.300651   0.000000
     3  C    2.658799   1.999999   0.000000
     4  C    2.749996   2.549703   1.384974   0.000000
     5  C    3.705194   3.358408   2.515716   1.493295   0.000000
     6  Fe   1.900602   2.982647   4.266794   4.417685   5.501158
     7  Cl   3.198460   4.498777   5.411349   4.999384   5.890086
     8  C    2.860490   3.288337   2.497948   1.479472   2.531175
     9  Cl   3.233572   3.831454   5.644283   5.977625   6.804329
    10  Cl   3.328478   3.988887   4.583148   5.104110   6.490010
    11  H    3.402643   2.398091   1.089763   2.097090   2.662239
    12  H    3.723403   4.190104   3.406877   2.150669   2.612389
    13  H    3.356124   3.789359   2.744775   2.156955   3.399907
    14  H    2.107910   2.919334   2.856104   2.078859   3.088764
    15  H    4.644577   4.364276   3.178548   2.109914   1.099362
    16  H    3.685741   3.590137   3.286539   2.149280   1.097350
    17  H    4.069393   3.390025   2.661953   2.170110   1.091300
    18  C    3.186337   2.821273   1.518331   2.519755   3.877546
    19  H    4.076879   3.806482   2.152406   2.796179   4.075470
    20  H    3.758878   3.157552   2.164280   3.420489   4.644695
    21  H    2.774302   2.833451   2.183661   2.889050   4.361518
    22  C    2.406389   1.522729   2.694211   3.734267   4.641529
    23  H    3.323645   2.187508   2.789381   3.994706   4.734826
    24  H    2.741965   2.101621   3.701388   4.591533   5.374322
    25  H    2.648029   2.181426   2.916963   4.009521   5.164800
    26  C    2.371327   1.519687   2.829506   3.032939   3.127484
    27  H    2.741356   2.107583   3.798506   4.063979   4.171667
    28  H    3.295958   2.188707   2.902911   3.294287   3.168015
    29  H    2.572814   2.172675   3.148791   2.845466   2.602738
                    6          7          8          9         10
     6  Fe   0.000000
     7  Cl   2.194101   0.000000
     8  C    4.044444   4.071758   0.000000
     9  Cl   2.196685   3.732973   5.945069   0.000000
    10  Cl   2.207832   3.655592   4.687651   3.659984   0.000000
    11  H    5.091751   6.369383   3.450445   6.177410   5.427659
    12  H    4.853380   4.449673   1.092259   6.723065   5.640163
    13  H    4.215253   4.304518   1.092925   6.271063   4.329234
    14  H    3.077145   3.021030   1.105729   4.980968   4.067040
    15  H    6.355334   6.550403   2.834922   7.807521   7.183425
    16  H    5.390051   5.497092   2.742231   6.592999   6.698975
    17  H    5.956488   6.626137   3.476468   6.994336   6.935325
    18  C    4.227534   5.491863   2.979911   5.793926   3.785591
    19  H    5.070016   6.052905   3.071970   6.792818   4.463965
    20  H    4.679120   6.233664   4.047775   5.951815   3.988701
    21  H    3.387176   4.627495   2.878503   5.129894   2.762660
    22  C    3.375833   5.341611   4.486961   3.784780   3.752155
    23  H    4.460349   6.377831   5.002907   4.780547   4.667738
    24  H    3.347675   5.402475   5.262115   3.090908   3.998270
    25  H    3.143020   5.171156   4.507988   3.843081   2.897896
    26  C    4.074191   5.308852   4.017621   4.435029   5.430818
    27  H    4.072447   5.414426   4.899216   3.874860   5.598449
    28  H    5.031656   6.344416   4.544262   5.348330   6.143407
    29  H    4.301628   5.081899   3.682279   4.850633   5.873421
                   11         12         13         14         15
    11  H    0.000000
    12  H    4.231390   0.000000
    13  H    3.757937   1.793112   0.000000
    14  H    3.847860   1.778988   1.758030   0.000000
    15  H    3.307183   2.610323   3.546879   3.642956   0.000000
    16  H    3.543285   2.592091   3.780681   3.016085   1.754736
    17  H    2.358830   3.688729   4.270111   3.947089   1.774963
    18  C    2.220259   3.996382   2.640923   3.301614   4.340432
    19  H    2.760495   3.931850   2.481246   3.673133   4.260716
    20  H    2.432578   5.067710   3.723516   4.291433   5.150010
    21  H    3.081302   3.943919   2.421040   2.903946   4.887571
    22  C    2.822229   5.491546   4.713586   4.162829   5.582607
    23  H    2.504332   5.976850   5.219343   4.880065   5.616293
    24  H    3.796968   6.222672   5.567643   4.761023   6.386861
    25  H    3.270797   5.579878   4.488723   4.183183   6.009424
    26  C    2.782919   4.661981   4.780724   3.721194   4.218753
    27  H    3.754317   5.544683   5.644497   4.418727   5.267530
    28  H    2.437972   5.166623   5.255337   4.475596   4.172616
    29  H    3.242847   4.101929   4.615131   3.392542   3.680268
                   16         17         18         19         20
    16  H    0.000000
    17  H    1.790502   0.000000
    18  C    4.633729   4.132331   0.000000
    19  H    4.921244   4.428447   1.096244   0.000000
    20  H    5.445541   4.682875   1.091132   1.763336   0.000000
    21  H    4.922052   4.771324   1.092616   1.770428   1.766505
    22  C    5.030529   4.491998   2.924795   4.011631   2.719365
    23  H    5.277630   4.366771   3.097592   4.089592   2.636260
    24  H    5.596420   5.186922   3.984043   5.078227   3.766361
    25  H    5.608958   5.169687   2.567520   3.629256   2.264076
    26  C    3.146830   2.841862   4.058332   4.933474   4.356027
    27  H    4.042246   3.871809   4.862932   5.822171   5.046677
    28  H    3.423447   2.527072   4.200207   5.002619   4.340798
    29  H    2.297369   2.507281   4.496715   5.237334   5.002712
                   21         22         23         24         25
    21  H    0.000000
    22  C    2.954540   0.000000
    23  H    3.464682   1.092648   0.000000
    24  H    3.867796   1.097759   1.777888   0.000000
    25  H    2.354021   1.089144   1.791942   1.762386   0.000000
    26  C    4.266206   2.540910   2.797871   2.747328   3.493658
    27  H    4.934391   2.735592   3.083957   2.484532   3.727725
    28  H    4.655917   2.822185   2.637953   3.146192   3.831409
    29  H    4.661978   3.489977   3.819839   3.718734   4.331744
                   26         27         28         29
    26  C    0.000000
    27  H    1.096670   0.000000
    28  H    1.093146   1.773584   0.000000
    29  H    1.089680   1.761370   1.792166   0.000000
 Framework group  C1[X(C8H16Cl3FeO)]
 Deg. of freedom    81
                         Standard orientation:                         
 ---------------------------------------------------------------------
 Center     Atomic      Atomic             Coordinates (Angstroms)
 Number     Number       Type             X           Y           Z
 ---------------------------------------------------------------------
      1          8           0       -0.331869   -0.157480   -0.506058
      2          6           0       -1.182659   -1.125802   -0.332271
      3          6           0       -2.662495   -0.340781    0.760352
      4          6           0       -2.890558    0.748299   -0.064296
      5          6           0       -3.873107    0.693275   -1.187461
      6         26           0        1.489629    0.174061   -0.076506
      7         17           0        1.824178    2.166148   -0.933096
      8          6           0       -2.115647    2.000134    0.081515
      9         17           0        2.568992   -1.490751   -1.019268
     10         17           0        1.684192    0.164708    2.122717
     11          1           0       -3.368895   -1.163552    0.652507
     12          1           0       -2.551679    2.831717   -0.476495
     13          1           0       -1.955061    2.286205    1.124041
     14          1           0       -1.114200    1.792722   -0.338866
     15          1           0       -4.681701    1.404417   -0.965991
     16          1           0       -3.420377    1.032399   -2.127784
     17          1           0       -4.315509   -0.294712   -1.325653
     18          6           0       -2.088781   -0.142724    2.152097
     19          1           0       -2.723027    0.548172    2.719676
     20          1           0       -2.059181   -1.085324    2.700913
     21          1           0       -1.076517    0.268058    2.132345
     22          6           0       -0.762435   -2.245036    0.610826
     23          1           0       -1.589723   -2.913669    0.860633
     24          1           0       -0.002877   -2.819178    0.064468
     25          1           0       -0.293541   -1.865084    1.517473
     26          6           0       -1.823701   -1.630246   -1.614476
     27          1           0       -1.070283   -2.256430   -2.107365
     28          1           0       -2.710037   -2.243385   -1.431617
     29          1           0       -2.061656   -0.812603   -2.294359
 ---------------------------------------------------------------------
 Rotational constants (GHZ):           0.5897679           0.3172465           0.3022470
   427 basis functions,  1056 primitive gaussians,   461 cartesian basis functions
    77 alpha electrons       72 beta electrons
       nuclear repulsion energy      1632.7941048932 Hartrees.
 NAtoms=   29 NActive=   29 NUniq=   29 SFac= 1.00D+00 NAtFMM=   60 NAOKFM=F Big=F
 Nuclear repulsion after empirical dispersion term =     1632.7264350078 Hartrees.
 Initial guess from the checkpoint file:  "checkpoint.chk"
 B after Tr=     0.000000    0.000000    0.000000
         Rot=    1.000000    0.000000    0.000000    0.000000 Ang=   0.00 deg.
 Initial guess <Sx>= 0.0000 <Sy>= 0.0000 <Sz>= 2.5000 <S**2>= 8.7619 S= 2.5020
 SCF Done:  E(UB3LYP) =  -3034.39718569     A.U. after    1 cycles
            NFock=  1  Conv=0.38D-08     -V/T= 2.0024
 <Sx>= 0.0000 <Sy>= 0.0000 <Sz>= 2.5000 <S**2>= 8.7619 S= 2.5020
 <L.S>= 0.000000000000E+00
 Annihilation of the first spin contaminant:
 S**2 before annihilation     8.7619,   after     8.7500
 1\1\GINC-HOLY7C08607\SP\UB3LYP\Jul-CC-pVDZ\C8H16Cl3Fe1O1(6)\EKWAN\11-F
 eb-2020\0\\#t pop=none jul-cc-pvdz guess=read ub3lyp empiricaldispersi
 on=gd3bj\\theory_abbreviation b3lyp_d3bj\\0,6\O,0,-0.331869,-0.15748,-
 0.506058\C,0,-1.182659,-1.125802,-0.332271\C,0,-2.662495,-0.340781,0.7
 60352\C,0,-2.890558,0.748299,-0.064296\C,0,-3.873107,0.693275,-1.18746
 1\Fe,0,1.489629,0.174061,-0.076506\Cl,0,1.824178,2.166148,-0.933096\C,
 0,-2.115647,2.000134,0.081515\Cl,0,2.568992,-1.490751,-1.019268\Cl,0,1
 .684192,0.164708,2.122717\H,0,-3.368895,-1.163552,0.652507\H,0,-2.5516
 79,2.831717,-0.476495\H,0,-1.955061,2.286205,1.124041\H,0,-1.1142,1.79
 2722,-0.338866\H,0,-4.681701,1.404417,-0.965991\H,0,-3.420377,1.032399
 ,-2.127784\H,0,-4.315509,-0.294712,-1.325653\C,0,-2.088781,-0.142724,2
 .152097\H,0,-2.723027,0.548172,2.719676\H,0,-2.059181,-1.085324,2.7009
 13\H,0,-1.076517,0.268058,2.132345\C,0,-0.762435,-2.245036,0.610826\H,
 0,-1.589723,-2.913669,0.860633\H,0,-0.002877,-2.819178,0.064468\H,0,-0
 .293541,-1.865084,1.517473\C,0,-1.823701,-1.630246,-1.614476\H,0,-1.07
 0283,-2.25643,-2.107365\H,0,-2.710037,-2.243385,-1.431617\H,0,-2.06165
 6,-0.812603,-2.294359\\Version=ES64L-G16RevA.03\HF=-3034.3971857\S2=8.
 761892\S2-1=0.\S2A=8.750044\RMSD=3.786e-09\PG=C01 [X(C8H16Cl3Fe1O1)]\\
 @


      HUMANKIND PERIODICALLY GOES THROUGH A SPEEDUP OF ITS AFFAIRS, 
      THEREBY EXPERIENCING THE RACE BETWEEN THE RENEWABLE VITALITY
      OF THE LIVING, AND THE BECKONING VITIATION OF DECADENCE.
      IN THIS PERIODIC RACE, ANY PAUSE BECOMES A LUXURY.
      ONLY THEN CAN ONE REFLECT THAT ALL IS PERMITTED;
      ALL IS POSSIBLE.

                              -- THE APOCRYPHA OF MUAD'DIB
                                 CHILDREN OF DUNE, BY FRANK HERBERT
 Job cpu time:       0 days  0 hours  4 minutes 39.4 seconds.
 Elapsed time:       0 days  0 hours  1 minutes 10.5 seconds.
 File lengths (MBytes):  RWF=    170 Int=      0 D2E=      0 Chk=     13 Scr=      1
 Normal termination of Gaussian 16 at Tue Feb 11 14:16:24 2020.
 Initial command:
 /n/sw/g16_nehalem/g16/l1.exe "/scratch/Gau-98686.inp" -scrdir="/scratch/"
 Entering Link 1 = /n/sw/g16_nehalem/g16/l1.exe PID=    102990.
  
 Copyright (c) 1988,1990,1992,1993,1995,1998,2003,2009,2016,
            Gaussian, Inc.  All Rights Reserved.
  
 This is part of the Gaussian(R) 16 program.  It is based on
 the Gaussian(R) 09 system (copyright 2009, Gaussian, Inc.),
 the Gaussian(R) 03 system (copyright 2003, Gaussian, Inc.),
 the Gaussian(R) 98 system (copyright 1998, Gaussian, Inc.),
 the Gaussian(R) 94 system (copyright 1995, Gaussian, Inc.),
 the Gaussian 92(TM) system (copyright 1992, Gaussian, Inc.),
 the Gaussian 90(TM) system (copyright 1990, Gaussian, Inc.),
 the Gaussian 88(TM) system (copyright 1988, Gaussian, Inc.),
 the Gaussian 86(TM) system (copyright 1986, Carnegie Mellon
 University), and the Gaussian 82(TM) system (copyright 1983,
 Carnegie Mellon University). Gaussian is a federally registered
 trademark of Gaussian, Inc.
  
 This software contains proprietary and confidential information,
 including trade secrets, belonging to Gaussian, Inc.
  
 This software is provided under written license and may be
 used, copied, transmitted, or stored only in accord with that
 written license.
  
 The following legend is applicable only to US Government
 contracts under FAR:
  
                    RESTRICTED RIGHTS LEGEND
  
 Use, reproduction and disclosure by the US Government is
 subject to restrictions as set forth in subparagraphs (a)
 and (c) of the Commercial Computer Software - Restricted
 Rights clause in FAR 52.227-19.
  
 Gaussian, Inc.
 340 Quinnipiac St., Bldg. 40, Wallingford CT 06492
  
  
 ---------------------------------------------------------------
 Warning -- This program may not be used in any manner that
 competes with the business of Gaussian, Inc. or will provide
 assistance to any competitor of Gaussian, Inc.  The licensee
 of this program is prohibited from giving any competitor of
 Gaussian, Inc. access to this program.  By using this program,
 the user acknowledges that Gaussian, Inc. is engaged in the
 business of creating and licensing software in the field of
 computational chemistry and represents and warrants to the
 licensee that it is not a competitor of Gaussian, Inc. and that
 it will not use this program in any manner prohibited above.
 ---------------------------------------------------------------
  

 Cite this work as:
 Gaussian 16, Revision A.03,
 M. J. Frisch, G. W. Trucks, H. B. Schlegel, G. E. Scuseria, 
 M. A. Robb, J. R. Cheeseman, G. Scalmani, V. Barone, 
 G. A. Petersson, H. Nakatsuji, X. Li, M. Caricato, A. V. Marenich, 
 J. Bloino, B. G. Janesko, R. Gomperts, B. Mennucci, H. P. Hratchian, 
 J. V. Ortiz, A. F. Izmaylov, J. L. Sonnenberg, D. Williams-Young, 
 F. Ding, F. Lipparini, F. Egidi, J. Goings, B. Peng, A. Petrone, 
 T. Henderson, D. Ranasinghe, V. G. Zakrzewski, J. Gao, N. Rega, 
 G. Zheng, W. Liang, M. Hada, M. Ehara, K. Toyota, R. Fukuda, 
 J. Hasegawa, M. Ishida, T. Nakajima, Y. Honda, O. Kitao, H. Nakai, 
 T. Vreven, K. Throssell, J. A. Montgomery, Jr., J. E. Peralta, 
 F. Ogliaro, M. J. Bearpark, J. J. Heyd, E. N. Brothers, K. N. Kudin, 
 V. N. Staroverov, T. A. Keith, R. Kobayashi, J. Normand, 
 K. Raghavachari, A. P. Rendell, J. C. Burant, S. S. Iyengar, 
 J. Tomasi, M. Cossi, J. M. Millam, M. Klene, C. Adamo, R. Cammi, 
 J. W. Ochterski, R. L. Martin, K. Morokuma, O. Farkas, 
 J. B. Foresman, and D. J. Fox, Gaussian, Inc., Wallingford CT, 2016.
 
 ******************************************
 Gaussian 16:  ES64L-G16RevA.03 25-Dec-2016
                11-Feb-2020 
 ******************************************
 %chk=checkpoint.chk
 %mem=3GB
 %nprocshared=4
 Will use up to    4 processors via shared memory.
 ----------------------------------------
 #t pop=none jul-cc-pvdz guess=read ub97d
 ----------------------------------------
 ------------------------
 theory_abbreviation b97d
 ------------------------
 Symbolic Z-matrix:
 Charge =  0 Multiplicity = 6
 O                    -0.33187  -0.15748  -0.50606 
 C                    -1.18266  -1.1258   -0.33227 
 C                    -2.6625   -0.34078   0.76035 
 C                    -2.89056   0.7483   -0.0643 
 C                    -3.87311   0.69328  -1.18746 
 Fe                    1.48963   0.17406  -0.07651 
 Cl                    1.82418   2.16615  -0.9331 
 C                    -2.11565   2.00013   0.08152 
 Cl                    2.56899  -1.49075  -1.01927 
 Cl                    1.68419   0.16471   2.12272 
 H                    -3.3689   -1.16355   0.65251 
 H                    -2.55168   2.83172  -0.4765 
 H                    -1.95506   2.28621   1.12404 
 H                    -1.1142    1.79272  -0.33887 
 H                    -4.6817    1.40442  -0.96599 
 H                    -3.42038   1.0324   -2.12778 
 H                    -4.31551  -0.29471  -1.32565 
 C                    -2.08878  -0.14272   2.1521 
 H                    -2.72303   0.54817   2.71968 
 H                    -2.05918  -1.08532   2.70091 
 H                    -1.07652   0.26806   2.13234 
 C                    -0.76244  -2.24504   0.61083 
 H                    -1.58972  -2.91367   0.86063 
 H                    -0.00288  -2.81918   0.06447 
 H                    -0.29354  -1.86508   1.51747 
 C                    -1.8237   -1.63025  -1.61448 
 H                    -1.07028  -2.25643  -2.10737 
 H                    -2.71004  -2.24338  -1.43162 
 H                    -2.06166  -0.8126   -2.29436 
 
                    Distance matrix (angstroms):
                    1          2          3          4          5
     1  O    0.000000
     2  C    1.300651   0.000000
     3  C    2.658799   1.999999   0.000000
     4  C    2.749996   2.549703   1.384974   0.000000
     5  C    3.705194   3.358408   2.515716   1.493295   0.000000
     6  Fe   1.900602   2.982647   4.266794   4.417685   5.501158
     7  Cl   3.198460   4.498777   5.411349   4.999384   5.890086
     8  C    2.860490   3.288337   2.497948   1.479472   2.531175
     9  Cl   3.233572   3.831454   5.644283   5.977625   6.804329
    10  Cl   3.328478   3.988887   4.583148   5.104110   6.490010
    11  H    3.402643   2.398091   1.089763   2.097090   2.662239
    12  H    3.723403   4.190104   3.406877   2.150669   2.612389
    13  H    3.356124   3.789359   2.744775   2.156955   3.399907
    14  H    2.107910   2.919334   2.856104   2.078859   3.088764
    15  H    4.644577   4.364276   3.178548   2.109914   1.099362
    16  H    3.685741   3.590137   3.286539   2.149280   1.097350
    17  H    4.069393   3.390025   2.661953   2.170110   1.091300
    18  C    3.186337   2.821273   1.518331   2.519755   3.877546
    19  H    4.076879   3.806482   2.152406   2.796179   4.075470
    20  H    3.758878   3.157552   2.164280   3.420489   4.644695
    21  H    2.774302   2.833451   2.183661   2.889050   4.361518
    22  C    2.406389   1.522729   2.694211   3.734267   4.641529
    23  H    3.323645   2.187508   2.789381   3.994706   4.734826
    24  H    2.741965   2.101621   3.701388   4.591533   5.374322
    25  H    2.648029   2.181426   2.916963   4.009521   5.164800
    26  C    2.371327   1.519687   2.829506   3.032939   3.127484
    27  H    2.741356   2.107583   3.798506   4.063979   4.171667
    28  H    3.295958   2.188707   2.902911   3.294287   3.168015
    29  H    2.572814   2.172675   3.148791   2.845466   2.602738
                    6          7          8          9         10
     6  Fe   0.000000
     7  Cl   2.194101   0.000000
     8  C    4.044444   4.071758   0.000000
     9  Cl   2.196685   3.732973   5.945069   0.000000
    10  Cl   2.207832   3.655592   4.687651   3.659984   0.000000
    11  H    5.091751   6.369383   3.450445   6.177410   5.427659
    12  H    4.853380   4.449673   1.092259   6.723065   5.640163
    13  H    4.215253   4.304518   1.092925   6.271063   4.329234
    14  H    3.077145   3.021030   1.105729   4.980968   4.067040
    15  H    6.355334   6.550403   2.834922   7.807521   7.183425
    16  H    5.390051   5.497092   2.742231   6.592999   6.698975
    17  H    5.956488   6.626137   3.476468   6.994336   6.935325
    18  C    4.227534   5.491863   2.979911   5.793926   3.785591
    19  H    5.070016   6.052905   3.071970   6.792818   4.463965
    20  H    4.679120   6.233664   4.047775   5.951815   3.988701
    21  H    3.387176   4.627495   2.878503   5.129894   2.762660
    22  C    3.375833   5.341611   4.486961   3.784780   3.752155
    23  H    4.460349   6.377831   5.002907   4.780547   4.667738
    24  H    3.347675   5.402475   5.262115   3.090908   3.998270
    25  H    3.143020   5.171156   4.507988   3.843081   2.897896
    26  C    4.074191   5.308852   4.017621   4.435029   5.430818
    27  H    4.072447   5.414426   4.899216   3.874860   5.598449
    28  H    5.031656   6.344416   4.544262   5.348330   6.143407
    29  H    4.301628   5.081899   3.682279   4.850633   5.873421
                   11         12         13         14         15
    11  H    0.000000
    12  H    4.231390   0.000000
    13  H    3.757937   1.793112   0.000000
    14  H    3.847860   1.778988   1.758030   0.000000
    15  H    3.307183   2.610323   3.546879   3.642956   0.000000
    16  H    3.543285   2.592091   3.780681   3.016085   1.754736
    17  H    2.358830   3.688729   4.270111   3.947089   1.774963
    18  C    2.220259   3.996382   2.640923   3.301614   4.340432
    19  H    2.760495   3.931850   2.481246   3.673133   4.260716
    20  H    2.432578   5.067710   3.723516   4.291433   5.150010
    21  H    3.081302   3.943919   2.421040   2.903946   4.887571
    22  C    2.822229   5.491546   4.713586   4.162829   5.582607
    23  H    2.504332   5.976850   5.219343   4.880065   5.616293
    24  H    3.796968   6.222672   5.567643   4.761023   6.386861
    25  H    3.270797   5.579878   4.488723   4.183183   6.009424
    26  C    2.782919   4.661981   4.780724   3.721194   4.218753
    27  H    3.754317   5.544683   5.644497   4.418727   5.267530
    28  H    2.437972   5.166623   5.255337   4.475596   4.172616
    29  H    3.242847   4.101929   4.615131   3.392542   3.680268
                   16         17         18         19         20
    16  H    0.000000
    17  H    1.790502   0.000000
    18  C    4.633729   4.132331   0.000000
    19  H    4.921244   4.428447   1.096244   0.000000
    20  H    5.445541   4.682875   1.091132   1.763336   0.000000
    21  H    4.922052   4.771324   1.092616   1.770428   1.766505
[...]
 Rotational constants (GHZ):           0.5897679           0.3172465           0.3022470
   427 basis functions,  1056 primitive gaussians,   461 cartesian basis functions
    77 alpha electrons       72 beta electrons
       nuclear repulsion energy      1632.7941048932 Hartrees.
 NAtoms=   29 NActive=   29 NUniq=   29 SFac= 1.00D+00 NAtFMM=   60 NAOKFM=F Big=F
 Nuclear repulsion after empirical dispersion term =     1632.7916572587 Hartrees.
 Initial guess from the checkpoint file:  "checkpoint.chk"
 B after Tr=     0.000000    0.000000    0.000000
         Rot=    1.000000    0.000000    0.000000    0.000000 Ang=   0.00 deg.
 Initial guess <Sx>= 0.0000 <Sy>= 0.0000 <Sz>= 2.5000 <S**2>= 8.7616 S= 2.5019
 SCF Done:  E(UM06L) =  -3034.19498582     A.U. after   16 cycles
            NFock= 16  Conv=0.88D-08     -V/T= 2.0020
 <Sx>= 0.0000 <Sy>= 0.0000 <Sz>= 2.5000 <S**2>= 8.7617 S= 2.5020
 <L.S>= 0.000000000000E+00
 Annihilation of the first spin contaminant:
 S**2 before annihilation     8.7617,   after     8.7500
 1\1\GINC-HOLY7C08607\SP\UM06L\Jul-CC-pVDZ\C8H16Cl3Fe1O1(6)\EKWAN\11-Fe
 b-2020\0\\#t pop=none jul-cc-pvdz guess=read um06l empiricaldispersion
 =gd3\\theory_abbreviation m06l_d3\\0,6\O,0,-0.331869,-0.15748,-0.50605
 8\C,0,-1.182659,-1.125802,-0.332271\C,0,-2.662495,-0.340781,0.760352\C
 ,0,-2.890558,0.748299,-0.064296\C,0,-3.873107,0.693275,-1.187461\Fe,0,
 1.489629,0.174061,-0.076506\Cl,0,1.824178,2.166148,-0.933096\C,0,-2.11
 5647,2.000134,0.081515\Cl,0,2.568992,-1.490751,-1.019268\Cl,0,1.684192
 ,0.164708,2.122717\H,0,-3.368895,-1.163552,0.652507\H,0,-2.551679,2.83
 1717,-0.476495\H,0,-1.955061,2.286205,1.124041\H,0,-1.1142,1.792722,-0
 .338866\H,0,-4.681701,1.404417,-0.965991\H,0,-3.420377,1.032399,-2.127
 784\H,0,-4.315509,-0.294712,-1.325653\C,0,-2.088781,-0.142724,2.152097
 \H,0,-2.723027,0.548172,2.719676\H,0,-2.059181,-1.085324,2.700913\H,0,
 -1.076517,0.268058,2.132345\C,0,-0.762435,-2.245036,0.610826\H,0,-1.58
 9723,-2.913669,0.860633\H,0,-0.002877,-2.819178,0.064468\H,0,-0.293541
 ,-1.865084,1.517473\C,0,-1.823701,-1.630246,-1.614476\H,0,-1.070283,-2
 .25643,-2.107365\H,0,-2.710037,-2.243385,-1.431617\H,0,-2.061656,-0.81
 2603,-2.294359\\Version=ES64L-G16RevA.03\HF=-3034.1949858\S2=8.761738\
 S2-1=0.\S2A=8.750044\RMSD=8.772e-09\PG=C01 [X(C8H16Cl3Fe1O1)]\\@


 AN OPTIMIST IS A GUY
 THAT HAS NEVER HAD
 MUCH EXPERIENCE
   (CERTAIN MAXIMS OF ARCHY  -- DON MARQUIS)
 Job cpu time:       0 days  1 hours  9 minutes 35.7 seconds.
 Elapsed time:       0 days  0 hours 17 minutes 27.0 seconds.
 File lengths (MBytes):  RWF=    174 Int=      0 D2E=      0 Chk=     13 Scr=      1
 Normal termination of Gaussian 16 at Tue Feb 11 23:42:44 2020.
 Initial command:
 /n/sw/g16_nehalem/g16/l1.exe "/scratch/Gau-98686.inp" -scrdir="/scratch/"
 Entering Link 1 = /n/sw/g16_nehalem/g16/l1.exe PID=    153530.
  
 Copyright (c) 1988,1990,1992,1993,1995,1998,2003,2009,2016,
            Gaussian, Inc.  All Rights Reserved.
  
 This is part of the Gaussian(R) 16 program.  It is based on
 the Gaussian(R) 09 system (copyright 2009, Gaussian, Inc.),
 the Gaussian(R) 03 system (copyright 2003, Gaussian, Inc.),
 the Gaussian(R) 98 system (copyright 1998, Gaussian, Inc.),
 the Gaussian(R) 94 system (copyright 1995, Gaussian, Inc.),
 the Gaussian 92(TM) system (copyright 1992, Gaussian, Inc.),
 the Gaussian 90(TM) system (copyright 1990, Gaussian, Inc.),
 the Gaussian 88(TM) system (copyright 1988, Gaussian, Inc.),
 the Gaussian 86(TM) system (copyright 1986, Carnegie Mellon
 University), and the Gaussian 82(TM) system (copyright 1983,
 Carnegie Mellon University). Gaussian is a federally registered
 trademark of Gaussian, Inc.
  
 This software contains proprietary and confidential information,
 including trade secrets, belonging to Gaussian, Inc.
  
 This software is provided under written license and may be
 used, copied, transmitted, or stored only in accord with that
 written license.
  
 The following legend is applicable only to US Government
 contracts under FAR:
  
                    RESTRICTED RIGHTS LEGEND
  
 Use, reproduction and disclosure by the US Government is
 subject to restrictions as set forth in subparagraphs (a)
 and (c) of the Commercial Computer Software - Restricted
 Rights clause in FAR 52.227-19.
  
 Gaussian, Inc.
 340 Quinnipiac St., Bldg. 40, Wallingford CT 06492
  
  
 ---------------------------------------------------------------
 Warning -- This program may not be used in any manner that
 competes with the business of Gaussian, Inc. or will provide
 assistance to any competitor of Gaussian, Inc.  The licensee
 of this program is prohibited from giving any competitor of
 Gaussian, Inc. access to this program.  By using this program,
 the user acknowledges that Gaussian, Inc. is engaged in the
 business of creating and licensing software in the field of
 computational chemistry and represents and warrants to the
 licensee that it is not a competitor of Gaussian, Inc. and that
 it will not use this program in any manner prohibited above.
 ---------------------------------------------------------------
  

 Cite this work as:
 Gaussian 16, Revision A.03,
 M. J. Frisch, G. W. Trucks, H. B. Schlegel, G. E. Scuseria, 
 M. A. Robb, J. R. Cheeseman, G. Scalmani, V. Barone, 
 G. A. Petersson, H. Nakatsuji, X. Li, M. Caricato, A. V. Marenich, 
 J. Bloino, B. G. Janesko, R. Gomperts, B. Mennucci, H. P. Hratchian, 
 J. V. Ortiz, A. F. Izmaylov, J. L. Sonnenberg, D. Williams-Young, 
 F. Ding, F. Lipparini, F. Egidi, J. Goings, B. Peng, A. Petrone, 
 T. Henderson, D. Ranasinghe, V. G. Zakrzewski, J. Gao, N. Rega, 
 G. Zheng, W. Liang, M. Hada, M. Ehara, K. Toyota, R. Fukuda, 
 J. Hasegawa, M. Ishida, T. Nakajima, Y. Honda, O. Kitao, H. Nakai, 
 T. Vreven, K. Throssell, J. A. Montgomery, Jr., J. E. Peralta, 
 F. Ogliaro, M. J. Bearpark, J. J. Heyd, E. N. Brothers, K. N. Kudin, 
 V. N. Staroverov, T. A. Keith, R. Kobayashi, J. Normand, 
 K. Raghavachari, A. P. Rendell, J. C. Burant, S. S. Iyengar, 
 J. Tomasi, M. Cossi, J. M. Millam, M. Klene, C. Adamo, R. Cammi, 
 J. W. Ochterski, R. L. Martin, K. Morokuma, O. Farkas, 
 J. B. Foresman, and D. J. Fox, Gaussian, Inc., Wallingford CT, 2016.
 
 ******************************************
 Gaussian 16:  ES64L-G16RevA.03 25-Dec-2016
                11-Feb-2020 
 ******************************************
 %chk=checkpoint.chk
 %mem=3GB
 %nprocshared=4
 Will use up to    4 processors via shared memory.
 -------------------------------------------------------------------
 #t pop=none jul-cc-pvdz guess=read ub97d3 empiricaldispersion=gd3bj
 -------------------------------------------------------------------
 ------------------------------
 theory_abbreviation b97d3_d3bj
 ------------------------------
 Symbolic Z-matrix:
 Charge =  0 Multiplicity = 6
 O                    -0.33187  -0.15748  -0.50606 
 C                    -1.18266  -1.1258   -0.33227 
 C                    -2.6625   -0.34078   0.76035 
 C                    -2.89056   0.7483   -0.0643 
 C                    -3.87311   0.69328  -1.18746 
 Fe                    1.48963   0.17406  -0.07651 
 Cl                    1.82418   2.16615  -0.9331 
 C                    -2.11565   2.00013   0.08152 
 Cl                    2.56899  -1.49075  -1.01927 
 Cl                    1.68419   0.16471   2.12272 
 H                    -3.3689   -1.16355   0.65251 
 H                    -2.55168   2.83172  -0.4765 
 H                    -1.95506   2.28621   1.12404 
 H                    -1.1142    1.79272  -0.33887 
 H                    -4.6817    1.40442  -0.96599 
 H                    -3.42038   1.0324   -2.12778 
 H                    -4.31551  -0.29471  -1.32565 
 C                    -2.08878  -0.14272   2.1521 
 H                    -2.72303   0.54817   2.71968 
 H                    -2.05918  -1.08532   2.70091 
 H                    -1.07652   0.26806   2.13234 
 C                    -0.76244  -2.24504   0.61083 
 H                    -1.58972  -2.91367   0.86063 
 H                    -0.00288  -2.81918   0.06447 
 H                    -0.29354  -1.86508   1.51747 
 C                    -1.8237   -1.63025  -1.61448 
 H                    -1.07028  -2.25643  -2.10737 
 H                    -2.71004  -2.24338  -1.43162 
 H                    -2.06166  -0.8126   -2.29436 
 
                    Distance matrix (angstroms):
                    1          2          3          4          5
     1  O    0.000000
     2  C    1.300651   0.000000
     3  C    2.658799   1.999999   0.000000
     4  C    2.749996   2.549703   1.384974   0.000000
     5  C    3.705194   3.358408   2.515716   1.493295   0.000000
     6  Fe   1.900602   2.982647   4.266794   4.417685   5.501158
     7  Cl   3.198460   4.498777   5.411349   4.999384   5.890086
     8  C    2.860490   3.288337   2.497948   1.479472   2.531175
     9  Cl   3.233572   3.831454   5.644283   5.977625   6.804329
    10  Cl   3.328478   3.988887   4.583148   5.104110   6.490010
    11  H    3.402643   2.398091   1.089763   2.097090   2.662239
    12  H    3.723403   4.190104   3.406877   2.150669   2.612389
    13  H    3.356124   3.789359   2.744775   2.156955   3.399907
    14  H    2.107910   2.919334   2.856104   2.078859   3.088764
    15  H    4.644577   4.364276   3.178548   2.109914   1.099362
    16  H    3.685741   3.590137   3.286539   2.149280   1.097350
    17  H    4.069393   3.390025   2.661953   2.170110   1.091300
    18  C    3.186337   2.821273   1.518331   2.519755   3.877546
    19  H    4.076879   3.806482   2.152406   2.796179   4.075470
    20  H    3.758878   3.157552   2.164280   3.420489   4.644695
    21  H    2.774302   2.833451   2.183661   2.889050   4.361518
    22  C    2.406389   1.522729   2.694211   3.734267   4.641529
    23  H    3.323645   2.187508   2.789381   3.994706   4.734826
    24  H    2.741965   2.101621   3.701388   4.591533   5.374322
    25  H    2.648029   2.181426   2.916963   4.009521   5.164800
    26  C    2.371327   1.519687   2.829506   3.032939   3.127484
    27  H    2.741356   2.107583   3.798506   4.063979   4.171667
    28  H    3.295958   2.188707   2.902911   3.294287   3.168015
    29  H    2.572814   2.172675   3.148791   2.845466   2.602738
                    6          7          8          9         10
     6  Fe   0.000000
     7  Cl   2.194101   0.000000
     8  C    4.044444   4.071758   0.000000
     9  Cl   2.196685   3.732973   5.945069   0.000000
    10  Cl   2.207832   3.655592   4.687651   3.659984   0.000000
    11  H    5.091751   6.369383   3.450445   6.177410   5.427659
    12  H    4.853380   4.449673   1.092259   6.723065   5.640163
    13  H    4.215253   4.304518   1.092925   6.271063   4.329234
    14  H    3.077145   3.021030   1.105729   4.980968   4.067040
    15  H    6.355334   6.550403   2.834922   7.807521   7.183425
    16  H    5.390051   5.497092   2.742231   6.592999   6.698975
    17  H    5.956488   6.626137   3.476468   6.994336   6.935325
    18  C    4.227534   5.491863   2.979911   5.793926   3.785591
    19  H    5.070016   6.052905   3.071970   6.792818   4.463965
    20  H    4.679120   6.233664   4.047775   5.951815   3.988701
    21  H    3.387176   4.627495   2.878503   5.129894   2.762660
    22  C    3.375833   5.341611   4.486961   3.784780   3.752155
    23  H    4.460349   6.377831   5.002907   4.780547   4.667738
    24  H    3.347675   5.402475   5.262115   3.090908   3.998270
    25  H    3.143020   5.171156   4.507988   3.843081   2.897896
    26  C    4.074191   5.308852   4.017621   4.435029   5.430818
    27  H    4.072447   5.414426   4.899216   3.874860   5.598449
    28  H    5.031656   6.344416   4.544262   5.348330   6.143407
    29  H    4.301628   5.081899   3.682279   4.850633   5.873421
                   11         12         13         14         15
    11  H    0.000000
    12  H    4.231390   0.000000
    13  H    3.757937   1.793112   0.000000
    14  H    3.847860   1.778988   1.758030   0.000000
    15  H    3.307183   2.610323   3.546879   3.642956   0.000000
    16  H    3.543285   2.592091   3.780681   3.016085   1.754736
    17  H    2.358830   3.688729   4.270111   3.947089   1.774963
    18  C    2.220259   3.996382   2.640923   3.301614   4.340432
    19  H    2.760495   3.931850   2.481246   3.673133   4.260716
    20  H    2.432578   5.067710   3.723516   4.291433   5.150010
    21  H    3.081302   3.943919   2.421040   2.903946   4.887571
    22  C    2.822229   5.491546   4.713586   4.162829   5.582607
    23  H    2.504332   5.976850   5.219343   4.880065   5.616293
    24  H    3.796968   6.222672   5.567643   4.761023   6.386861
    25  H    3.270797   5.579878   4.488723   4.183183   6.009424
    26  C    2.782919   4.661981   4.780724   3.721194   4.218753
    27  H    3.754317   5.544683   5.644497   4.418727   5.267530
    28  H    2.437972   5.166623   5.255337   4.475596   4.172616
    29  H    3.242847   4.101929   4.615131   3.392542   3.680268
                   16         17         18         19         20
    16  H    0.000000
    17  H    1.790502   0.000000
    18  C    4.633729   4.132331   0.000000
    19  H    4.921244   4.428447   1.096244   0.000000
    20  H    5.445541   4.682875   1.091132   1.763336   0.000000
    21  H    4.922052   4.771324   1.092616   1.770428   1.766505
    22  C    5.030529   4.491998   2.924795   4.011631   2.719365
    23  H    5.277630   4.366771   3.097592   4.089592   2.636260
    24  H    5.596420   5.186922   3.984043   5.078227   3.766361
    25  H    5.608958   5.169687   2.567520   3.629256   2.264076
    26  C    3.146830   2.841862   4.058332   4.933474   4.356027
    27  H    4.042246   3.871809   4.862932   5.822171   5.046677
    28  H    3.423447   2.527072   4.200207   5.002619   4.340798
    29  H    2.297369   2.507281   4.496715   5.237334   5.002712
                   21         22         23         24         25
    21  H    0.000000
    22  C    2.954540   0.000000
    23  H    3.464682   1.092648   0.000000
    24  H    3.867796   1.097759   1.777888   0.000000
    25  H    2.354021   1.089144   1.791942   1.762386   0.000000
    26  C    4.266206   2.540910   2.797871   2.747328   3.493658
    27  H    4.934391   2.735592   3.083957   2.484532   3.727725
    28  H    4.655917   2.822185   2.637953   3.146192   3.831409
    29  H    4.661978   3.489977   3.819839   3.718734   4.331744
                   26         27         28         29
    26  C    0.000000
    27  H    1.096670   0.000000
    28  H    1.093146   1.773584   0.000000
    29  H    1.089680   1.761370   1.792166   0.000000
 Framework group  C1[X(C8H16Cl3FeO)]
 Deg. of freedom    81
                         Standard orientation:                         
 ---------------------------------------------------------------------
 Center     Atomic      Atomic             Coordinates (Angstroms)
 Number     Number       Type             X           Y           Z
 ---------------------------------------------------------------------
      1          8           0       -0.331869   -0.157480   -0.506058
      2          6           0       -1.182659   -1.125802   -0.332271
      3          6           0       -2.662495   -0.340781    0.760352
      4          6           0       -2.890558    0.748299   -0.064296
      5          6           0       -3.873107    0.693275   -1.187461
      6         26           0        1.489629    0.174061   -0.076506
      7         17           0        1.824178    2.166148   -0.933096
      8          6           0       -2.115647    2.000134    0.081515
      9         17           0        2.568992   -1.490751   -1.019268
     10         17           0        1.684192    0.164708    2.122717
     11          1           0       -3.368895   -1.163552    0.652507
     12          1           0       -2.551679    2.831717   -0.476495
     13          1           0       -1.955061    2.286205    1.124041
     14          1           0       -1.114200    1.792722   -0.338866
     15          1           0       -4.681701    1.404417   -0.965991
     16          1           0       -3.420377    1.032399   -2.127784
     17          1           0       -4.315509   -0.294712   -1.325653
     18          6           0       -2.088781   -0.142724    2.152097
     19          1           0       -2.723027    0.548172    2.719676
     20          1           0       -2.059181   -1.085324    2.700913
     21          1           0       -1.076517    0.268058    2.132345
     22          6           0       -0.762435   -2.245036    0.610826
     23          1           0       -1.589723   -2.913669    0.860633
     24          1           0       -0.002877   -2.819178    0.064468
     25          1           0       -0.293541   -1.865084    1.517473
     26          6           0       -1.823701   -1.630246   -1.614476
     27          1           0       -1.070283   -2.256430   -2.107365
     28          1           0       -2.710037   -2.243385   -1.431617
     29          1           0       -2.061656   -0.812603   -2.294359
 ---------------------------------------------------------------------
 Rotational constants (GHZ):           0.5897679           0.3172465           0.3022470
   427 basis functions,  1056 primitive gaussians,   461 cartesian basis functions
    77 alpha electrons       72 beta electrons
       nuclear repulsion energy      1632.7941048932 Hartrees.
 NAtoms=   29 NActive=   29 NUniq=   29 SFac= 1.00D+00 NAtFMM=   60 NAOKFM=F Big=F
 Nuclear repulsion after empirical dispersion term =     1632.6941007396 Hartrees.
 Initial guess from the checkpoint file:  "checkpoint.chk"
 B after Tr=     0.000000    0.000000    0.000000
         Rot=    1.000000    0.000000    0.000000    0.000000 Ang=   0.00 deg.
 Initial guess <Sx>= 0.0000 <Sy>= 0.0000 <Sz>= 2.5000 <S**2>= 8.7617 S= 2.5020
 EnCoef did     3 forward-backward iterations
 SCF Done:  E(UB97D3) =  -3034.61721986     A.U. after   17 cycles
            NFock= 17  Conv=0.39D-08     -V/T= 2.0019
 <Sx>= 0.0000 <Sy>= 0.0000 <Sz>= 2.5000 <S**2>= 8.7599 S= 2.5016
 <L.S>= 0.000000000000E+00
 Annihilation of the first spin contaminant:
 S**2 before annihilation     8.7599,   after     8.7500
 1\1\GINC-HOLY7C08607\SP\UB97D3\Jul-CC-pVDZ\C8H16Cl3Fe1O1(6)\EKWAN\11-F
 eb-2020\0\\#t pop=none jul-cc-pvdz guess=read ub97d3 empiricaldispersi
 on=gd3bj\\theory_abbreviation b97d3_d3bj\\0,6\O,0,-0.331869,-0.15748,-
 0.506058\C,0,-1.182659,-1.125802,-0.332271\C,0,-2.662495,-0.340781,0.7
 60352\C,0,-2.890558,0.748299,-0.064296\C,0,-3.873107,0.693275,-1.18746
 1\Fe,0,1.489629,0.174061,-0.076506\Cl,0,1.824178,2.166148,-0.933096\C,
 0,-2.115647,2.000134,0.081515\Cl,0,2.568992,-1.490751,-1.019268\Cl,0,1
 .684192,0.164708,2.122717\H,0,-3.368895,-1.163552,0.652507\H,0,-2.5516
 79,2.831717,-0.476495\H,0,-1.955061,2.286205,1.124041\H,0,-1.1142,1.79
 2722,-0.338866\H,0,-4.681701,1.404417,-0.965991\H,0,-3.420377,1.032399
 ,-2.127784\H,0,-4.315509,-0.294712,-1.325653\C,0,-2.088781,-0.142724,2
 .152097\H,0,-2.723027,0.548172,2.719676\H,0,-2.059181,-1.085324,2.7009
 13\H,0,-1.076517,0.268058,2.132345\C,0,-0.762435,-2.245036,0.610826\H,
 0,-1.589723,-2.913669,0.860633\H,0,-0.002877,-2.819178,0.064468\H,0,-0
 .293541,-1.865084,1.517473\C,0,-1.823701,-1.630246,-1.614476\H,0,-1.07
 0283,-2.25643,-2.107365\H,0,-2.710037,-2.243385,-1.431617\H,0,-2.06165
 6,-0.812603,-2.294359\\Version=ES64L-G16RevA.03\HF=-3034.6172199\S2=8.
 759862\S2-1=0.\S2A=8.750031\RMSD=3.862e-09\PG=C01 [X(C8H16Cl3Fe1O1)]\\
 @


 DEFINE YOUR TERMS, YOU WILL PERMIT ME AGAIN TO SAY, 
 OR WE SHALL NEVER UNDERSTAND ONE ANOTHER.

                                    -- VOLTAIRE
 Job cpu time:       0 days  0 hours 52 minutes 56.9 seconds.
 Elapsed time:       0 days  0 hours 13 minutes 16.6 seconds.
 File lengths (MBytes):  RWF=    174 Int=      0 D2E=      0 Chk=     13 Scr=      1
 Normal termination of Gaussian 16 at Tue Feb 11 23:56:01 2020.
