 Entering Gaussian System, Link 0=g16
 Input=simple-grid-185-230-b3lyp_d3bj-631gd-gas-singlepoint-DFT-juldz2-gas.gjf
 Output=simple-grid-185-230-b3lyp_d3bj-631gd-gas-singlepoint-DFT-juldz2-gas.out
 Initial command:
 /n/sw/g16_nehalem/g16/l1.exe "/scratch/Gau-132030.inp" -scrdir="/scratch/"
 Entering Link 1 = /n/sw/g16_nehalem/g16/l1.exe PID=    132052.
  
 Copyright (c) 1988,1990,1992,1993,1995,1998,2003,2009,2016,
            Gaussian, Inc.  All Rights Reserved.
  
 This is part of the Gaussian(R) 16 program.  It is based on
 the Gaussian(R) 09 system (copyright 2009, Gaussian, Inc.),
 the Gaussian(R) 03 system (copyright 2003, Gaussian, Inc.),
 the Gaussian(R) 98 system (copyright 1998, Gaussian, Inc.),
 the Gaussian(R) 94 system (copyright 1995, Gaussian, Inc.),
 the Gaussian 92(TM) system (copyright 1992, Gaussian, Inc.),
 the Gaussian 90(TM) system (copyright 1990, Gaussian, Inc.),
 the Gaussian 88(TM) system (copyright 1988, Gaussian, Inc.),
 the Gaussian 86(TM) system (copyright 1986, Carnegie Mellon
 University), and the Gaussian 82(TM) system (copyright 1983,
 Carnegie Mellon University). Gaussian is a federally registered
 trademark of Gaussian, Inc.
  
 This software contains proprietary and confidential information,
 including trade secrets, belonging to Gaussian, Inc.
  
 This software is provided under written license and may be
 used, copied, transmitted, or stored only in accord with that
 written license.
  
 The following legend is applicable only to US Government
 contracts under FAR:
  
                    RESTRICTED RIGHTS LEGEND
  
 Use, reproduction and disclosure by the US Government is
 subject to restrictions as set forth in subparagraphs (a)
 and (c) of the Commercial Computer Software - Restricted
 Rights clause in FAR 52.227-19.
  
 Gaussian, Inc.
 340 Quinnipiac St., Bldg. 40, Wallingford CT 06492
  
  
 ---------------------------------------------------------------
 Warning -- This program may not be used in any manner that
 competes with the business of Gaussian, Inc. or will provide
 assistance to any competitor of Gaussian, Inc.  The licensee
 of this program is prohibited from giving any competitor of
 Gaussian, Inc. access to this program.  By using this program,
 the user acknowledges that Gaussian, Inc. is engaged in the
 business of creating and licensing software in the field of
 computational chemistry and represents and warrants to the
 licensee that it is not a competitor of Gaussian, Inc. and that
 it will not use this program in any manner prohibited above.
 ---------------------------------------------------------------
  

 Cite this work as:
 Gaussian 16, Revision A.03,
 M. J. Frisch, G. W. Trucks, H. B. Schlegel, G. E. Scuseria, 
 M. A. Robb, J. R. Cheeseman, G. Scalmani, V. Barone, 
 G. A. Petersson, H. Nakatsuji, X. Li, M. Caricato, A. V. Marenich, 
 J. Bloino, B. G. Janesko, R. Gomperts, B. Mennucci, H. P. Hratchian, 
 J. V. Ortiz, A. F. Izmaylov, J. L. Sonnenberg, D. Williams-Young, 
 F. Ding, F. Lipparini, F. Egidi, J. Goings, B. Peng, A. Petrone, 
 T. Henderson, D. Ranasinghe, V. G. Zakrzewski, J. Gao, N. Rega, 
 G. Zheng, W. Liang, M. Hada, M. Ehara, K. Toyota, R. Fukuda, 
 J. Hasegawa, M. Ishida, T. Nakajima, Y. Honda, O. Kitao, H. Nakai, 
 T. Vreven, K. Throssell, J. A. Montgomery, Jr., J. E. Peralta, 
 F. Ogliaro, M. J. Bearpark, J. J. Heyd, E. N. Brothers, K. N. Kudin, 
 V. N. Staroverov, T. A. Keith, R. Kobayashi, J. Normand, 
 K. Raghavachari, A. P. Rendell, J. C. Burant, S. S. Iyengar, 
 J. Tomasi, M. Cossi, J. M. Millam, M. Klene, C. Adamo, R. Cammi, 
 J. W. Ochterski, R. L. Martin, K. Morokuma, O. Farkas, 
 J. B. Foresman, and D. J. Fox, Gaussian, Inc., Wallingford CT, 2016.
 
 ******************************************
 Gaussian 16:  ES64L-G16RevA.03 25-Dec-2016
                11-Feb-2020 
 ******************************************
 %chk=checkpoint.chk
 %mem=3GB
 %nprocshared=4
 Will use up to    4 processors via shared memory.
 --------------------------------
 #t pop=none jul-cc-pvdz upbe1pbe
 --------------------------------
 ------------------------
 theory_abbreviation pbe0
 ------------------------
 Symbolic Z-matrix:
 Charge =  0 Multiplicity = 6
 O                    -0.32124  -0.2359   -0.60651 
 C                    -1.35207  -1.12691  -0.47673 
 C                    -2.85642  -0.1226   -0.08839 
 C                    -2.14562   1.11059  -0.22112 
 C                    -2.00608   1.78369  -1.53035 
 Fe                    1.39361   0.04199   0.02964 
 Cl                    1.78907   2.08684  -0.74977 
 C                    -1.57818   1.80538   0.95442 
 Cl                    2.66736  -1.58421  -0.72083 
 Cl                    1.2665    0.05006   2.25553 
 H                    -3.50406  -0.32284  -0.94188 
 H                    -2.4105    2.3519    1.42891 
 H                    -1.18514   1.1127    1.70213 
 H                    -0.80021   2.51776   0.67482 
 H                    -2.56801   2.72949  -1.46904 
 H                    -0.95572   2.04924  -1.69744 
 H                    -2.39672   1.19665  -2.36207 
 C                    -3.51221  -0.47108   1.23771 
 H                    -4.36323   0.19405   1.4273 
 H                    -3.89606  -1.49385   1.21213 
 H                    -2.8277   -0.39106   2.08443 
 C                    -1.15616  -2.11577   0.65448 
 H                    -2.00008  -2.80107   0.76384 
 H                    -0.26554  -2.70338   0.39546 
 H                    -0.94696  -1.61836   1.60251 
 C                    -1.67114  -1.78812  -1.80699 
 H                    -0.79257  -2.37931  -2.09182 
 H                    -2.54024  -2.44963  -1.73973 
 H                    -1.8338   -1.04363  -2.59018 
 
                    Distance matrix (angstroms):
                    1          2          3          4          5
     1  O    0.000000
     2  C    1.368706   0.000000
     3  C    2.590059   1.850000   0.000000
     4  C    2.299992   2.387778   1.429545   0.000000
     5  C    2.787636   3.163768   2.536978   1.478726   0.000000
     6  Fe   1.850033   3.026801   4.254853   3.705537   4.126134
     7  Cl   3.141499   4.502162   5.186477   4.088318   3.886429
     8  C    2.860633   3.270723   2.537405   1.478716   2.521440
     9  Cl   3.280659   4.052720   5.748773   5.538637   5.817136
    10  Cl   3.285414   3.963260   4.745758   4.347541   5.296049
    11  H    3.201626   2.343916   1.089944   2.102283   2.650993
    12  H    3.899310   4.105339   2.936689   2.081720   3.040332
    13  H    2.809778   3.129081   2.743190   2.149747   3.401926
    14  H    3.074712   3.861893   3.432484   2.143117   2.618349
    15  H    3.819097   4.163533   3.181787   2.087237   1.101846
    16  H    2.610474   3.425663   3.304327   2.115769   1.096216
    17  H    3.072753   3.169337   2.668583   2.157346   1.090404
    18  C    3.693069   2.834719   1.519887   2.549002   3.874866
    19  H    4.545211   3.799651   2.160575   2.911206   4.102544
    20  H    4.203473   3.075507   2.156972   3.449827   4.672844
    21  H    3.680702   3.046063   2.189535   2.834738   4.297821
    22  C    2.412695   1.515212   2.723137   3.486423   4.549907
    23  H    3.358041   2.182140   2.938335   4.036386   5.126729
    24  H    2.663732   2.103926   3.688788   4.296654   5.183817
    25  H    2.680018   2.174604   2.956773   3.494227   4.744526
    26  C    2.381761   1.519402   2.670656   3.338064   3.598132
    27  H    2.650005   2.118978   3.655946   4.184465   4.372465
    28  H    3.332982   2.180939   2.870883   3.890645   4.272027
    29  H    2.622070   2.169257   2.855348   3.217207   3.024351
                    6          7          8          9         10
     6  Fe   0.000000
     7  Cl   2.223792   0.000000
     8  C    3.577198   3.784426   0.000000
     9  Cl   2.197760   3.774756   5.685103   0.000000
    10  Cl   2.229534   3.667883   3.586956   3.673141   0.000000
    11  H    5.006414   5.818996   3.440098   6.302885   5.755061
    12  H    4.665289   4.738491   1.102984   6.774878   4.416120
    13  H    3.254784   3.975761   1.092408   5.290160   2.728735
    14  H    3.370247   2.986559   1.091285   5.549597   3.586012
    15  H    5.016292   4.462570   2.776136   6.824729   5.979574
    16  H    3.539946   2.904022   2.734832   5.223257   4.955902
    17  H    4.628188   4.573049   3.469823   6.005973   6.004671
    18  C    5.078366   6.212613   3.000492   6.577390   4.913616
    19  H    5.926033   6.795080   3.252153   7.563457   5.692151
    20  H    5.633621   6.999355   4.040275   6.842728   5.488562
    21  H    4.714783   5.957113   2.768131   6.284008   4.121445
    22  C    3.398192   5.320544   3.955184   4.097969   3.622634
    23  H    4.487670   6.367122   4.629649   5.046780   4.585260
    24  H    3.228568   5.336579   4.729093   3.331748   3.659020
    25  H    3.272457   5.171803   3.541250   4.296788   2.847709
    26  C    4.014378   5.301515   4.532907   4.477044   5.339727
    27  H    3.891362   5.330333   5.235304   3.805644   5.388977
    28  H    4.981369   6.348423   5.127289   5.376448   6.058200
    29  H    4.296306   5.129536   4.554826   4.903788   5.855678
                   11         12         13         14         15
    11  H    0.000000
    12  H    3.737740   0.000000
    13  H    3.798546   1.764023   0.000000
    14  H    4.241879   1.785831   1.782617   0.000000
    15  H    3.235868   2.926688   3.818730   2.786775   0.000000
    16  H    3.562548   3.461508   3.533670   2.423079   1.764766
    17  H    2.356272   3.963116   4.241780   3.676532   1.782259
    18  C    2.184635   3.036360   2.852944   4.074913   4.296703
    19  H    2.572613   2.910235   3.319598   4.319836   4.247365
    20  H    2.482867   4.128388   3.792525   5.095676   5.175804
    21  H    3.101718   2.850890   2.259523   3.815616   4.736292
    22  C    3.357913   4.704590   3.394324   4.647226   5.475330
    23  H    3.363481   5.211889   4.106347   5.453211   5.991274
    24  H    4.235965   5.587901   4.137085   5.255868   6.188195
    25  H    3.832892   4.234978   2.743235   4.241417   5.564718
    26  C    2.501010   5.306353   4.578738   5.045640   4.618159
    27  H    3.592162   6.115353   5.171297   5.624560   5.444255
    28  H    2.467541   5.754279   5.135452   5.790744   5.186267
    29  H    2.454841   5.292947   4.847112   4.940859   4.004059
                   16         17         18         19         20
    16  H    0.000000
    17  H    1.801428   0.000000
    18  C    4.637109   4.121170   0.000000
    19  H    4.981659   4.385398   1.096616   0.000000
    20  H    5.446527   4.718226   1.092726   1.764520   0.000000
    21  H    4.874623   4.741090   1.091741   1.769757   1.765910
    22  C    4.787384   4.648727   2.931921   4.027136   2.864401
    23  H    5.538420   5.090219   2.817793   3.872385   2.346170
    24  H    5.238696   5.230300   4.029072   5.123555   3.912870
    25  H    4.933669   5.073854   2.833703   3.871234   2.977430
    26  C    3.905023   3.121445   3.793984   4.651552   3.761898
    27  H    4.449075   3.928589   4.703571   5.635246   4.618629
    28  H    4.769948   3.701794   3.704664   4.510254   3.386029
    29  H    3.336753   2.321158   4.218728   4.906125   4.348926
                   21         22         23         24         25
    21  H    0.000000
    22  C    2.795251   0.000000
    23  H    2.870025   1.092607   0.000000
    24  H    3.842405   1.097985   1.775915   0.000000
    25  H    2.296887   1.090851   1.791993   1.760276   0.000000
    26  C    4.293311   2.536013   2.782694   2.768421   3.489691
    27  H    5.053311   2.782768   3.129014   2.563067   3.775047
    28  H    4.352530   2.785559   2.585168   3.130116   3.794748
    29  H    4.823454   3.483748   3.790208   3.758752   4.323830
                   26         27         28         29
    26  C    0.000000
    27  H    1.096598   0.000000
    28  H    1.094281   1.784169   0.000000
    29  H    1.092757   1.765378   1.788623   0.000000
 Framework group  C1[X(C8H16Cl3FeO)]
 Deg. of freedom    81
                         Standard orientation:                         
 ---------------------------------------------------------------------
 Center     Atomic      Atomic             Coordinates (Angstroms)
 Number     Number       Type             X           Y           Z
 ---------------------------------------------------------------------
      1          8           0       -0.321238   -0.235899   -0.606507
      2          6           0       -1.352072   -1.126908   -0.476732
      3          6           0       -2.856416   -0.122596   -0.088393
      4          6           0       -2.145625    1.110595   -0.221115
      5          6           0       -2.006075    1.783693   -1.530350
      6         26           0        1.393614    0.041990    0.029639
      7         17           0        1.789070    2.086835   -0.749767
      8          6           0       -1.578184    1.805377    0.954423
      9         17           0        2.667360   -1.584207   -0.720831
     10         17           0        1.266499    0.050057    2.255532
     11          1           0       -3.504063   -0.322843   -0.941875
     12          1           0       -2.410504    2.351895    1.428907
     13          1           0       -1.185140    1.112698    1.702131
     14          1           0       -0.800212    2.517758    0.674824
     15          1           0       -2.568012    2.729491   -1.469043
     16          1           0       -0.955716    2.049245   -1.697438
     17          1           0       -2.396718    1.196648   -2.362070
     18          6           0       -3.512212   -0.471076    1.237710
     19          1           0       -4.363233    0.194045    1.427300
     20          1           0       -3.896057   -1.493846    1.212126
     21          1           0       -2.827698   -0.391062    2.084431
     22          6           0       -1.156161   -2.115772    0.654477
     23          1           0       -2.000081   -2.801067    0.763836
     24          1           0       -0.265542   -2.703375    0.395455
     25          1           0       -0.946958   -1.618361    1.602513
     26          6           0       -1.671143   -1.788120   -1.806986
     27          1           0       -0.792571   -2.379312   -2.091820
     28          1           0       -2.540239   -2.449633   -1.739725
     29          1           0       -1.833799   -1.043633   -2.590184
 ---------------------------------------------------------------------
 Rotational constants (GHZ):           0.5793730           0.3528486           0.3227184
   427 basis functions,  1056 primitive gaussians,   461 cartesian basis functions
    77 alpha electrons       72 beta electrons
       nuclear repulsion energy      1657.0384078473 Hartrees.
 NAtoms=   29 NActive=   29 NUniq=   29 SFac= 1.00D+00 NAtFMM=   60 NAOKFM=F Big=F
 ExpMin= 1.40D-02 ExpMax= 4.32D+06 ExpMxC= 4.91D+03 IAcc=3 IRadAn=         5 AccDes= 0.00D+00
 Harris functional with IExCor= 1009 and IRadAn=       5 diagonalized for initial guess.
 HarFok:  IExCor= 1009 AccDes= 0.00D+00 IRadAn=         5 IDoV= 1 UseB2=F ITyADJ=14
 ICtDFT=  3500011 ScaDFX=  1.000000  1.000000  1.000000  1.000000
 FoFCou: FMM=F IPFlag=           0 FMFlag=      100000 FMFlg1=           0
         NFxFlg=           0 DoJE=T BraDBF=F KetDBF=T FulRan=T
         wScrn=  0.000000 ICntrl=       500 IOpCl=  0 I1Cent=   200000004 NGrid=           0
         NMat0=    1 NMatS0=      1 NMatT0=    0 NMatD0=    1 NMtDS0=    0 NMtDT0=    0
 Petite list used in FoFCou.
 Initial guess <Sx>= 0.0000 <Sy>= 0.0000 <Sz>= 2.5000 <S**2>= 8.7500 S= 2.5000
 EnCoef did   100 forward-backward iterations
 Restarting incremental Fock formation.
 SCF Done:  E(UPBE1PBE) =  -3033.10283106     A.U. after   21 cycles
            NFock= 21  Conv=0.56D-08     -V/T= 2.0021
 <Sx>= 0.0000 <Sy>= 0.0000 <Sz>= 2.5000 <S**2>= 8.7622 S= 2.5020
 <L.S>= 0.000000000000E+00
 Annihilation of the first spin contaminant:
 S**2 before annihilation     8.7622,   after     8.7500
 1\1\GINC-HOLY7C04306\SP\UPBE1PBE\Jul-CC-pVDZ\C8H16Cl3Fe1O1(6)\EKWAN\11
 -Feb-2020\0\\#t pop=none jul-cc-pvdz upbe1pbe\\theory_abbreviation pbe
 0\\0,6\O,0,-0.321238,-0.235899,-0.606507\C,0,-1.352072,-1.126908,-0.47
 6732\C,0,-2.856416,-0.122596,-0.088393\C,0,-2.145625,1.110595,-0.22111
 5\C,0,-2.006075,1.783693,-1.53035\Fe,0,1.393614,0.04199,0.029639\Cl,0,
 1.78907,2.086835,-0.749767\C,0,-1.578184,1.805377,0.954423\Cl,0,2.6673
 6,-1.584207,-0.720831\Cl,0,1.266499,0.050057,2.255532\H,0,-3.504063,-0
 .322843,-0.941875\H,0,-2.410504,2.351895,1.428907\H,0,-1.18514,1.11269
 8,1.702131\H,0,-0.800212,2.517758,0.674824\H,0,-2.568012,2.729491,-1.4
 69043\H,0,-0.955716,2.049245,-1.697438\H,0,-2.396718,1.196648,-2.36207
 \C,0,-3.512212,-0.471076,1.23771\H,0,-4.363233,0.194045,1.4273\H,0,-3.
 896057,-1.493846,1.212126\H,0,-2.827698,-0.391062,2.084431\C,0,-1.1561
 61,-2.115772,0.654477\H,0,-2.000081,-2.801067,0.763836\H,0,-0.265542,-
 2.703375,0.395455\H,0,-0.946958,-1.618361,1.602513\C,0,-1.671143,-1.78
 812,-1.806986\H,0,-0.792571,-2.379312,-2.09182\H,0,-2.540239,-2.449633
 ,-1.739725\H,0,-1.833799,-1.043633,-2.590184\\Version=ES64L-G16RevA.03
 \HF=-3033.1028311\S2=8.762198\S2-1=0.\S2A=8.750047\RMSD=5.567e-09\PG=C
 01 [X(C8H16Cl3Fe1O1)]\\@


 THE MOST BEAUTIFUL EXPERIENCE WE CAN HAVE IS THE MYSTERIOUS.
 IT IS THE FUNDAMENTAL EMOTION WHICH STANDS AT AT THE CRADLE 
 OF TRUE ART AND TRUE SCIENCE.

                                    -- ALBERT EINSTEIN
 Job cpu time:       0 days  1 hours 35 minutes 21.5 seconds.
 Elapsed time:       0 days  0 hours 23 minutes 54.5 seconds.
 File lengths (MBytes):  RWF=    173 Int=      0 D2E=      0 Chk=     13 Scr=      1
 Normal termination of Gaussian 16 at Tue Feb 11 13:59:45 2020.
 Initial command:
 /n/sw/g16_nehalem/g16/l1.exe "/scratch/Gau-132030.inp" -scrdir="/scratch/"
 Entering Link 1 = /n/sw/g16_nehalem/g16/l1.exe PID=    135421.
  
 Copyright (c) 1988,1990,1992,1993,1995,1998,2003,2009,2016,
            Gaussian, Inc.  All Rights Reserved.
  
 This is part of the Gaussian(R) 16 program.  It is based on
 the Gaussian(R) 09 system (copyright 2009, Gaussian, Inc.),
 the Gaussian(R) 03 system (copyright 2003, Gaussian, Inc.),
 the Gaussian(R) 98 system (copyright 1998, Gaussian, Inc.),
 the Gaussian(R) 94 system (copyright 1995, Gaussian, Inc.),
 the Gaussian 92(TM) system (copyright 1992, Gaussian, Inc.),
 the Gaussian 90(TM) system (copyright 1990, Gaussian, Inc.),
 the Gaussian 88(TM) system (copyright 1988, Gaussian, Inc.),
 the Gaussian 86(TM) system (copyright 1986, Carnegie Mellon
 University), and the Gaussian 82(TM) system (copyright 1983,
 Carnegie Mellon University). Gaussian is a federally registered
 trademark of Gaussian, Inc.
  
 This software contains proprietary and confidential information,
 including trade secrets, belonging to Gaussian, Inc.
  
 This software is provided under written license and may be
 used, copied, transmitted, or stored only in accord with that
 written license.
  
 The following legend is applicable only to US Government
 contracts under FAR:
  
                    RESTRICTED RIGHTS LEGEND
  
 Use, reproduction and disclosure by the US Government is
 subject to restrictions as set forth in subparagraphs (a)
 and (c) of the Commercial Computer Software - Restricted
 Rights clause in FAR 52.227-19.
  
 Gaussian, Inc.
 340 Quinnipiac St., Bldg. 40, Wallingford CT 06492
  
  
 ---------------------------------------------------------------
 Warning -- This program may not be used in any manner that
 competes with the business of Gaussian, Inc. or will provide
 assistance to any competitor of Gaussian, Inc.  The licensee
 of this program is prohibited from giving any competitor of
 Gaussian, Inc. access to this program.  By using this program,
 the user acknowledges that Gaussian, Inc. is engaged in the
 business of creating and licensing software in the field of
 computational chemistry and represents and warrants to the
 licensee that it is not a competitor of Gaussian, Inc. and that
 it will not use this program in any manner prohibited above.
 ---------------------------------------------------------------
  

 Cite this work as:
 Gaussian 16, Revision A.03,
 M. J. Frisch, G. W. Trucks, H. B. Schlegel, G. E. Scuseria, 
 M. A. Robb, J. R. Cheeseman, G. Scalmani, V. Barone, 
 G. A. Petersson, H. Nakatsuji, X. Li, M. Caricato, A. V. Marenich, 
 J. Bloino, B. G. Janesko, R. Gomperts, B. Mennucci, H. P. Hratchian, 
 J. V. Ortiz, A. F. Izmaylov, J. L. Sonnenberg, D. Williams-Young, 
 F. Ding, F. Lipparini, F. Egidi, J. Goings, B. Peng, A. Petrone, 
 T. Henderson, D. Ranasinghe, V. G. Zakrzewski, J. Gao, N. Rega, 
 G. Zheng, W. Liang, M. Hada, M. Ehara, K. Toyota, R. Fukuda, 
 J. Hasegawa, M. Ishida, T. Nakajima, Y. Honda, O. Kitao, H. Nakai, 
 T. Vreven, K. Throssell, J. A. Montgomery, Jr., J. E. Peralta, 
 F. Ogliaro, M. J. Bearpark, J. J. Heyd, E. N. Brothers, K. N. Kudin, 
 V. N. Staroverov, T. A. Keith, R. Kobayashi, J. Normand, 
 K. Raghavachari, A. P. Rendell, J. C. Burant, S. S. Iyengar, 
 J. Tomasi, M. Cossi, J. M. Millam, M. Klene, C. Adamo, R. Cammi, 
 J. W. Ochterski, R. L. Martin, K. Morokuma, O. Farkas, 
 J. B. Foresman, and D. J. Fox, Gaussian, Inc., Wallingford CT, 2016.
 
 ******************************************
 Gaussian 16:  ES64L-G16RevA.03 25-Dec-2016
                11-Feb-2020 
 ******************************************
 %chk=checkpoint.chk
 %mem=3GB
 %nprocshared=4
 Will use up to    4 processors via shared memory.
 ---------------------------------------------------------------------
 #t pop=none jul-cc-pvdz guess=read upbe1pbe empiricaldispersion=gd3bj
 ---------------------------------------------------------------------
 -----------------------------
 theory_abbreviation pbe0_d3bj
 -----------------------------
 Symbolic Z-matrix:
 Charge =  0 Multiplicity = 6
 O                    -0.32124  -0.2359   -0.60651 
 C                    -1.35207  -1.12691  -0.47673 
 C                    -2.85642  -0.1226   -0.08839 
 C                    -2.14562   1.11059  -0.22112 
 C                    -2.00608   1.78369  -1.53035 
 Fe                    1.39361   0.04199   0.02964 
 Cl                    1.78907   2.08684  -0.74977 
 C                    -1.57818   1.80538   0.95442 
 Cl                    2.66736  -1.58421  -0.72083 
 Cl                    1.2665    0.05006   2.25553 
 H                    -3.50406  -0.32284  -0.94188 
 H                    -2.4105    2.3519    1.42891 
 H                    -1.18514   1.1127    1.70213 
 H                    -0.80021   2.51776   0.67482 
 H                    -2.56801   2.72949  -1.46904 
 H                    -0.95572   2.04924  -1.69744 
 H                    -2.39672   1.19665  -2.36207 
 C                    -3.51221  -0.47108   1.23771 
 H                    -4.36323   0.19405   1.4273 
 H                    -3.89606  -1.49385   1.21213 
 H                    -2.8277   -0.39106   2.08443 
 C                    -1.15616  -2.11577   0.65448 
 H                    -2.00008  -2.80107   0.76384 
 H                    -0.26554  -2.70338   0.39546 
 H                    -0.94696  -1.61836   1.60251 
 C                    -1.67114  -1.78812  -1.80699 
 H                    -0.79257  -2.37931  -2.09182 
 H                    -2.54024  -2.44963  -1.73973 
 H                    -1.8338   -1.04363  -2.59018 
 
                    Distance matrix (angstroms):
                    1          2          3          4          5
     1  O    0.000000
     2  C    1.368706   0.000000
     3  C    2.590059   1.850000   0.000000
     4  C    2.299992   2.387778   1.429545   0.000000
     5  C    2.787636   3.163768   2.536978   1.478726   0.000000
     6  Fe   1.850033   3.026801   4.254853   3.705537   4.126134
     7  Cl   3.141499   4.502162   5.186477   4.088318   3.886429
     8  C    2.860633   3.270723   2.537405   1.478716   2.521440
     9  Cl   3.280659   4.052720   5.748773   5.538637   5.817136
    10  Cl   3.285414   3.963260   4.745758   4.347541   5.296049
    11  H    3.201626   2.343916   1.089944   2.102283   2.650993
    12  H    3.899310   4.105339   2.936689   2.081720   3.040332
    13  H    2.809778   3.129081   2.743190   2.149747   3.401926
    14  H    3.074712   3.861893   3.432484   2.143117   2.618349
    15  H    3.819097   4.163533   3.181787   2.087237   1.101846
    16  H    2.610474   3.425663   3.304327   2.115769   1.096216
    17  H    3.072753   3.169337   2.668583   2.157346   1.090404
    18  C    3.693069   2.834719   1.519887   2.549002   3.874866
    19  H    4.545211   3.799651   2.160575   2.911206   4.102544
    20  H    4.203473   3.075507   2.156972   3.449827   4.672844
    21  H    3.680702   3.046063   2.189535   2.834738   4.297821
    22  C    2.412695   1.515212   2.723137   3.486423   4.549907
    23  H    3.358041   2.182140   2.938335   4.036386   5.126729
    24  H    2.663732   2.103926   3.688788   4.296654   5.183817
    25  H    2.680018   2.174604   2.956773   3.494227   4.744526
    26  C    2.381761   1.519402   2.670656   3.338064   3.598132
    27  H    2.650005   2.118978   3.655946   4.184465   4.372465
    28  H    3.332982   2.180939   2.870883   3.890645   4.272027
    29  H    2.622070   2.169257   2.855348   3.217207   3.024351
                    6          7          8          9         10
     6  Fe   0.000000
     7  Cl   2.223792   0.000000
     8  C    3.577198   3.784426   0.000000
     9  Cl   2.197760   3.774756   5.685103   0.000000
    10  Cl   2.229534   3.667883   3.586956   3.673141   0.000000
    11  H    5.006414   5.818996   3.440098   6.302885   5.755061
    12  H    4.665289   4.738491   1.102984   6.774878   4.416120
    13  H    3.254784   3.975761   1.092408   5.290160   2.728735
    14  H    3.370247   2.986559   1.091285   5.549597   3.586012
    15  H    5.016292   4.462570   2.776136   6.824729   5.979574
    16  H    3.539946   2.904022   2.734832   5.223257   4.955902
    17  H    4.628188   4.573049   3.469823   6.005973   6.004671
    18  C    5.078366   6.212613   3.000492   6.577390   4.913616
    19  H    5.926033   6.795080   3.252153   7.563457   5.692151
    20  H    5.633621   6.999355   4.040275   6.842728   5.488562
    21  H    4.714783   5.957113   2.768131   6.284008   4.121445
    22  C    3.398192   5.320544   3.955184   4.097969   3.622634
    23  H    4.487670   6.367122   4.629649   5.046780   4.585260
    24  H    3.228568   5.336579   4.729093   3.331748   3.659020
    25  H    3.272457   5.171803   3.541250   4.296788   2.847709
    26  C    4.014378   5.301515   4.532907   4.477044   5.339727
    27  H    3.891362   5.330333   5.235304   3.805644   5.388977
    28  H    4.981369   6.348423   5.127289   5.376448   6.058200
    29  H    4.296306   5.129536   4.554826   4.903788   5.855678
                   11         12         13         14         15
    11  H    0.000000
    12  H    3.737740   0.000000
    13  H    3.798546   1.764023   0.000000
    14  H    4.241879   1.785831   1.782617   0.000000
    15  H    3.235868   2.926688   3.818730   2.786775   0.000000
    16  H    3.562548   3.461508   3.533670   2.423079   1.764766
    17  H    2.356272   3.963116   4.241780   3.676532   1.782259
    18  C    2.184635   3.036360   2.852944   4.074913   4.296703
    19  H    2.572613   2.910235   3.319598   4.319836   4.247365
    20  H    2.482867   4.128388   3.792525   5.095676   5.175804
    21  H    3.101718   2.850890   2.259523   3.815616   4.736292
    22  C    3.357913   4.704590   3.394324   4.647226   5.475330
    23  H    3.363481   5.211889   4.106347   5.453211   5.991274
    24  H    4.235965   5.587901   4.137085   5.255868   6.188195
    25  H    3.832892   4.234978   2.743235   4.241417   5.564718
    26  C    2.501010   5.306353   4.578738   5.045640   4.618159
    27  H    3.592162   6.115353   5.171297   5.624560   5.444255
    28  H    2.467541   5.754279   5.135452   5.790744   5.186267
    29  H    2.454841   5.292947   4.847112   4.940859   4.004059
                   16         17         18         19         20
    16  H    0.000000
    17  H    1.801428   0.000000
    18  C    4.637109   4.121170   0.000000
    19  H    4.981659   4.385398   1.096616   0.000000
    20  H    5.446527   4.718226   1.092726   1.764520   0.000000
    21  H    4.874623   4.741090   1.091741   1.769757   1.765910
    22  C    4.787384   4.648727   2.931921   4.027136   2.864401
    23  H    5.538420   5.090219   2.817793   3.872385   2.346170
    24  H    5.238696   5.230300   4.029072   5.123555   3.912870
    25  H    4.933669   5.073854   2.833703   3.871234   2.977430
    26  C    3.905023   3.121445   3.793984   4.651552   3.761898
    27  H    4.449075   3.928589   4.703571   5.635246   4.618629
    28  H    4.769948   3.701794   3.704664   4.510254   3.386029
    29  H    3.336753   2.321158   4.218728   4.906125   4.348926
                   21         22         23         24         25
    21  H    0.000000
    22  C    2.795251   0.000000
    23  H    2.870025   1.092607   0.000000
    24  H    3.842405   1.097985   1.775915   0.000000
    25  H    2.296887   1.090851   1.791993   1.760276   0.000000
    26  C    4.293311   2.536013   2.782694   2.768421   3.489691
    27  H    5.053311   2.782768   3.129014   2.563067   3.775047
    28  H    4.352530   2.785559   2.585168   3.130116   3.794748
    29  H    4.823454   3.483748   3.790208   3.758752   4.323830
                   26         27         28         29
    26  C    0.000000
    27  H    1.096598   0.000000
    28  H    1.094281   1.784169   0.000000
    29  H    1.092757   1.765378   1.788623   0.000000
 Framework group  C1[X(C8H16Cl3FeO)]
 Deg. of freedom    81
                         Standard orientation:                         
 ---------------------------------------------------------------------
 Center     Atomic      Atomic             Coordinates (Angstroms)
 Number     Number       Type             X           Y           Z
 ---------------------------------------------------------------------
      1          8           0       -0.321238   -0.235899   -0.606507
      2          6           0       -1.352072   -1.126908   -0.476732
      3          6           0       -2.856416   -0.122596   -0.088393
      4          6           0       -2.145625    1.110595   -0.221115
      5          6           0       -2.006075    1.783693   -1.530350
      6         26           0        1.393614    0.041990    0.029639
      7         17           0        1.789070    2.086835   -0.749767
      8          6           0       -1.578184    1.805377    0.954423
      9         17           0        2.667360   -1.584207   -0.720831
     10         17           0        1.266499    0.050057    2.255532
     11          1           0       -3.504063   -0.322843   -0.941875
     12          1           0       -2.410504    2.351895    1.428907
     13          1           0       -1.185140    1.112698    1.702131
     14          1           0       -0.800212    2.517758    0.674824
     15          1           0       -2.568012    2.729491   -1.469043
     16          1           0       -0.955716    2.049245   -1.697438
     17          1           0       -2.396718    1.196648   -2.362070
     18          6           0       -3.512212   -0.471076    1.237710
     19          1           0       -4.363233    0.194045    1.427300
     20          1           0       -3.896057   -1.493846    1.212126
     21          1           0       -2.827698   -0.391062    2.084431
     22          6           0       -1.156161   -2.115772    0.654477
     23          1           0       -2.000081   -2.801067    0.763836
     24          1           0       -0.265542   -2.703375    0.395455
     25          1           0       -0.946958   -1.618361    1.602513
     26          6           0       -1.671143   -1.788120   -1.806986
     27          1           0       -0.792571   -2.379312   -2.091820
     28          1           0       -2.540239   -2.449633   -1.739725
     29          1           0       -1.833799   -1.043633   -2.590184
 ---------------------------------------------------------------------
 Rotational constants (GHZ):           0.5793730           0.3528486           0.3227184
   427 basis functions,  1056 primitive gaussians,   461 cartesian basis functions
    77 alpha electrons       72 beta electrons
       nuclear repulsion energy      1657.0384078473 Hartrees.
 NAtoms=   29 NActive=   29 NUniq=   29 SFac= 1.00D+00 NAtFMM=   60 NAOKFM=F Big=F
 Nuclear repulsion after empirical dispersion term =     1657.0013292797 Hartrees.
 Initial guess from the checkpoint file:  "checkpoint.chk"
 B after Tr=     0.000000    0.000000    0.000000
         Rot=    1.000000    0.000000    0.000000    0.000000 Ang=   0.00 deg.
 Initial guess <Sx>= 0.0000 <Sy>= 0.0000 <Sz>= 2.5000 <S**2>= 8.7622 S= 2.5020
 SCF Done:  E(UPBE1PBE) =  -3033.13990962     A.U. after    1 cycles
            NFock=  1  Conv=0.30D-08     -V/T= 2.0021
 <Sx>= 0.0000 <Sy>= 0.0000 <Sz>= 2.5000 <S**2>= 8.7622 S= 2.5020
 <L.S>= 0.000000000000E+00
 Annihilation of the first spin contaminant:
 S**2 before annihilation     8.7622,   after     8.7500
 1\1\GINC-HOLY7C04306\SP\UPBE1PBE\Jul-CC-pVDZ\C8H16Cl3Fe1O1(6)\EKWAN\11
 -Feb-2020\0\\#t pop=none jul-cc-pvdz guess=read upbe1pbe empiricaldisp
 ersion=gd3bj\\theory_abbreviation pbe0_d3bj\\0,6\O,0,-0.321238,-0.2358
 99,-0.606507\C,0,-1.352072,-1.126908,-0.476732\C,0,-2.856416,-0.122596
 ,-0.088393\C,0,-2.145625,1.110595,-0.221115\C,0,-2.006075,1.783693,-1.
 53035\Fe,0,1.393614,0.04199,0.029639\Cl,0,1.78907,2.086835,-0.749767\C
 ,0,-1.578184,1.805377,0.954423\Cl,0,2.66736,-1.584207,-0.720831\Cl,0,1
 .266499,0.050057,2.255532\H,0,-3.504063,-0.322843,-0.941875\H,0,-2.410
 504,2.351895,1.428907\H,0,-1.18514,1.112698,1.702131\H,0,-0.800212,2.5
 17758,0.674824\H,0,-2.568012,2.729491,-1.469043\H,0,-0.955716,2.049245
 ,-1.697438\H,0,-2.396718,1.196648,-2.36207\C,0,-3.512212,-0.471076,1.2
 3771\H,0,-4.363233,0.194045,1.4273\H,0,-3.896057,-1.493846,1.212126\H,
 0,-2.827698,-0.391062,2.084431\C,0,-1.156161,-2.115772,0.654477\H,0,-2
 .000081,-2.801067,0.763836\H,0,-0.265542,-2.703375,0.395455\H,0,-0.946
 958,-1.618361,1.602513\C,0,-1.671143,-1.78812,-1.806986\H,0,-0.792571,
 -2.379312,-2.09182\H,0,-2.540239,-2.449633,-1.739725\H,0,-1.833799,-1.
 043633,-2.590184\\Version=ES64L-G16RevA.03\HF=-3033.1399096\S2=8.76219
 8\S2-1=0.\S2A=8.750047\RMSD=2.967e-09\PG=C01 [X(C8H16Cl3Fe1O1)]\\@


 IF GOD HAD MEANT MAN TO SEE THE SUN RISE, HE
 WOULD HAVE SCHEDULED IT FOR A LATER HOUR.
 Job cpu time:       0 days  0 hours  4 minutes 49.9 seconds.
 Elapsed time:       0 days  0 hours  1 minutes 13.0 seconds.
 File lengths (MBytes):  RWF=    170 Int=      0 D2E=      0 Chk=     13 Scr=      1
 Normal termination of Gaussian 16 at Tue Feb 11 14:00:59 2020.
 Initial command:
 /n/sw/g16_nehalem/g16/l1.exe "/scratch/Gau-132030.inp" -scrdir="/scratch/"
 Entering Link 1 = /n/sw/g16_nehalem/g16/l1.exe PID=    135740.
  
 Copyright (c) 1988,1990,1992,1993,1995,1998,2003,2009,2016,
            Gaussian, Inc.  All Rights Reserved.
  
 This is part of the Gaussian(R) 16 program.  It is based on
 the Gaussian(R) 09 system (copyright 2009, Gaussian, Inc.),
 the Gaussian(R) 03 system (copyright 2003, Gaussian, Inc.),
 the Gaussian(R) 98 system (copyright 1998, Gaussian, Inc.),
 the Gaussian(R) 94 system (copyright 1995, Gaussian, Inc.),
 the Gaussian 92(TM) system (copyright 1992, Gaussian, Inc.),
 the Gaussian 90(TM) system (copyright 1990, Gaussian, Inc.),
 the Gaussian 88(TM) system (copyright 1988, Gaussian, Inc.),
 the Gaussian 86(TM) system (copyright 1986, Carnegie Mellon
 University), and the Gaussian 82(TM) system (copyright 1983,
 Carnegie Mellon University). Gaussian is a federally registered
 trademark of Gaussian, Inc.
  
 This software contains proprietary and confidential information,
 including trade secrets, belonging to Gaussian, Inc.
  
 This software is provided under written license and may be
 used, copied, transmitted, or stored only in accord with that
 written license.
  
 The following legend is applicable only to US Government
 contracts under FAR:
  
                    RESTRICTED RIGHTS LEGEND
  
 Use, reproduction and disclosure by the US Government is
 subject to restrictions as set forth in subparagraphs (a)
 and (c) of the Commercial Computer Software - Restricted
 Rights clause in FAR 52.227-19.
  
 Gaussian, Inc.
 340 Quinnipiac St., Bldg. 40, Wallingford CT 06492
  
  
 ---------------------------------------------------------------
 Warning -- This program may not be used in any manner that
 competes with the business of Gaussian, Inc. or will provide
 assistance to any competitor of Gaussian, Inc.  The licensee
 of this program is prohibited from giving any competitor of
 Gaussian, Inc. access to this program.  By using this program,
 the user acknowledges that Gaussian, Inc. is engaged in the
 business of creating and licensing software in the field of
 computational chemistry and represents and warrants to the
 licensee that it is not a competitor of Gaussian, Inc. and that
 it will not use this program in any manner prohibited above.
 ---------------------------------------------------------------
  

 Cite this work as:
 Gaussian 16, Revision A.03,
 M. J. Frisch, G. W. Trucks, H. B. Schlegel, G. E. Scuseria, 
 M. A. Robb, J. R. Cheeseman, G. Scalmani, V. Barone, 
 G. A. Petersson, H. Nakatsuji, X. Li, M. Caricato, A. V. Marenich, 
 J. Bloino, B. G. Janesko, R. Gomperts, B. Mennucci, H. P. Hratchian, 
 J. V. Ortiz, A. F. Izmaylov, J. L. Sonnenberg, D. Williams-Young, 
 F. Ding, F. Lipparini, F. Egidi, J. Goings, B. Peng, A. Petrone, 
 T. Henderson, D. Ranasinghe, V. G. Zakrzewski, J. Gao, N. Rega, 
 G. Zheng, W. Liang, M. Hada, M. Ehara, K. Toyota, R. Fukuda, 
 J. Hasegawa, M. Ishida, T. Nakajima, Y. Honda, O. Kitao, H. Nakai, 
 T. Vreven, K. Throssell, J. A. Montgomery, Jr., J. E. Peralta, 
 F. Ogliaro, M. J. Bearpark, J. J. Heyd, E. N. Brothers, K. N. Kudin, 
 V. N. Staroverov, T. A. Keith, R. Kobayashi, J. Normand, 
 K. Raghavachari, A. P. Rendell, J. C. Burant, S. S. Iyengar, 
 J. Tomasi, M. Cossi, J. M. Millam, M. Klene, C. Adamo, R. Cammi, 
 J. W. Ochterski, R. L. Martin, K. Morokuma, O. Farkas, 
 J. B. Foresman, and D. J. Fox, Gaussian, Inc., Wallingford CT, 2016.
 
 ******************************************
 Gaussian 16:  ES64L-G16RevA.03 25-Dec-2016
                11-Feb-2020 
 ******************************************
 %chk=checkpoint.chk
 %mem=3GB
 %nprocshared=4
 Will use up to    4 processors via shared memory.
 -----------------------------------------
 #t pop=none jul-cc-pvdz guess=read ub3lyp
 -----------------------------------------
 -------------------------
 theory_abbreviation b3lyp
 -------------------------
 Symbolic Z-matrix:
 Charge =  0 Multiplicity = 6
 O                    -0.32124  -0.2359   -0.60651 
 C                    -1.35207  -1.12691  -0.47673 
 C                    -2.85642  -0.1226   -0.08839 
 C                    -2.14562   1.11059  -0.22112 
 C                    -2.00608   1.78369  -1.53035 
 Fe                    1.39361   0.04199   0.02964 
 Cl                    1.78907   2.08684  -0.74977 
 C                    -1.57818   1.80538   0.95442 
 Cl                    2.66736  -1.58421  -0.72083 
 Cl                    1.2665    0.05006   2.25553 
 H                    -3.50406  -0.32284  -0.94188 
 H                    -2.4105    2.3519    1.42891 
 H                    -1.18514   1.1127    1.70213 
 H                    -0.80021   2.51776   0.67482 
 H                    -2.56801   2.72949  -1.46904 
 H                    -0.95572   2.04924  -1.69744 
 H                    -2.39672   1.19665  -2.36207 
 C                    -3.51221  -0.47108   1.23771 
 H                    -4.36323   0.19405   1.4273 
 H                    -3.89606  -1.49385   1.21213 
 H                    -2.8277   -0.39106   2.08443 
 C                    -1.15616  -2.11577   0.65448 
 H                    -2.00008  -2.80107   0.76384 
 H                    -0.26554  -2.70338   0.39546 
 H                    -0.94696  -1.61836   1.60251 
 C                    -1.67114  -1.78812  -1.80699 
 H                    -0.79257  -2.37931  -2.09182 
 H                    -2.54024  -2.44963  -1.73973 
 H                    -1.8338   -1.04363  -2.59018 
 
                    Distance matrix (angstroms):
                    1          2          3          4          5
     1  O    0.000000
     2  C    1.368706   0.000000
     3  C    2.590059   1.850000   0.000000
     4  C    2.299992   2.387778   1.429545   0.000000
     5  C    2.787636   3.163768   2.536978   1.478726   0.000000
     6  Fe   1.850033   3.026801   4.254853   3.705537   4.126134
     7  Cl   3.141499   4.502162   5.186477   4.088318   3.886429
     8  C    2.860633   3.270723   2.537405   1.478716   2.521440
     9  Cl   3.280659   4.052720   5.748773   5.538637   5.817136
    10  Cl   3.285414   3.963260   4.745758   4.347541   5.296049
    11  H    3.201626   2.343916   1.089944   2.102283   2.650993
    12  H    3.899310   4.105339   2.936689   2.081720   3.040332
    13  H    2.809778   3.129081   2.743190   2.149747   3.401926
    14  H    3.074712   3.861893   3.432484   2.143117   2.618349
    15  H    3.819097   4.163533   3.181787   2.087237   1.101846
    16  H    2.610474   3.425663   3.304327   2.115769   1.096216
    17  H    3.072753   3.169337   2.668583   2.157346   1.090404
    18  C    3.693069   2.834719   1.519887   2.549002   3.874866
    19  H    4.545211   3.799651   2.160575   2.911206   4.102544
    20  H    4.203473   3.075507   2.156972   3.449827   4.672844
    21  H    3.680702   3.046063   2.189535   2.834738   4.297821
    22  C    2.412695   1.515212   2.723137   3.486423   4.549907
    23  H    3.358041   2.182140   2.938335   4.036386   5.126729
    24  H    2.663732   2.103926   3.688788   4.296654   5.183817
    25  H    2.680018   2.174604   2.956773   3.494227   4.744526
    26  C    2.381761   1.519402   2.670656   3.338064   3.598132
    27  H    2.650005   2.118978   3.655946   4.184465   4.372465
    28  H    3.332982   2.180939   2.870883   3.890645   4.272027
    29  H    2.622070   2.169257   2.855348   3.217207   3.024351
                    6          7          8          9         10
     6  Fe   0.000000
     7  Cl   2.223792   0.000000
     8  C    3.577198   3.784426   0.000000
     9  Cl   2.197760   3.774756   5.685103   0.000000
    10  Cl   2.229534   3.667883   3.586956   3.673141   0.000000
    11  H    5.006414   5.818996   3.440098   6.302885   5.755061
    12  H    4.665289   4.738491   1.102984   6.774878   4.416120
    13  H    3.254784   3.975761   1.092408   5.290160   2.728735
    14  H    3.370247   2.986559   1.091285   5.549597   3.586012
    15  H    5.016292   4.462570   2.776136   6.824729   5.979574
    16  H    3.539946   2.904022   2.734832   5.223257   4.955902
    17  H    4.628188   4.573049   3.469823   6.005973   6.004671
    18  C    5.078366   6.212613   3.000492   6.577390   4.913616
    19  H    5.926033   6.795080   3.252153   7.563457   5.692151
    20  H    5.633621   6.999355   4.040275   6.842728   5.488562
    21  H    4.714783   5.957113   2.768131   6.284008   4.121445
    22  C    3.398192   5.320544   3.955184   4.097969   3.622634
    23  H    4.487670   6.367122   4.629649   5.046780   4.585260
    24  H    3.228568   5.336579   4.729093   3.331748   3.659020
    25  H    3.272457   5.171803   3.541250   4.296788   2.847709
    26  C    4.014378   5.301515   4.532907   4.477044   5.339727
    27  H    3.891362   5.330333   5.235304   3.805644   5.388977
    28  H    4.981369   6.348423   5.127289   5.376448   6.058200
    29  H    4.296306   5.129536   4.554826   4.903788   5.855678
                   11         12         13         14         15
    11  H    0.000000
    12  H    3.737740   0.000000
    13  H    3.798546   1.764023   0.000000
    14  H    4.241879   1.785831   1.782617   0.000000
    15  H    3.235868   2.926688   3.818730   2.786775   0.000000
    16  H    3.562548   3.461508   3.533670   2.423079   1.764766
    17  H    2.356272   3.963116   4.241780   3.676532   1.782259
    18  C    2.184635   3.036360   2.852944   4.074913   4.296703
    19  H    2.572613   2.910235   3.319598   4.319836   4.247365
    20  H    2.482867   4.128388   3.792525   5.095676   5.175804
    21  H    3.101718   2.850890   2.259523   3.815616   4.736292
    22  C    3.357913   4.704590   3.394324   4.647226   5.475330
    23  H    3.363481   5.211889   4.106347   5.453211   5.991274
    24  H    4.235965   5.587901   4.137085   5.255868   6.188195
    25  H    3.832892   4.234978   2.743235   4.241417   5.564718
    26  C    2.501010   5.306353   4.578738   5.045640   4.618159
    27  H    3.592162   6.115353   5.171297   5.624560   5.444255
    28  H    2.467541   5.754279   5.135452   5.790744   5.186267
    29  H    2.454841   5.292947   4.847112   4.940859   4.004059
                   16         17         18         19         20
    16  H    0.000000
    17  H    1.801428   0.000000
    18  C    4.637109   4.121170   0.000000
    19  H    4.981659   4.385398   1.096616   0.000000
    20  H    5.446527   4.718226   1.092726   1.764520   0.000000
    21  H    4.874623   4.741090   1.091741   1.769757   1.765910
    22  C    4.787384   4.648727   2.931921   4.027136   2.864401
    23  H    5.538420   5.090219   2.817793   3.872385   2.346170
    24  H    5.238696   5.230300   4.029072   5.123555   3.912870
    25  H    4.933669   5.073854   2.833703   3.871234   2.977430
    26  C    3.905023   3.121445   3.793984   4.651552   3.761898
    27  H    4.449075   3.928589   4.703571   5.635246   4.618629
    28  H    4.769948   3.701794   3.704664   4.510254   3.386029
    29  H    3.336753   2.321158   4.218728   4.906125   4.348926
                   21         22         23         24         25
    21  H    0.000000
    22  C    2.795251   0.000000
    23  H    2.870025   1.092607   0.000000
    24  H    3.842405   1.097985   1.775915   0.000000
    25  H    2.296887   1.090851   1.791993   1.760276   0.000000
    26  C    4.293311   2.536013   2.782694   2.768421   3.489691
    27  H    5.053311   2.782768   3.129014   2.563067   3.775047
    28  H    4.352530   2.785559   2.585168   3.130116   3.794748
    29  H    4.823454   3.483748   3.790208   3.758752   4.323830
                   26         27         28         29
    26  C    0.000000
    27  H    1.096598   0.000000
    28  H    1.094281   1.784169   0.000000
    29  H    1.092757   1.765378   1.788623   0.000000
 Framework group  C1[X(C8H16Cl3FeO)]
 Deg. of freedom    81
                         Standard orientation:                         
 ---------------------------------------------------------------------
 Center     Atomic      Atomic             Coordinates (Angstroms)
 Number     Number       Type             X           Y           Z
 ---------------------------------------------------------------------
      1          8           0       -0.321238   -0.235899   -0.606507
      2          6           0       -1.352072   -1.126908   -0.476732
      3          6           0       -2.856416   -0.122596   -0.088393
      4          6           0       -2.145625    1.110595   -0.221115
      5          6           0       -2.006075    1.783693   -1.530350
      6         26           0        1.393614    0.041990    0.029639
      7         17           0        1.789070    2.086835   -0.749767
      8          6           0       -1.578184    1.805377    0.954423
      9         17           0        2.667360   -1.584207   -0.720831
     10         17           0        1.266499    0.050057    2.255532
     11          1           0       -3.504063   -0.322843   -0.941875
     12          1           0       -2.410504    2.351895    1.428907
     13          1           0       -1.185140    1.112698    1.702131
     14          1           0       -0.800212    2.517758    0.674824
     15          1           0       -2.568012    2.729491   -1.469043
     16          1           0       -0.955716    2.049245   -1.697438
     17          1           0       -2.396718    1.196648   -2.362070
     18          6           0       -3.512212   -0.471076    1.237710
     19          1           0       -4.363233    0.194045    1.427300
     20          1           0       -3.896057   -1.493846    1.212126
     21          1           0       -2.827698   -0.391062    2.084431
     22          6           0       -1.156161   -2.115772    0.654477
     23          1           0       -2.000081   -2.801067    0.763836
     24          1           0       -0.265542   -2.703375    0.395455
     25          1           0       -0.946958   -1.618361    1.602513
     26          6           0       -1.671143   -1.788120   -1.806986
     27          1           0       -0.792571   -2.379312   -2.091820
     28          1           0       -2.540239   -2.449633   -1.739725
     29          1           0       -1.833799   -1.043633   -2.590184
 ---------------------------------------------------------------------
 Rotational constants (GHZ):           0.5793730           0.3528486           0.3227184
   427 basis functions,  1056 primitive gaussians,   461 cartesian basis functions
    77 alpha electrons       72 beta electrons
       nuclear repulsion energy      1657.0384078473 Hartrees.
 NAtoms=   29 NActive=   29 NUniq=   29 SFac= 1.00D+00 NAtFMM=   60 NAOKFM=F Big=F
 Initial guess from the checkpoint file:  "checkpoint.chk"
 B after Tr=     0.000000    0.000000    0.000000
         Rot=    1.000000    0.000000    0.000000    0.000000 Ang=   0.00 deg.
 Initial guess <Sx>= 0.0000 <Sy>= 0.0000 <Sz>= 2.5000 <S**2>= 8.7622 S= 2.5020
 SCF Done:  E(UB3LYP) =  -3034.31555060     A.U. after   14 cycles
            NFock= 14  Conv=0.73D-08     -V/T= 2.0024
 <Sx>= 0.0000 <Sy>= 0.0000 <Sz>= 2.5000 <S**2>= 8.7614 S= 2.5019
 <L.S>= 0.000000000000E+00
 Annihilation of the first spin contaminant:
 S**2 before annihilation     8.7614,   after     8.7500
 1\1\GINC-HOLY7C04306\SP\UB3LYP\Jul-CC-pVDZ\C8H16Cl3Fe1O1(6)\EKWAN\11-F
 eb-2020\0\\#t pop=none jul-cc-pvdz guess=read ub3lyp\\theory_abbreviat
 ion b3lyp\\0,6\O,0,-0.321238,-0.235899,-0.606507\C,0,-1.352072,-1.1269
 08,-0.476732\C,0,-2.856416,-0.122596,-0.088393\C,0,-2.145625,1.110595,
 -0.221115\C,0,-2.006075,1.783693,-1.53035\Fe,0,1.393614,0.04199,0.0296
 39\Cl,0,1.78907,2.086835,-0.749767\C,0,-1.578184,1.805377,0.954423\Cl,
 0,2.66736,-1.584207,-0.720831\Cl,0,1.266499,0.050057,2.255532\H,0,-3.5
 04063,-0.322843,-0.941875\H,0,-2.410504,2.351895,1.428907\H,0,-1.18514
 ,1.112698,1.702131\H,0,-0.800212,2.517758,0.674824\H,0,-2.568012,2.729
 491,-1.469043\H,0,-0.955716,2.049245,-1.697438\H,0,-2.396718,1.196648,
 -2.36207\C,0,-3.512212,-0.471076,1.23771\H,0,-4.363233,0.194045,1.4273
 \H,0,-3.896057,-1.493846,1.212126\H,0,-2.827698,-0.391062,2.084431\C,0
 ,-1.156161,-2.115772,0.654477\H,0,-2.000081,-2.801067,0.763836\H,0,-0.
 265542,-2.703375,0.395455\H,0,-0.946958,-1.618361,1.602513\C,0,-1.6711
 43,-1.78812,-1.806986\H,0,-0.792571,-2.379312,-2.09182\H,0,-2.540239,-
 2.449633,-1.739725\H,0,-1.833799,-1.043633,-2.590184\\Version=ES64L-G1
 6RevA.03\HF=-3034.3155506\S2=8.761444\S2-1=0.\S2A=8.750041\RMSD=7.269e
 -09\PG=C01 [X(C8H16Cl3Fe1O1)]\\@


 ASKING FOR EFFICIENCY AND ADAPTABILITY IN THE SAME PROGRAM IS LIKE
 ASKING FOR A BEAUTIFUL AND MODEST WIFE ...
 WE'LL PROBABLY HAVE TO SETTLE FOR ONE OR THE OTHER.

             -- THE PSYCHOLOGY OF COMPUTER PROGRAMMING
                GERALD M. WEINBERG
 Job cpu time:       0 days  1 hours  1 minutes 51.8 seconds.
 Elapsed time:       0 days  0 hours 15 minutes 30.6 seconds.
 File lengths (MBytes):  RWF=    174 Int=      0 D2E=      0 Chk=     13 Scr=      1
 Normal termination of Gaussian 16 at Tue Feb 11 14:16:30 2020.
 Initial command:
 /n/sw/g16_nehalem/g16/l1.exe "/scratch/Gau-132030.inp" -scrdir="/scratch/"
 Entering Link 1 = /n/sw/g16_nehalem/g16/l1.exe PID=    137269.
  
 Copyright (c) 1988,1990,1992,1993,1995,1998,2003,2009,2016,
            Gaussian, Inc.  All Rights Reserved.
  
 This is part of the Gaussian(R) 16 program.  It is based on
 the Gaussian(R) 09 system (copyright 2009, Gaussian, Inc.),
 the Gaussian(R) 03 system (copyright 2003, Gaussian, Inc.),
 the Gaussian(R) 98 system (copyright 1998, Gaussian, Inc.),
 the Gaussian(R) 94 system (copyright 1995, Gaussian, Inc.),
 the Gaussian 92(TM) system (copyright 1992, Gaussian, Inc.),
 the Gaussian 90(TM) system (copyright 1990, Gaussian, Inc.),
 the Gaussian 88(TM) system (copyright 1988, Gaussian, Inc.),
 the Gaussian 86(TM) system (copyright 1986, Carnegie Mellon
 University), and the Gaussian 82(TM) system (copyright 1983,
 Carnegie Mellon University). Gaussian is a federally registered
 trademark of Gaussian, Inc.
  
 This software contains proprietary and confidential information,
 including trade secrets, belonging to Gaussian, Inc.
  
 This software is provided under written license and may be
 used, copied, transmitted, or stored only in accord with that
 written license.
  
 The following legend is applicable only to US Government
 contracts under FAR:
  
                    RESTRICTED RIGHTS LEGEND
  
 Use, reproduction and disclosure by the US Government is
 subject to restrictions as set forth in subparagraphs (a)
 and (c) of the Commercial Computer Software - Restricted
 Rights clause in FAR 52.227-19.
  
 Gaussian, Inc.
 340 Quinnipiac St., Bldg. 40, Wallingford CT 06492
  
  
 ---------------------------------------------------------------
 Warning -- This program may not be used in any manner that
 competes with the business of Gaussian, Inc. or will provide
 assistance to any competitor of Gaussian, Inc.  The licensee
 of this program is prohibited from giving any competitor of
 Gaussian, Inc. access to this program.  By using this program,
 the user acknowledges that Gaussian, Inc. is engaged in the
 business of creating and licensing software in the field of
 computational chemistry and represents and warrants to the
 licensee that it is not a competitor of Gaussian, Inc. and that
 it will not use this program in any manner prohibited above.
 ---------------------------------------------------------------
  

 Cite this work as:
 Gaussian 16, Revision A.03,
 M. J. Frisch, G. W. Trucks, H. B. Schlegel, G. E. Scuseria, 
 M. A. Robb, J. R. Cheeseman, G. Scalmani, V. Barone, 
 G. A. Petersson, H. Nakatsuji, X. Li, M. Caricato, A. V. Marenich, 
 J. Bloino, B. G. Janesko, R. Gomperts, B. Mennucci, H. P. Hratchian, 
 J. V. Ortiz, A. F. Izmaylov, J. L. Sonnenberg, D. Williams-Young, 
 F. Ding, F. Lipparini, F. Egidi, J. Goings, B. Peng, A. Petrone, 
 T. Henderson, D. Ranasinghe, V. G. Zakrzewski, J. Gao, N. Rega, 
 G. Zheng, W. Liang, M. Hada, M. Ehara, K. Toyota, R. Fukuda, 
 J. Hasegawa, M. Ishida, T. Nakajima, Y. Honda, O. Kitao, H. Nakai, 
 T. Vreven, K. Throssell, J. A. Montgomery, Jr., J. E. Peralta, 
 F. Ogliaro, M. J. Bearpark, J. J. Heyd, E. N. Brothers, K. N. Kudin, 
 V. N. Staroverov, T. A. Keith, R. Kobayashi, J. Normand, 
 K. Raghavachari, A. P. Rendell, J. C. Burant, S. S. Iyengar, 
 J. Tomasi, M. Cossi, J. M. Millam, M. Klene, C. Adamo, R. Cammi, 
 J. W. Ochterski, R. L. Martin, K. Morokuma, O. Farkas, 
 J. B. Foresman, and D. J. Fox, Gaussian, Inc., Wallingford CT, 2016.
 
 ******************************************
 Gaussian 16:  ES64L-G16RevA.03 25-Dec-2016
                11-Feb-2020 
 ******************************************
 %chk=checkpoint.chk
 %mem=3GB
 %nprocshared=4
 Will use up to    4 processors via shared memory.
 -------------------------------------------------------------------
 #t pop=none jul-cc-pvdz guess=read ub3lyp empiricaldispersion=gd3bj
 -------------------------------------------------------------------
 ------------------------------
 theory_abbreviation b3lyp_d3bj
 ------------------------------
 Symbolic Z-matrix:
 Charge =  0 Multiplicity = 6
 O                    -0.32124  -0.2359   -0.60651 
 C                    -1.35207  -1.12691  -0.47673 
 C                    -2.85642  -0.1226   -0.08839 
 C                    -2.14562   1.11059  -0.22112 
 C                    -2.00608   1.78369  -1.53035 
 Fe                    1.39361   0.04199   0.02964 
 Cl                    1.78907   2.08684  -0.74977 
 C                    -1.57818   1.80538   0.95442 
 Cl                    2.66736  -1.58421  -0.72083 
 Cl                    1.2665    0.05006   2.25553 
 H                    -3.50406  -0.32284  -0.94188 
 H                    -2.4105    2.3519    1.42891 
 H                    -1.18514   1.1127    1.70213 
 H                    -0.80021   2.51776   0.67482 
 H                    -2.56801   2.72949  -1.46904 
 H                    -0.95572   2.04924  -1.69744 
 H                    -2.39672   1.19665  -2.36207 
 C                    -3.51221  -0.47108   1.23771 
 H                    -4.36323   0.19405   1.4273 
 H                    -3.89606  -1.49385   1.21213 
 H                    -2.8277   -0.39106   2.08443 
 C                    -1.15616  -2.11577   0.65448 
 H                    -2.00008  -2.80107   0.76384 
 H                    -0.26554  -2.70338   0.39546 
 H                    -0.94696  -1.61836   1.60251 
 C                    -1.67114  -1.78812  -1.80699 
 H                    -0.79257  -2.37931  -2.09182 
 H                    -2.54024  -2.44963  -1.73973 
 H                    -1.8338   -1.04363  -2.59018 
 
                    Distance matrix (angstroms):
                    1          2          3          4          5
     1  O    0.000000
     2  C    1.368706   0.000000
     3  C    2.590059   1.850000   0.000000
     4  C    2.299992   2.387778   1.429545   0.000000
     5  C    2.787636   3.163768   2.536978   1.478726   0.000000
     6  Fe   1.850033   3.026801   4.254853   3.705537   4.126134
     7  Cl   3.141499   4.502162   5.186477   4.088318   3.886429
     8  C    2.860633   3.270723   2.537405   1.478716   2.521440
     9  Cl   3.280659   4.052720   5.748773   5.538637   5.817136
    10  Cl   3.285414   3.963260   4.745758   4.347541   5.296049
    11  H    3.201626   2.343916   1.089944   2.102283   2.650993
    12  H    3.899310   4.105339   2.936689   2.081720   3.040332
    13  H    2.809778   3.129081   2.743190   2.149747   3.401926
    14  H    3.074712   3.861893   3.432484   2.143117   2.618349
    15  H    3.819097   4.163533   3.181787   2.087237   1.101846
    16  H    2.610474   3.425663   3.304327   2.115769   1.096216
    17  H    3.072753   3.169337   2.668583   2.157346   1.090404
    18  C    3.693069   2.834719   1.519887   2.549002   3.874866
    19  H    4.545211   3.799651   2.160575   2.911206   4.102544
    20  H    4.203473   3.075507   2.156972   3.449827   4.672844
    21  H    3.680702   3.046063   2.189535   2.834738   4.297821
    22  C    2.412695   1.515212   2.723137   3.486423   4.549907
    23  H    3.358041   2.182140   2.938335   4.036386   5.126729
    24  H    2.663732   2.103926   3.688788   4.296654   5.183817
    25  H    2.680018   2.174604   2.956773   3.494227   4.744526
    26  C    2.381761   1.519402   2.670656   3.338064   3.598132
    27  H    2.650005   2.118978   3.655946   4.184465   4.372465
    28  H    3.332982   2.180939   2.870883   3.890645   4.272027
    29  H    2.622070   2.169257   2.855348   3.217207   3.024351
                    6          7          8          9         10
     6  Fe   0.000000
     7  Cl   2.223792   0.000000
     8  C    3.577198   3.784426   0.000000
     9  Cl   2.197760   3.774756   5.685103   0.000000
    10  Cl   2.229534   3.667883   3.586956   3.673141   0.000000
    11  H    5.006414   5.818996   3.440098   6.302885   5.755061
    12  H    4.665289   4.738491   1.102984   6.774878   4.416120
    13  H    3.254784   3.975761   1.092408   5.290160   2.728735
    14  H    3.370247   2.986559   1.091285   5.549597   3.586012
    15  H    5.016292   4.462570   2.776136   6.824729   5.979574
    16  H    3.539946   2.904022   2.734832   5.223257   4.955902
    17  H    4.628188   4.573049   3.469823   6.005973   6.004671
    18  C    5.078366   6.212613   3.000492   6.577390   4.913616
    19  H    5.926033   6.795080   3.252153   7.563457   5.692151
    20  H    5.633621   6.999355   4.040275   6.842728   5.488562
    21  H    4.714783   5.957113   2.768131   6.284008   4.121445
    22  C    3.398192   5.320544   3.955184   4.097969   3.622634
    23  H    4.487670   6.367122   4.629649   5.046780   4.585260
    24  H    3.228568   5.336579   4.729093   3.331748   3.659020
    25  H    3.272457   5.171803   3.541250   4.296788   2.847709
    26  C    4.014378   5.301515   4.532907   4.477044   5.339727
    27  H    3.891362   5.330333   5.235304   3.805644   5.388977
    28  H    4.981369   6.348423   5.127289   5.376448   6.058200
    29  H    4.296306   5.129536   4.554826   4.903788   5.855678
                   11         12         13         14         15
    11  H    0.000000
    12  H    3.737740   0.000000
    13  H    3.798546   1.764023   0.000000
    14  H    4.241879   1.785831   1.782617   0.000000
    15  H    3.235868   2.926688   3.818730   2.786775   0.000000
    16  H    3.562548   3.461508   3.533670   2.423079   1.764766
    17  H    2.356272   3.963116   4.241780   3.676532   1.782259
    18  C    2.184635   3.036360   2.852944   4.074913   4.296703
    19  H    2.572613   2.910235   3.319598   4.319836   4.247365
    20  H    2.482867   4.128388   3.792525   5.095676   5.175804
    21  H    3.101718   2.850890   2.259523   3.815616   4.736292
    22  C    3.357913   4.704590   3.394324   4.647226   5.475330
    23  H    3.363481   5.211889   4.106347   5.453211   5.991274
    24  H    4.235965   5.587901   4.137085   5.255868   6.188195
    25  H    3.832892   4.234978   2.743235   4.241417   5.564718
    26  C    2.501010   5.306353   4.578738   5.045640   4.618159
    27  H    3.592162   6.115353   5.171297   5.624560   5.444255
    28  H    2.467541   5.754279   5.135452   5.790744   5.186267
    29  H    2.454841   5.292947   4.847112   4.940859   4.004059
                   16         17         18         19         20
    16  H    0.000000
    17  H    1.801428   0.000000
    18  C    4.637109   4.121170   0.000000
    19  H    4.981659   4.385398   1.096616   0.000000
    20  H    5.446527   4.718226   1.092726   1.764520   0.000000
    21  H    4.874623   4.741090   1.091741   1.769757   1.765910
    22  C    4.787384   4.648727   2.931921   4.027136   2.864401
    23  H    5.538420   5.090219   2.817793   3.872385   2.346170
    24  H    5.238696   5.230300   4.029072   5.123555   3.912870
    25  H    4.933669   5.073854   2.833703   3.871234   2.977430
    26  C    3.905023   3.121445   3.793984   4.651552   3.761898
    27  H    4.449075   3.928589   4.703571   5.635246   4.618629
    28  H    4.769948   3.701794   3.704664   4.510254   3.386029
    29  H    3.336753   2.321158   4.218728   4.906125   4.348926
                   21         22         23         24         25
    21  H    0.000000
    22  C    2.795251   0.000000
    23  H    2.870025   1.092607   0.000000
    24  H    3.842405   1.097985   1.775915   0.000000
    25  H    2.296887   1.090851   1.791993   1.760276   0.000000
    26  C    4.293311   2.536013   2.782694   2.768421   3.489691
    27  H    5.053311   2.782768   3.129014   2.563067   3.775047
    28  H    4.352530   2.785559   2.585168   3.130116   3.794748
    29  H    4.823454   3.483748   3.790208   3.758752   4.323830
                   26         27         28         29
    26  C    0.000000
    27  H    1.096598   0.000000
    28  H    1.094281   1.784169   0.000000
    29  H    1.092757   1.765378   1.788623   0.000000
 Framework group  C1[X(C8H16Cl3FeO)]
 Deg. of freedom    81
                         Standard orientation:                         
 ---------------------------------------------------------------------
 Center     Atomic      Atomic             Coordinates (Angstroms)
 Number     Number       Type             X           Y           Z
 ---------------------------------------------------------------------
      1          8           0       -0.321238   -0.235899   -0.606507
      2          6           0       -1.352072   -1.126908   -0.476732
      3          6           0       -2.856416   -0.122596   -0.088393
      4          6           0       -2.145625    1.110595   -0.221115
      5          6           0       -2.006075    1.783693   -1.530350
      6         26           0        1.393614    0.041990    0.029639
      7         17           0        1.789070    2.086835   -0.749767
      8          6           0       -1.578184    1.805377    0.954423
      9         17           0        2.667360   -1.584207   -0.720831
     10         17           0        1.266499    0.050057    2.255532
     11          1           0       -3.504063   -0.322843   -0.941875
     12          1           0       -2.410504    2.351895    1.428907
     13          1           0       -1.185140    1.112698    1.702131
     14          1           0       -0.800212    2.517758    0.674824
     15          1           0       -2.568012    2.729491   -1.469043
     16          1           0       -0.955716    2.049245   -1.697438
     17          1           0       -2.396718    1.196648   -2.362070
     18          6           0       -3.512212   -0.471076    1.237710
     19          1           0       -4.363233    0.194045    1.427300
     20          1           0       -3.896057   -1.493846    1.212126
     21          1           0       -2.827698   -0.391062    2.084431
     22          6           0       -1.156161   -2.115772    0.654477
     23          1           0       -2.000081   -2.801067    0.763836
     24          1           0       -0.265542   -2.703375    0.395455
     25          1           0       -0.946958   -1.618361    1.602513
     26          6           0       -1.671143   -1.788120   -1.806986
     27          1           0       -0.792571   -2.379312   -2.091820
     28          1           0       -2.540239   -2.449633   -1.739725
     29          1           0       -1.833799   -1.043633   -2.590184
 ---------------------------------------------------------------------
 Rotational constants (GHZ):           0.5793730           0.3528486           0.3227184
   427 basis functions,  1056 primitive gaussians,   461 cartesian basis functions
    77 alpha electrons       72 beta electrons
       nuclear repulsion energy      1657.0384078473 Hartrees.
 NAtoms=   29 NActive=   29 NUniq=   29 SFac= 1.00D+00 NAtFMM=   60 NAOKFM=F Big=F
 Nuclear repulsion after empirical dispersion term =     1656.9693768868 Hartrees.
 Initial guess from the checkpoint file:  "checkpoint.chk"
 B after Tr=     0.000000    0.000000    0.000000
         Rot=    1.000000    0.000000    0.000000    0.000000 Ang=   0.00 deg.
 Initial guess <Sx>= 0.0000 <Sy>= 0.0000 <Sz>= 2.5000 <S**2>= 8.7614 S= 2.5019
 SCF Done:  E(UB3LYP) =  -3034.38458156     A.U. after    1 cycles
            NFock=  1  Conv=0.37D-08     -V/T= 2.0024
 <Sx>= 0.0000 <Sy>= 0.0000 <Sz>= 2.5000 <S**2>= 8.7614 S= 2.5019
 <L.S>= 0.000000000000E+00
 Annihilation of the first spin contaminant:
 S**2 before annihilation     8.7614,   after     8.7500
 1\1\GINC-HOLY7C04306\SP\UB3LYP\Jul-CC-pVDZ\C8H16Cl3Fe1O1(6)\EKWAN\11-F
 eb-2020\0\\#t pop=none jul-cc-pvdz guess=read ub3lyp empiricaldispersi
 on=gd3bj\\theory_abbreviation b3lyp_d3bj\\0,6\O,0,-0.321238,-0.235899,
 -0.606507\C,0,-1.352072,-1.126908,-0.476732\C,0,-2.856416,-0.122596,-0
 .088393\C,0,-2.145625,1.110595,-0.221115\C,0,-2.006075,1.783693,-1.530
 35\Fe,0,1.393614,0.04199,0.029639\Cl,0,1.78907,2.086835,-0.749767\C,0,
 -1.578184,1.805377,0.954423\Cl,0,2.66736,-1.584207,-0.720831\Cl,0,1.26
 6499,0.050057,2.255532\H,0,-3.504063,-0.322843,-0.941875\H,0,-2.410504
 ,2.351895,1.428907\H,0,-1.18514,1.112698,1.702131\H,0,-0.800212,2.5177
 58,0.674824\H,0,-2.568012,2.729491,-1.469043\H,0,-0.955716,2.049245,-1
 .697438\H,0,-2.396718,1.196648,-2.36207\C,0,-3.512212,-0.471076,1.2377
 1\H,0,-4.363233,0.194045,1.4273\H,0,-3.896057,-1.493846,1.212126\H,0,-
 2.827698,-0.391062,2.084431\C,0,-1.156161,-2.115772,0.654477\H,0,-2.00
 0081,-2.801067,0.763836\H,0,-0.265542,-2.703375,0.395455\H,0,-0.946958
 ,-1.618361,1.602513\C,0,-1.671143,-1.78812,-1.806986\H,0,-0.792571,-2.
 379312,-2.09182\H,0,-2.540239,-2.449633,-1.739725\H,0,-1.833799,-1.043
 633,-2.590184\\Version=ES64L-G16RevA.03\HF=-3034.3845816\S2=8.761444\S
 2-1=0.\S2A=8.750041\RMSD=3.690e-09\PG=C01 [X(C8H16Cl3Fe1O1)]\\@


 ON A TOMBSTONE, "HERE LIES LESTER MOORE,
 FOUR SLUGS FROM A 44, NO LES, NO MORE".
 Job cpu time:       0 days  0 hours  4 minutes 50.8 seconds.
 Elapsed time:       0 days  0 hours  1 minutes 13.2 seconds.
 File lengths (MBytes):  RWF=    170 Int=      0 D2E=      0 Chk=     13 Scr=      1
 Normal termination of Gaussian 16 at Tue Feb 11 14:17:44 2020.
 Initial command:
 /n/sw/g16_nehalem/g16/l1.exe "/scratch/Gau-132030.inp" -scrdir="/scratch/"
 Entering Link 1 = /n/sw/g16_nehalem/g16/l1.exe PID=    137553.
  
 Copyright (c) 1988,1990,1992,1993,1995,1998,2003,2009,2016,
            Gaussian, Inc.  All Rights Reserved.
  
 This is part of the Gaussian(R) 16 program.  It is based on
 the Gaussian(R) 09 system (copyright 2009, Gaussian, Inc.),
 the Gaussian(R) 03 system (copyright 2003, Gaussian, Inc.),
 the Gaussian(R) 98 system (copyright 1998, Gaussian, Inc.),
 the Gaussian(R) 94 system (copyright 1995, Gaussian, Inc.),
 the Gaussian 92(TM) system (copyright 1992, Gaussian, Inc.),
 the Gaussian 90(TM) system (copyright 1990, Gaussian, Inc.),
 the Gaussian 88(TM) system (copyright 1988, Gaussian, Inc.),
 the Gaussian 86(TM) system (copyright 1986, Carnegie Mellon
 University), and the Gaussian 82(TM) system (copyright 1983,
 Carnegie Mellon University). Gaussian is a federally registered
 trademark of Gaussian, Inc.
  
 This software contains proprietary and confidential information,
 including trade secrets, belonging to Gaussian, Inc.
  
 This software is provided under written license and may be
 used, copied, transmitted, or stored only in accord with that
 written license.
  
 The following legend is applicable only to US Government
 contracts under FAR:
  
                    RESTRICTED RIGHTS LEGEND
  
 Use, reproduction and disclosure by the US Government is
 subject to restrictions as set forth in subparagraphs (a)
 and (c) of the Commercial Computer Software - Restricted
 Rights clause in FAR 52.227-19.
  
 Gaussian, Inc.
 340 Quinnipiac St., Bldg. 40, Wallingford CT 06492
  
  
 ---------------------------------------------------------------
 Warning -- This program may not be used in any manner that
 competes with the business of Gaussian, Inc. or will provide
 assistance to any competitor of Gaussian, Inc.  The licensee
 of this program is prohibited from giving any competitor of
 Gaussian, Inc. access to this program.  By using this program,
 the user acknowledges that Gaussian, Inc. is engaged in the
 business of creating and licensing software in the field of
 computational chemistry and represents and warrants to the
 licensee that it is not a competitor of Gaussian, Inc. and that
 it will not use this program in any manner prohibited above.
 ---------------------------------------------------------------
  

 Cite this work as:
 Gaussian 16, Revision A.03,
 M. J. Frisch, G. W. Trucks, H. B. Schlegel, G. E. Scuseria, 
 M. A. Robb, J. R. Cheeseman, G. Scalmani, V. Barone, 
 G. A. Petersson, H. Nakatsuji, X. Li, M. Caricato, A. V. Marenich, 
 J. Bloino, B. G. Janesko, R. Gomperts, B. Mennucci, H. P. Hratchian, 
 J. V. Ortiz, A. F. Izmaylov, J. L. Sonnenberg, D. Williams-Young, 
 F. Ding, F. Lipparini, F. Egidi, J. Goings, B. Peng, A. Petrone, 
 T. Henderson, D. Ranasinghe, V. G. Zakrzewski, J. Gao, N. Rega, 
 G. Zheng, W. Liang, M. Hada, M. Ehara, K. Toyota, R. Fukuda, 
 J. Hasegawa, M. Ishida, T. Nakajima, Y. Honda, O. Kitao, H. Nakai, 
 T. Vreven, K. Throssell, J. A. Montgomery, Jr., J. E. Peralta, 
 F. Ogliaro, M. J. Bearpark, J. J. Heyd, E. N. Brothers, K. N. Kudin, 
 V. N. Staroverov, T. A. Keith, R. Kobayashi, J. Normand, 
 K. Raghavachari, A. P. Rendell, J. C. Burant, S. S. Iyengar, 
 J. Tomasi, M. Cossi, J. M. Millam, M. Klene, C. Adamo, R. Cammi, 
 J. W. Ochterski, R. L. Martin, K. Morokuma, O. Farkas, 
 J. B. Foresman, and D. J. Fox, Gaussian, Inc., Wallingford CT, 2016.
 
 ******************************************
 Gaussian 16:  ES64L-G16RevA.03 25-Dec-2016
                11-Feb-2020 
 ******************************************
 %chk=checkpoint.chk
 %mem=3GB
 %nprocshared=4
 Will use up to    4 processors via shared memory.
 ----------------------------------------
 #t pop=none jul-cc-pvdz guess=read ub97d
 ----------------------------------------
 ------------------------
 theory_abbreviation b97d
 ------------------------
 Symbolic Z-matrix:
 Charge =  0 Multiplicity = 6
 O                    -0.32124  -0.2359   -0.60651 
 C                    -1.35207  -1.12691  -0.47673 
 C                    -2.85642  -0.1226   -0.08839 
 C                    -2.14562   1.11059  -0.22112 
 C                    -2.00608   1.78369  -1.53035 
 Fe                    1.39361   0.04199   0.02964 
 Cl                    1.78907   2.08684  -0.74977 
 C                    -1.57818   1.80538   0.95442 
 Cl                    2.66736  -1.58421  -0.72083 
 Cl                    1.2665    0.05006   2.25553 
 H                    -3.50406  -0.32284  -0.94188 
 H                    -2.4105    2.3519    1.42891 
 H                    -1.18514   1.1127    1.70213 
 H                    -0.80021   2.51776   0.67482 
 H                    -2.56801   2.72949  -1.46904 
 H                    -0.95572   2.04924  -1.69744 
 H                    -2.39672   1.19665  -2.36207 
 C                    -3.51221  -0.47108   1.23771 
 H                    -4.36323   0.19405   1.4273 
 H                    -3.89606  -1.49385   1.21213 
 H                    -2.8277   -0.39106   2.08443 
 C                    -1.15616  -2.11577   0.65448 
 H                    -2.00008  -2.80107   0.76384 
 H                    -0.26554  -2.70338   0.39546 
 H                    -0.94696  -1.61836   1.60251 
 C                    -1.67114  -1.78812  -1.80699 
 H                    -0.79257  -2.37931  -2.09182 
 H                    -2.54024  -2.44963  -1.73973 
 H                    -1.8338   -1.04363  -2.59018 
 
                    Distance matrix (angstroms):
                    1          2          3          4          5
     1  O    0.000000
     2  C    1.368706   0.000000
     3  C    2.590059   1.850000   0.000000
     4  C    2.299992   2.387778   1.429545   0.000000
     5  C    2.787636   3.163768   2.536978   1.478726   0.000000
     6  Fe   1.850033   3.026801   4.254853   3.705537   4.126134
     7  Cl   3.141499   4.502162   5.186477   4.088318   3.886429
     8  C    2.860633   3.270723   2.537405   1.478716   2.521440
     9  Cl   3.280659   4.052720   5.748773   5.538637   5.817136
    10  Cl   3.285414   3.963260   4.745758   4.347541   5.296049
    11  H    3.201626   2.343916   1.089944   2.102283   2.650993
    12  H    3.899310   4.105339   2.936689   2.081720   3.040332
    13  H    2.809778   3.129081   2.743190   2.149747   3.401926
    14  H    3.074712   3.861893   3.432484   2.143117   2.618349
    15  H    3.819097   4.163533   3.181787   2.087237   1.101846
    16  H    2.610474   3.425663   3.304327   2.115769   1.096216
    17  H    3.072753   3.169337   2.668583   2.157346   1.090404
    18  C    3.693069   2.834719   1.519887   2.549002   3.874866
    19  H    4.545211   3.799651   2.160575   2.911206   4.102544
    20  H    4.203473   3.075507   2.156972   3.449827   4.672844
    21  H    3.680702   3.046063   2.189535   2.834738   4.297821
    22  C    2.412695   1.515212   2.723137   3.486423   4.549907
    23  H    3.358041   2.182140   2.938335   4.036386   5.126729
    24  H    2.663732   2.103926   3.688788   4.296654   5.183817
    25  H    2.680018   2.174604   2.956773   3.494227   4.744526
    26  C    2.381761   1.519402   2.670656   3.338064   3.598132
    27  H    2.650005   2.118978   3.655946   4.184465   4.372465
    28  H    3.332982   2.180939   2.870883   3.890645   4.272027
    29  H    2.622070   2.169257   2.855348   3.217207   3.024351
                    6          7          8          9         10
     6  Fe   0.000000
     7  Cl   2.223792   0.000000
     8  C    3.577198   3.784426   0.000000
     9  Cl   2.197760   3.774756   5.685103   0.000000
    10  Cl   2.229534   3.667883   3.586956   3.673141   0.000000
    11  H    5.006414   5.818996   3.440098   6.302885   5.755061
    12  H    4.665289   4.738491   1.102984   6.774878   4.416120
    13  H    3.254784   3.975761   1.092408   5.290160   2.728735
    14  H    3.370247   2.986559   1.091285   5.549597   3.586012
    15  H    5.016292   4.462570   2.776136   6.824729   5.979574
    16  H    3.539946   2.904022   2.734832   5.223257   4.955902
    17  H    4.628188   4.573049   3.469823   6.005973   6.004671
    18  C    5.078366   6.212613   3.000492   6.577390   4.913616
    19  H    5.926033   6.795080   3.252153   7.563457   5.692151
    20  H    5.633621   6.999355   4.040275   6.842728   5.488562
    21  H    4.714783   5.957113   2.768131   6.284008   4.121445
    22  C    3.398192   5.320544   3.955184   4.097969   3.622634
    23  H    4.487670   6.367122   4.629649   5.046780   4.585260
    24  H    3.228568   5.336579   4.729093   3.331748   3.659020
    25  H    3.272457   5.171803   3.541250   4.296788   2.847709
    26  C    4.014378   5.301515   4.532907   4.477044   5.339727
    27  H    3.891362   5.330333   5.235304   3.805644   5.388977
    28  H    4.981369   6.348423   5.127289   5.376448   6.058200
    29  H    4.296306   5.129536   4.554826   4.903788   5.855678
                   11         12         13         14         15
    11  H    0.000000
    12  H    3.737740   0.000000
    13  H    3.798546   1.764023   0.000000
    14  H    4.241879   1.785831   1.782617   0.000000
    15  H    3.235868   2.926688   3.818730   2.786775   0.000000
    16  H    3.562548   3.461508   3.533670   2.423079   1.764766
    17  H    2.356272   3.963116   4.241780   3.676532   1.782259
    18  C    2.184635   3.036360   2.852944   4.074913   4.296703
    19  H    2.572613   2.910235   3.319598   4.319836   4.247365
    20  H    2.482867   4.128388   3.792525   5.095676   5.175804
    21  H    3.101718   2.850890   2.259523   3.815616   4.736292
    22  C    3.357913   4.704590   3.394324   4.647226   5.475330
    23  H    3.363481   5.211889   4.106347   5.453211   5.991274
    24  H    4.235965   5.587901   4.137085   5.255868   6.188195
    25  H    3.832892   4.234978   2.743235   4.241417   5.564718
    26  C    2.501010   5.306353   4.578738   5.045640   4.618159
    27  H    3.592162   6.115353   5.171297   5.624560   5.444255
    28  H    2.467541   5.754279   5.135452   5.790744   5.186267
    29  H    2.454841   5.292947   4.847112   4.940859   4.004059
                   16         17         18         19         20
    16  H    0.000000
    17  H    1.801428   0.000000
    18  C    4.637109   4.121170   0.000000
    19  H    4.981659   4.385398   1.096616   0.000000
    20  H    5.446527   4.718226   1.092726   1.764520   0.000000
    21  H    4.874623   4.741090   1.091741   1.769757   1.765910
    22  C    4.787384   4.648727   2.931921   4.027136   2.864401
    23  H    5.538420   5.090219   2.817793   3.872385   2.346170
[...]
 Rotational constants (GHZ):           0.5793730           0.3528486           0.3227184
   427 basis functions,  1056 primitive gaussians,   461 cartesian basis functions
    77 alpha electrons       72 beta electrons
       nuclear repulsion energy      1657.0384078473 Hartrees.
 NAtoms=   29 NActive=   29 NUniq=   29 SFac= 1.00D+00 NAtFMM=   60 NAOKFM=F Big=F
 Nuclear repulsion after empirical dispersion term =     1657.0359950044 Hartrees.
 Initial guess from the checkpoint file:  "checkpoint.chk"
 B after Tr=     0.000000    0.000000    0.000000
         Rot=    1.000000    0.000000    0.000000    0.000000 Ang=   0.00 deg.
 Initial guess <Sx>= 0.0000 <Sy>= 0.0000 <Sz>= 2.5000 <S**2>= 8.7612 S= 2.5019
 SCF Done:  E(UM06L) =  -3034.18116984     A.U. after   18 cycles
            NFock= 18  Conv=0.33D-08     -V/T= 2.0020
 <Sx>= 0.0000 <Sy>= 0.0000 <Sz>= 2.5000 <S**2>= 8.7615 S= 2.5019
 <L.S>= 0.000000000000E+00
 Annihilation of the first spin contaminant:
 S**2 before annihilation     8.7615,   after     8.7500
 1\1\GINC-HOLY7C04306\SP\UM06L\Jul-CC-pVDZ\C8H16Cl3Fe1O1(6)\EKWAN\11-Fe
 b-2020\0\\#t pop=none jul-cc-pvdz guess=read um06l empiricaldispersion
 =gd3\\theory_abbreviation m06l_d3\\0,6\O,0,-0.321238,-0.235899,-0.6065
 07\C,0,-1.352072,-1.126908,-0.476732\C,0,-2.856416,-0.122596,-0.088393
 \C,0,-2.145625,1.110595,-0.221115\C,0,-2.006075,1.783693,-1.53035\Fe,0
 ,1.393614,0.04199,0.029639\Cl,0,1.78907,2.086835,-0.749767\C,0,-1.5781
 84,1.805377,0.954423\Cl,0,2.66736,-1.584207,-0.720831\Cl,0,1.266499,0.
 050057,2.255532\H,0,-3.504063,-0.322843,-0.941875\H,0,-2.410504,2.3518
 95,1.428907\H,0,-1.18514,1.112698,1.702131\H,0,-0.800212,2.517758,0.67
 4824\H,0,-2.568012,2.729491,-1.469043\H,0,-0.955716,2.049245,-1.697438
 \H,0,-2.396718,1.196648,-2.36207\C,0,-3.512212,-0.471076,1.23771\H,0,-
 4.363233,0.194045,1.4273\H,0,-3.896057,-1.493846,1.212126\H,0,-2.82769
 8,-0.391062,2.084431\C,0,-1.156161,-2.115772,0.654477\H,0,-2.000081,-2
 .801067,0.763836\H,0,-0.265542,-2.703375,0.395455\H,0,-0.946958,-1.618
 361,1.602513\C,0,-1.671143,-1.78812,-1.806986\H,0,-0.792571,-2.379312,
 -2.09182\H,0,-2.540239,-2.449633,-1.739725\H,0,-1.833799,-1.043633,-2.
 590184\\Version=ES64L-G16RevA.03\HF=-3034.1811698\S2=8.76149\S2-1=0.\S
 2A=8.750043\RMSD=3.252e-09\PG=C01 [X(C8H16Cl3Fe1O1)]\\@


 ERROR IS A HARDY PLANT... IT FLOURISHETH IN EVERY SOIL.
            MARTIN FARQUHAR TUPPER
 Job cpu time:       0 days  1 hours 23 minutes 48.0 seconds.
 Elapsed time:       0 days  0 hours 21 minutes  2.4 seconds.
 File lengths (MBytes):  RWF=    174 Int=      0 D2E=      0 Chk=     13 Scr=      1
 Normal termination of Gaussian 16 at Tue Feb 11 23:26:28 2020.
 Initial command:
 /n/sw/g16_nehalem/g16/l1.exe "/scratch/Gau-132030.inp" -scrdir="/scratch/"
 Entering Link 1 = /n/sw/g16_nehalem/g16/l1.exe PID=    198895.
  
 Copyright (c) 1988,1990,1992,1993,1995,1998,2003,2009,2016,
            Gaussian, Inc.  All Rights Reserved.
  
 This is part of the Gaussian(R) 16 program.  It is based on
 the Gaussian(R) 09 system (copyright 2009, Gaussian, Inc.),
 the Gaussian(R) 03 system (copyright 2003, Gaussian, Inc.),
 the Gaussian(R) 98 system (copyright 1998, Gaussian, Inc.),
 the Gaussian(R) 94 system (copyright 1995, Gaussian, Inc.),
 the Gaussian 92(TM) system (copyright 1992, Gaussian, Inc.),
 the Gaussian 90(TM) system (copyright 1990, Gaussian, Inc.),
 the Gaussian 88(TM) system (copyright 1988, Gaussian, Inc.),
 the Gaussian 86(TM) system (copyright 1986, Carnegie Mellon
 University), and the Gaussian 82(TM) system (copyright 1983,
 Carnegie Mellon University). Gaussian is a federally registered
 trademark of Gaussian, Inc.
  
 This software contains proprietary and confidential information,
 including trade secrets, belonging to Gaussian, Inc.
  
 This software is provided under written license and may be
 used, copied, transmitted, or stored only in accord with that
 written license.
  
 The following legend is applicable only to US Government
 contracts under FAR:
  
                    RESTRICTED RIGHTS LEGEND
  
 Use, reproduction and disclosure by the US Government is
 subject to restrictions as set forth in subparagraphs (a)
 and (c) of the Commercial Computer Software - Restricted
 Rights clause in FAR 52.227-19.
  
 Gaussian, Inc.
 340 Quinnipiac St., Bldg. 40, Wallingford CT 06492
  
  
 ---------------------------------------------------------------
 Warning -- This program may not be used in any manner that
 competes with the business of Gaussian, Inc. or will provide
 assistance to any competitor of Gaussian, Inc.  The licensee
 of this program is prohibited from giving any competitor of
 Gaussian, Inc. access to this program.  By using this program,
 the user acknowledges that Gaussian, Inc. is engaged in the
 business of creating and licensing software in the field of
 computational chemistry and represents and warrants to the
 licensee that it is not a competitor of Gaussian, Inc. and that
 it will not use this program in any manner prohibited above.
 ---------------------------------------------------------------
  

 Cite this work as:
 Gaussian 16, Revision A.03,
 M. J. Frisch, G. W. Trucks, H. B. Schlegel, G. E. Scuseria, 
 M. A. Robb, J. R. Cheeseman, G. Scalmani, V. Barone, 
 G. A. Petersson, H. Nakatsuji, X. Li, M. Caricato, A. V. Marenich, 
 J. Bloino, B. G. Janesko, R. Gomperts, B. Mennucci, H. P. Hratchian, 
 J. V. Ortiz, A. F. Izmaylov, J. L. Sonnenberg, D. Williams-Young, 
 F. Ding, F. Lipparini, F. Egidi, J. Goings, B. Peng, A. Petrone, 
 T. Henderson, D. Ranasinghe, V. G. Zakrzewski, J. Gao, N. Rega, 
 G. Zheng, W. Liang, M. Hada, M. Ehara, K. Toyota, R. Fukuda, 
 J. Hasegawa, M. Ishida, T. Nakajima, Y. Honda, O. Kitao, H. Nakai, 
 T. Vreven, K. Throssell, J. A. Montgomery, Jr., J. E. Peralta, 
 F. Ogliaro, M. J. Bearpark, J. J. Heyd, E. N. Brothers, K. N. Kudin, 
 V. N. Staroverov, T. A. Keith, R. Kobayashi, J. Normand, 
 K. Raghavachari, A. P. Rendell, J. C. Burant, S. S. Iyengar, 
 J. Tomasi, M. Cossi, J. M. Millam, M. Klene, C. Adamo, R. Cammi, 
 J. W. Ochterski, R. L. Martin, K. Morokuma, O. Farkas, 
 J. B. Foresman, and D. J. Fox, Gaussian, Inc., Wallingford CT, 2016.
 
 ******************************************
 Gaussian 16:  ES64L-G16RevA.03 25-Dec-2016
                11-Feb-2020 
 ******************************************
 %chk=checkpoint.chk
 %mem=3GB
 %nprocshared=4
 Will use up to    4 processors via shared memory.
 -------------------------------------------------------------------
 #t pop=none jul-cc-pvdz guess=read ub97d3 empiricaldispersion=gd3bj
 -------------------------------------------------------------------
 ------------------------------
 theory_abbreviation b97d3_d3bj
 ------------------------------
 Symbolic Z-matrix:
 Charge =  0 Multiplicity = 6
 O                    -0.32124  -0.2359   -0.60651 
 C                    -1.35207  -1.12691  -0.47673 
 C                    -2.85642  -0.1226   -0.08839 
 C                    -2.14562   1.11059  -0.22112 
 C                    -2.00608   1.78369  -1.53035 
 Fe                    1.39361   0.04199   0.02964 
 Cl                    1.78907   2.08684  -0.74977 
 C                    -1.57818   1.80538   0.95442 
 Cl                    2.66736  -1.58421  -0.72083 
 Cl                    1.2665    0.05006   2.25553 
 H                    -3.50406  -0.32284  -0.94188 
 H                    -2.4105    2.3519    1.42891 
 H                    -1.18514   1.1127    1.70213 
 H                    -0.80021   2.51776   0.67482 
 H                    -2.56801   2.72949  -1.46904 
 H                    -0.95572   2.04924  -1.69744 
 H                    -2.39672   1.19665  -2.36207 
 C                    -3.51221  -0.47108   1.23771 
 H                    -4.36323   0.19405   1.4273 
 H                    -3.89606  -1.49385   1.21213 
 H                    -2.8277   -0.39106   2.08443 
 C                    -1.15616  -2.11577   0.65448 
 H                    -2.00008  -2.80107   0.76384 
 H                    -0.26554  -2.70338   0.39546 
 H                    -0.94696  -1.61836   1.60251 
 C                    -1.67114  -1.78812  -1.80699 
 H                    -0.79257  -2.37931  -2.09182 
 H                    -2.54024  -2.44963  -1.73973 
 H                    -1.8338   -1.04363  -2.59018 
 
                    Distance matrix (angstroms):
                    1          2          3          4          5
     1  O    0.000000
     2  C    1.368706   0.000000
     3  C    2.590059   1.850000   0.000000
     4  C    2.299992   2.387778   1.429545   0.000000
     5  C    2.787636   3.163768   2.536978   1.478726   0.000000
     6  Fe   1.850033   3.026801   4.254853   3.705537   4.126134
     7  Cl   3.141499   4.502162   5.186477   4.088318   3.886429
     8  C    2.860633   3.270723   2.537405   1.478716   2.521440
     9  Cl   3.280659   4.052720   5.748773   5.538637   5.817136
    10  Cl   3.285414   3.963260   4.745758   4.347541   5.296049
    11  H    3.201626   2.343916   1.089944   2.102283   2.650993
    12  H    3.899310   4.105339   2.936689   2.081720   3.040332
    13  H    2.809778   3.129081   2.743190   2.149747   3.401926
    14  H    3.074712   3.861893   3.432484   2.143117   2.618349
    15  H    3.819097   4.163533   3.181787   2.087237   1.101846
    16  H    2.610474   3.425663   3.304327   2.115769   1.096216
    17  H    3.072753   3.169337   2.668583   2.157346   1.090404
    18  C    3.693069   2.834719   1.519887   2.549002   3.874866
    19  H    4.545211   3.799651   2.160575   2.911206   4.102544
    20  H    4.203473   3.075507   2.156972   3.449827   4.672844
    21  H    3.680702   3.046063   2.189535   2.834738   4.297821
    22  C    2.412695   1.515212   2.723137   3.486423   4.549907
    23  H    3.358041   2.182140   2.938335   4.036386   5.126729
    24  H    2.663732   2.103926   3.688788   4.296654   5.183817
    25  H    2.680018   2.174604   2.956773   3.494227   4.744526
    26  C    2.381761   1.519402   2.670656   3.338064   3.598132
    27  H    2.650005   2.118978   3.655946   4.184465   4.372465
    28  H    3.332982   2.180939   2.870883   3.890645   4.272027
    29  H    2.622070   2.169257   2.855348   3.217207   3.024351
                    6          7          8          9         10
     6  Fe   0.000000
     7  Cl   2.223792   0.000000
     8  C    3.577198   3.784426   0.000000
     9  Cl   2.197760   3.774756   5.685103   0.000000
    10  Cl   2.229534   3.667883   3.586956   3.673141   0.000000
    11  H    5.006414   5.818996   3.440098   6.302885   5.755061
    12  H    4.665289   4.738491   1.102984   6.774878   4.416120
    13  H    3.254784   3.975761   1.092408   5.290160   2.728735
    14  H    3.370247   2.986559   1.091285   5.549597   3.586012
    15  H    5.016292   4.462570   2.776136   6.824729   5.979574
    16  H    3.539946   2.904022   2.734832   5.223257   4.955902
    17  H    4.628188   4.573049   3.469823   6.005973   6.004671
    18  C    5.078366   6.212613   3.000492   6.577390   4.913616
    19  H    5.926033   6.795080   3.252153   7.563457   5.692151
    20  H    5.633621   6.999355   4.040275   6.842728   5.488562
    21  H    4.714783   5.957113   2.768131   6.284008   4.121445
    22  C    3.398192   5.320544   3.955184   4.097969   3.622634
    23  H    4.487670   6.367122   4.629649   5.046780   4.585260
    24  H    3.228568   5.336579   4.729093   3.331748   3.659020
    25  H    3.272457   5.171803   3.541250   4.296788   2.847709
    26  C    4.014378   5.301515   4.532907   4.477044   5.339727
    27  H    3.891362   5.330333   5.235304   3.805644   5.388977
    28  H    4.981369   6.348423   5.127289   5.376448   6.058200
    29  H    4.296306   5.129536   4.554826   4.903788   5.855678
                   11         12         13         14         15
    11  H    0.000000
    12  H    3.737740   0.000000
    13  H    3.798546   1.764023   0.000000
    14  H    4.241879   1.785831   1.782617   0.000000
    15  H    3.235868   2.926688   3.818730   2.786775   0.000000
    16  H    3.562548   3.461508   3.533670   2.423079   1.764766
    17  H    2.356272   3.963116   4.241780   3.676532   1.782259
    18  C    2.184635   3.036360   2.852944   4.074913   4.296703
    19  H    2.572613   2.910235   3.319598   4.319836   4.247365
    20  H    2.482867   4.128388   3.792525   5.095676   5.175804
    21  H    3.101718   2.850890   2.259523   3.815616   4.736292
    22  C    3.357913   4.704590   3.394324   4.647226   5.475330
    23  H    3.363481   5.211889   4.106347   5.453211   5.991274
    24  H    4.235965   5.587901   4.137085   5.255868   6.188195
    25  H    3.832892   4.234978   2.743235   4.241417   5.564718
    26  C    2.501010   5.306353   4.578738   5.045640   4.618159
    27  H    3.592162   6.115353   5.171297   5.624560   5.444255
    28  H    2.467541   5.754279   5.135452   5.790744   5.186267
    29  H    2.454841   5.292947   4.847112   4.940859   4.004059
                   16         17         18         19         20
    16  H    0.000000
    17  H    1.801428   0.000000
    18  C    4.637109   4.121170   0.000000
    19  H    4.981659   4.385398   1.096616   0.000000
    20  H    5.446527   4.718226   1.092726   1.764520   0.000000
    21  H    4.874623   4.741090   1.091741   1.769757   1.765910
    22  C    4.787384   4.648727   2.931921   4.027136   2.864401
    23  H    5.538420   5.090219   2.817793   3.872385   2.346170
    24  H    5.238696   5.230300   4.029072   5.123555   3.912870
    25  H    4.933669   5.073854   2.833703   3.871234   2.977430
    26  C    3.905023   3.121445   3.793984   4.651552   3.761898
    27  H    4.449075   3.928589   4.703571   5.635246   4.618629
    28  H    4.769948   3.701794   3.704664   4.510254   3.386029
    29  H    3.336753   2.321158   4.218728   4.906125   4.348926
                   21         22         23         24         25
    21  H    0.000000
    22  C    2.795251   0.000000
    23  H    2.870025   1.092607   0.000000
    24  H    3.842405   1.097985   1.775915   0.000000
    25  H    2.296887   1.090851   1.791993   1.760276   0.000000
    26  C    4.293311   2.536013   2.782694   2.768421   3.489691
    27  H    5.053311   2.782768   3.129014   2.563067   3.775047
    28  H    4.352530   2.785559   2.585168   3.130116   3.794748
    29  H    4.823454   3.483748   3.790208   3.758752   4.323830
                   26         27         28         29
    26  C    0.000000
    27  H    1.096598   0.000000
    28  H    1.094281   1.784169   0.000000
    29  H    1.092757   1.765378   1.788623   0.000000
 Framework group  C1[X(C8H16Cl3FeO)]
 Deg. of freedom    81
                         Standard orientation:                         
 ---------------------------------------------------------------------
 Center     Atomic      Atomic             Coordinates (Angstroms)
 Number     Number       Type             X           Y           Z
 ---------------------------------------------------------------------
      1          8           0       -0.321238   -0.235899   -0.606507
      2          6           0       -1.352072   -1.126908   -0.476732
      3          6           0       -2.856416   -0.122596   -0.088393
      4          6           0       -2.145625    1.110595   -0.221115
      5          6           0       -2.006075    1.783693   -1.530350
      6         26           0        1.393614    0.041990    0.029639
      7         17           0        1.789070    2.086835   -0.749767
      8          6           0       -1.578184    1.805377    0.954423
      9         17           0        2.667360   -1.584207   -0.720831
     10         17           0        1.266499    0.050057    2.255532
     11          1           0       -3.504063   -0.322843   -0.941875
     12          1           0       -2.410504    2.351895    1.428907
     13          1           0       -1.185140    1.112698    1.702131
     14          1           0       -0.800212    2.517758    0.674824
     15          1           0       -2.568012    2.729491   -1.469043
     16          1           0       -0.955716    2.049245   -1.697438
     17          1           0       -2.396718    1.196648   -2.362070
     18          6           0       -3.512212   -0.471076    1.237710
     19          1           0       -4.363233    0.194045    1.427300
     20          1           0       -3.896057   -1.493846    1.212126
     21          1           0       -2.827698   -0.391062    2.084431
     22          6           0       -1.156161   -2.115772    0.654477
     23          1           0       -2.000081   -2.801067    0.763836
     24          1           0       -0.265542   -2.703375    0.395455
     25          1           0       -0.946958   -1.618361    1.602513
     26          6           0       -1.671143   -1.788120   -1.806986
     27          1           0       -0.792571   -2.379312   -2.091820
     28          1           0       -2.540239   -2.449633   -1.739725
     29          1           0       -1.833799   -1.043633   -2.590184
 ---------------------------------------------------------------------
 Rotational constants (GHZ):           0.5793730           0.3528486           0.3227184
   427 basis functions,  1056 primitive gaussians,   461 cartesian basis functions
    77 alpha electrons       72 beta electrons
       nuclear repulsion energy      1657.0384078473 Hartrees.
 NAtoms=   29 NActive=   29 NUniq=   29 SFac= 1.00D+00 NAtFMM=   60 NAOKFM=F Big=F
 Nuclear repulsion after empirical dispersion term =     1656.9371818379 Hartrees.
 Initial guess from the checkpoint file:  "checkpoint.chk"
 B after Tr=     0.000000    0.000000    0.000000
         Rot=    1.000000    0.000000    0.000000    0.000000 Ang=   0.00 deg.
 Initial guess <Sx>= 0.0000 <Sy>= 0.0000 <Sz>= 2.5000 <S**2>= 8.7615 S= 2.5019
 SCF Done:  E(UB97D3) =  -3034.60166352     A.U. after   14 cycles
            NFock= 14  Conv=0.82D-08     -V/T= 2.0020
 <Sx>= 0.0000 <Sy>= 0.0000 <Sz>= 2.5000 <S**2>= 8.7595 S= 2.5016
 <L.S>= 0.000000000000E+00
 Annihilation of the first spin contaminant:
 S**2 before annihilation     8.7595,   after     8.7500
 1\1\GINC-HOLY7C04306\SP\UB97D3\Jul-CC-pVDZ\C8H16Cl3Fe1O1(6)\EKWAN\11-F
 eb-2020\0\\#t pop=none jul-cc-pvdz guess=read ub97d3 empiricaldispersi
 on=gd3bj\\theory_abbreviation b97d3_d3bj\\0,6\O,0,-0.321238,-0.235899,
 -0.606507\C,0,-1.352072,-1.126908,-0.476732\C,0,-2.856416,-0.122596,-0
 .088393\C,0,-2.145625,1.110595,-0.221115\C,0,-2.006075,1.783693,-1.530
 35\Fe,0,1.393614,0.04199,0.029639\Cl,0,1.78907,2.086835,-0.749767\C,0,
 -1.578184,1.805377,0.954423\Cl,0,2.66736,-1.584207,-0.720831\Cl,0,1.26
 6499,0.050057,2.255532\H,0,-3.504063,-0.322843,-0.941875\H,0,-2.410504
 ,2.351895,1.428907\H,0,-1.18514,1.112698,1.702131\H,0,-0.800212,2.5177
 58,0.674824\H,0,-2.568012,2.729491,-1.469043\H,0,-0.955716,2.049245,-1
 .697438\H,0,-2.396718,1.196648,-2.36207\C,0,-3.512212,-0.471076,1.2377
 1\H,0,-4.363233,0.194045,1.4273\H,0,-3.896057,-1.493846,1.212126\H,0,-
 2.827698,-0.391062,2.084431\C,0,-1.156161,-2.115772,0.654477\H,0,-2.00
 0081,-2.801067,0.763836\H,0,-0.265542,-2.703375,0.395455\H,0,-0.946958
 ,-1.618361,1.602513\C,0,-1.671143,-1.78812,-1.806986\H,0,-0.792571,-2.
 379312,-2.09182\H,0,-2.540239,-2.449633,-1.739725\H,0,-1.833799,-1.043
 633,-2.590184\\Version=ES64L-G16RevA.03\HF=-3034.6016635\S2=8.759467\S
 2-1=0.\S2A=8.750029\RMSD=8.157e-09\PG=C01 [X(C8H16Cl3Fe1O1)]\\@


 Where a calculator on the ENIAC is equipped with 18,000
 vacuum tubes and weighs 30 tons, computers inthe future
 may  have only 1,000 vacuum tubes and weigh only 1 1/2 tons.
              ---Popular Mechanics, March 1949
 Job cpu time:       0 days  0 hours 47 minutes 52.4 seconds.
 Elapsed time:       0 days  0 hours 12 minutes  0.2 seconds.
 File lengths (MBytes):  RWF=    174 Int=      0 D2E=      0 Chk=     13 Scr=      1
 Normal termination of Gaussian 16 at Tue Feb 11 23:38:29 2020.
