 Entering Gaussian System, Link 0=g16
 Input=simple-grid-200-245-b3lyp_d3bj-631gd-gas-singlepoint-DFT-juldz2-gas.gjf
 Output=simple-grid-200-245-b3lyp_d3bj-631gd-gas-singlepoint-DFT-juldz2-gas.out
 Initial command:
 /n/sw/g16_nehalem/g16/l1.exe "/scratch/Gau-100891.inp" -scrdir="/scratch/"
 Entering Link 1 = /n/sw/g16_nehalem/g16/l1.exe PID=    100894.
  
 Copyright (c) 1988,1990,1992,1993,1995,1998,2003,2009,2016,
            Gaussian, Inc.  All Rights Reserved.
  
 This is part of the Gaussian(R) 16 program.  It is based on
 the Gaussian(R) 09 system (copyright 2009, Gaussian, Inc.),
 the Gaussian(R) 03 system (copyright 2003, Gaussian, Inc.),
 the Gaussian(R) 98 system (copyright 1998, Gaussian, Inc.),
 the Gaussian(R) 94 system (copyright 1995, Gaussian, Inc.),
 the Gaussian 92(TM) system (copyright 1992, Gaussian, Inc.),
 the Gaussian 90(TM) system (copyright 1990, Gaussian, Inc.),
 the Gaussian 88(TM) system (copyright 1988, Gaussian, Inc.),
 the Gaussian 86(TM) system (copyright 1986, Carnegie Mellon
 University), and the Gaussian 82(TM) system (copyright 1983,
 Carnegie Mellon University). Gaussian is a federally registered
 trademark of Gaussian, Inc.
  
 This software contains proprietary and confidential information,
 including trade secrets, belonging to Gaussian, Inc.
  
 This software is provided under written license and may be
 used, copied, transmitted, or stored only in accord with that
 written license.
  
 The following legend is applicable only to US Government
 contracts under FAR:
  
                    RESTRICTED RIGHTS LEGEND
  
 Use, reproduction and disclosure by the US Government is
 subject to restrictions as set forth in subparagraphs (a)
 and (c) of the Commercial Computer Software - Restricted
 Rights clause in FAR 52.227-19.
  
 Gaussian, Inc.
 340 Quinnipiac St., Bldg. 40, Wallingford CT 06492
  
  
 ---------------------------------------------------------------
 Warning -- This program may not be used in any manner that
 competes with the business of Gaussian, Inc. or will provide
 assistance to any competitor of Gaussian, Inc.  The licensee
 of this program is prohibited from giving any competitor of
 Gaussian, Inc. access to this program.  By using this program,
 the user acknowledges that Gaussian, Inc. is engaged in the
 business of creating and licensing software in the field of
 computational chemistry and represents and warrants to the
 licensee that it is not a competitor of Gaussian, Inc. and that
 it will not use this program in any manner prohibited above.
 ---------------------------------------------------------------
  

 Cite this work as:
 Gaussian 16, Revision A.03,
 M. J. Frisch, G. W. Trucks, H. B. Schlegel, G. E. Scuseria, 
 M. A. Robb, J. R. Cheeseman, G. Scalmani, V. Barone, 
 G. A. Petersson, H. Nakatsuji, X. Li, M. Caricato, A. V. Marenich, 
 J. Bloino, B. G. Janesko, R. Gomperts, B. Mennucci, H. P. Hratchian, 
 J. V. Ortiz, A. F. Izmaylov, J. L. Sonnenberg, D. Williams-Young, 
 F. Ding, F. Lipparini, F. Egidi, J. Goings, B. Peng, A. Petrone, 
 T. Henderson, D. Ranasinghe, V. G. Zakrzewski, J. Gao, N. Rega, 
 G. Zheng, W. Liang, M. Hada, M. Ehara, K. Toyota, R. Fukuda, 
 J. Hasegawa, M. Ishida, T. Nakajima, Y. Honda, O. Kitao, H. Nakai, 
 T. Vreven, K. Throssell, J. A. Montgomery, Jr., J. E. Peralta, 
 F. Ogliaro, M. J. Bearpark, J. J. Heyd, E. N. Brothers, K. N. Kudin, 
 V. N. Staroverov, T. A. Keith, R. Kobayashi, J. Normand, 
 K. Raghavachari, A. P. Rendell, J. C. Burant, S. S. Iyengar, 
 J. Tomasi, M. Cossi, J. M. Millam, M. Klene, C. Adamo, R. Cammi, 
 J. W. Ochterski, R. L. Martin, K. Morokuma, O. Farkas, 
 J. B. Foresman, and D. J. Fox, Gaussian, Inc., Wallingford CT, 2016.
 
 ******************************************
 Gaussian 16:  ES64L-G16RevA.03 25-Dec-2016
                11-Feb-2020 
 ******************************************
 %chk=checkpoint.chk
 %mem=3GB
 %nprocshared=4
 Will use up to    4 processors via shared memory.
 --------------------------------
 #t pop=none jul-cc-pvdz upbe1pbe
 --------------------------------
 ------------------------
 theory_abbreviation pbe0
 ------------------------
 Symbolic Z-matrix:
 Charge =  0 Multiplicity = 6
 O                    -0.32851  -0.1487   -0.70342 
 C                    -1.25234  -1.07399  -0.57777 
 C                    -2.82723  -0.24115   0.33113 
 C                    -2.41486   0.99916  -0.12713 
 C                    -2.77409   1.50841  -1.48012 
 Fe                    1.40527   0.10204   0.00019 
 Cl                    1.97575   2.0909   -0.74177 
 C                    -1.5732    1.91366   0.68743 
 Cl                    2.59987  -1.58572  -0.74255 
 Cl                    1.19741   0.05679   2.2146 
 H                    -3.61062  -0.72105  -0.25246 
 H                    -2.24847   2.66227   1.13171 
 H                    -1.04506   1.41843   1.50062 
 H                    -0.85393   2.45283   0.0638 
 H                    -3.13879   2.53906  -1.38846 
 H                    -1.86256   1.55859  -2.09058 
 H                    -3.5315    0.90775  -1.98594 
 C                    -2.84869  -0.57364   1.81058 
 H                    -3.64816  -0.00478   2.30079 
 H                    -3.05819  -1.63328   1.97034 
 H                    -1.91051  -0.33389   2.3155 
 C                    -0.94341  -2.21827   0.36758 
 H                    -1.78542  -2.90385   0.48274 
 H                    -0.11253  -2.76315  -0.10089 
 H                    -0.59659  -1.87207   1.34045 
 C                    -1.83622  -1.53512  -1.90334 
 H                    -1.03824  -2.1033   -2.39724 
 H                    -2.69988  -2.1919   -1.77451 
 H                    -2.08967  -0.70261  -2.55829 
 
                    Distance matrix (angstroms):
                    1          2          3          4          5
     1  O    0.000000
     2  C    1.313550   0.000000
     3  C    2.706002   1.999999   0.000000
     4  C    2.450011   2.419192   1.385073   0.000000
     5  C    3.054523   3.130296   2.518815   1.489617   0.000000
     6  Fe   1.887835   2.963097   4.259267   3.926124   4.651474
     7  Cl   3.213541   4.523707   5.445929   4.565863   4.842039
     8  C    2.781550   3.260326   2.518486   1.486009   2.510904
     9  Cl   3.262210   3.889546   5.693341   5.675205   6.244767
    10  Cl   3.299319   3.882941   4.453534   4.406847   5.615244
    11  H    3.362020   2.406630   1.088382   2.098730   2.679075
    12  H    3.867227   4.227787   3.066876   2.092434   2.903326
    13  H    2.797696   3.251890   2.701490   2.168344   3.447091
    14  H    2.762717   3.606767   3.350062   2.141523   2.638678
    15  H    3.948547   4.155730   3.283851   2.118097   1.097113
    16  H    2.681852   3.097003   3.167699   2.114974   1.098204
    17  H    3.608331   3.332386   2.680442   2.170344   1.091018
    18  C    3.584979   2.915969   1.516499   2.533106   3.894765
    19  H    4.479517   3.894772   2.146941   2.902366   4.165219
    20  H    4.099282   3.172811   2.162950   3.426803   4.675103
    21  H    3.413344   3.058093   2.187853   2.828048   4.306576
    22  C    2.410039   1.516079   2.731135   3.572363   4.544615
    23  H    3.334730   2.181108   2.863270   4.000204   4.929334
    24  H    2.691664   2.092807   3.730511   4.410942   5.218467
    25  H    2.686875   2.178644   2.941830   3.701874   4.911696
    26  C    2.373853   1.520101   2.765738   3.148386   3.212756
    27  H    2.682012   2.101377   3.756601   4.083345   4.110800
    28  H    3.308368   2.185703   2.873215   3.602494   3.712744
    29  H    2.617066   2.182090   3.017562   2.985348   2.553328
                    6          7          8          9         10
     6  Fe   0.000000
     7  Cl   2.198070   0.000000
     8  C    3.553244   3.830014   0.000000
     9  Cl   2.197105   3.729218   5.630724   0.000000
    10  Cl   2.224608   3.671994   3.668310   3.661898   0.000000
    11  H    5.089246   6.273270   3.460663   6.289520   5.459720
    12  H    4.602709   4.656218   1.101720   6.713025   4.453681
    13  H    3.160425   3.821749   1.088789   5.228984   2.718916
    14  H    3.261016   2.964283   1.094058   5.374832   3.817715
    15  H    5.340033   5.174703   2.674238   7.096714   6.160067
    16  H    4.143857   4.103076   2.815517   5.622915   5.491210
    17  H    5.381964   5.768667   3.463192   6.734770   6.382103
    18  C    4.672284   6.073667   3.012477   6.101612   4.114805
    19  H    5.553499   6.728846   3.254050   7.127360   4.846730
    20  H    5.178348   6.823893   4.053621   6.275009   4.585426
    21  H    4.067570   5.507223   2.795693   5.591276   3.134006
    22  C    3.321913   5.321754   4.191872   3.766616   3.629116
    23  H    4.410067   6.371284   4.826526   4.740210   4.545544
    24  H    3.243949   5.322910   4.962614   3.025756   3.876783
    25  H    3.114620   5.163107   3.963830   3.826005   2.775440
    26  C    4.100118   5.387798   4.321501   4.585733   5.356727
    27  H    4.072083   5.423645   5.092865   4.030104   5.561756
    28  H    5.026324   6.424200   4.917946   5.433210   6.013191
    29  H    4.405433   5.256520   4.200750   5.105741   5.844830
                   11         12         13         14         15
    11  H    0.000000
    12  H    3.901052   0.000000
    13  H    3.772631   1.769584   0.000000
    14  H    4.215788   1.768911   1.780720   0.000000
    15  H    3.484462   2.675651   3.739831   2.708710   0.000000
    16  H    3.410444   3.427851   3.685735   2.541328   1.755867
    17  H    2.379956   3.800554   4.312685   3.709188   1.781120
    18  C    2.204173   3.360391   2.705089   4.023659   4.472912
    19  H    2.652081   3.230951   3.072776   4.341857   4.510122
    20  H    2.465391   4.450917   3.685954   5.018957   5.356909
    21  H    3.103977   3.239221   2.117469   3.735284   4.845813
    22  C    3.120914   5.109473   3.810470   4.681820   5.525904
    23  H    2.938789   5.622920   4.501811   5.453180   5.912557
    24  H    4.053365   5.959586   4.573840   5.270976   6.239358
    25  H    3.598132   4.830370   3.324778   4.516723   5.776491
    26  C    2.556675   5.196107   4.575623   4.553930   4.308223
    27  H    3.623230   6.052163   5.253176   5.181593   5.194366
    28  H    2.304232   5.675633   5.147754   5.325448   4.766937
    29  H    2.762331   4.996366   4.697311   4.284760   3.602444
                   16         17         18         19         20
    16  H    0.000000
    17  H    1.794405   0.000000
    18  C    4.553883   4.132101   0.000000
    19  H    4.991653   4.384331   1.096840   0.000000
    20  H    5.301750   4.725774   1.091901   1.763311   0.000000
    21  H    4.795551   4.761475   1.092067   1.768602   1.767686
    22  C    4.599133   4.691399   2.901230   3.994057   2.717228
    23  H    5.151819   4.865329   2.885062   3.896116   2.333934
    24  H    5.069406   5.358941   3.991770   5.086977   3.774055
    25  H    5.014383   5.235066   2.641758   3.704198   2.552105
    26  C    3.099482   2.974625   3.967707   4.826981   4.063026
    27  H    3.766020   3.930887   4.829418   5.769480   4.834957
    28  H    3.855792   3.216224   3.936213   4.721314   3.803200
    29  H    2.320201   2.236002   4.436184   5.150389   4.723623
                   21         22         23         24         25
    21  H    0.000000
    22  C    2.877596   0.000000
    23  H    3.159011   1.091904   0.000000
    24  H    3.869491   1.098509   1.777350   0.000000
    25  H    2.245684   1.089318   1.792637   1.762326   0.000000
    26  C    4.387149   2.533944   2.751245   2.779929   3.488894
    27  H    5.108968   2.768833   3.081140   2.562339   3.770787
    28  H    4.561086   2.770277   2.537379   3.133965   3.772148
    29  H    4.891000   3.488817   3.766414   3.767457   4.335560
                   26         27         28         29
    26  C    0.000000
    27  H    1.097056   0.000000
    28  H    1.092634   1.776704   0.000000
    29  H    1.089162   1.758794   1.790152   0.000000
 Framework group  C1[X(C8H16Cl3FeO)]
 Deg. of freedom    81
                         Standard orientation:                         
 ---------------------------------------------------------------------
 Center     Atomic      Atomic             Coordinates (Angstroms)
 Number     Number       Type             X           Y           Z
 ---------------------------------------------------------------------
      1          8           0       -0.328511   -0.148697   -0.703420
      2          6           0       -1.252339   -1.073990   -0.577765
      3          6           0       -2.827231   -0.241152    0.331131
      4          6           0       -2.414863    0.999161   -0.127131
      5          6           0       -2.774086    1.508411   -1.480121
      6         26           0        1.405269    0.102035    0.000187
      7         17           0        1.975745    2.090896   -0.741770
      8          6           0       -1.573196    1.913661    0.687429
      9         17           0        2.599874   -1.585723   -0.742553
     10         17           0        1.197410    0.056785    2.214601
     11          1           0       -3.610618   -0.721051   -0.252459
     12          1           0       -2.248469    2.662267    1.131707
     13          1           0       -1.045058    1.418428    1.500618
     14          1           0       -0.853926    2.452826    0.063798
     15          1           0       -3.138792    2.539064   -1.388463
     16          1           0       -1.862561    1.558585   -2.090578
     17          1           0       -3.531498    0.907747   -1.985938
     18          6           0       -2.848693   -0.573640    1.810577
     19          1           0       -3.648162   -0.004782    2.300790
     20          1           0       -3.058192   -1.633279    1.970336
     21          1           0       -1.910513   -0.333892    2.315502
     22          6           0       -0.943413   -2.218271    0.367582
     23          1           0       -1.785419   -2.903850    0.482739
     24          1           0       -0.112529   -2.763149   -0.100885
     25          1           0       -0.596594   -1.872070    1.340452
     26          6           0       -1.836224   -1.535124   -1.903337
     27          1           0       -1.038241   -2.103295   -2.397237
     28          1           0       -2.699879   -2.191899   -1.774512
     29          1           0       -2.089669   -0.702610   -2.558288
 ---------------------------------------------------------------------
 Rotational constants (GHZ):           0.5777763           0.3464348           0.3236549
   427 basis functions,  1056 primitive gaussians,   461 cartesian basis functions
    77 alpha electrons       72 beta electrons
       nuclear repulsion energy      1654.3212887708 Hartrees.
 NAtoms=   29 NActive=   29 NUniq=   29 SFac= 1.00D+00 NAtFMM=   60 NAOKFM=F Big=F
 ExpMin= 1.40D-02 ExpMax= 4.32D+06 ExpMxC= 4.91D+03 IAcc=3 IRadAn=         5 AccDes= 0.00D+00
 Harris functional with IExCor= 1009 and IRadAn=       5 diagonalized for initial guess.
 HarFok:  IExCor= 1009 AccDes= 0.00D+00 IRadAn=         5 IDoV= 1 UseB2=F ITyADJ=14
 ICtDFT=  3500011 ScaDFX=  1.000000  1.000000  1.000000  1.000000
 FoFCou: FMM=F IPFlag=           0 FMFlag=      100000 FMFlg1=           0
         NFxFlg=           0 DoJE=T BraDBF=F KetDBF=T FulRan=T
         wScrn=  0.000000 ICntrl=       500 IOpCl=  0 I1Cent=   200000004 NGrid=           0
         NMat0=    1 NMatS0=      1 NMatT0=    0 NMatD0=    1 NMtDS0=    0 NMtDT0=    0
 Petite list used in FoFCou.
 Initial guess <Sx>= 0.0000 <Sy>= 0.0000 <Sz>= 2.5000 <S**2>= 8.7500 S= 2.5000
 EnCoef did   100 forward-backward iterations
 Restarting incremental Fock formation.
 SCF Done:  E(UPBE1PBE) =  -3033.10799171     A.U. after   21 cycles
            NFock= 21  Conv=0.74D-08     -V/T= 2.0021
 <Sx>= 0.0000 <Sy>= 0.0000 <Sz>= 2.5000 <S**2>= 8.7622 S= 2.5020
 <L.S>= 0.000000000000E+00
 Annihilation of the first spin contaminant:
 S**2 before annihilation     8.7622,   after     8.7500
 1\1\GINC-HOLY7C02501\SP\UPBE1PBE\Jul-CC-pVDZ\C8H16Cl3Fe1O1(6)\EKWAN\11
 -Feb-2020\0\\#t pop=none jul-cc-pvdz upbe1pbe\\theory_abbreviation pbe
 0\\0,6\O,0,-0.328511,-0.148697,-0.70342\C,0,-1.252339,-1.07399,-0.5777
 65\C,0,-2.827231,-0.241152,0.331131\C,0,-2.414863,0.999161,-0.127131\C
 ,0,-2.774086,1.508411,-1.480121\Fe,0,1.405269,0.102035,0.000187\Cl,0,1
 .975745,2.090896,-0.74177\C,0,-1.573196,1.913661,0.687429\Cl,0,2.59987
 4,-1.585723,-0.742553\Cl,0,1.19741,0.056785,2.214601\H,0,-3.610618,-0.
 721051,-0.252459\H,0,-2.248469,2.662267,1.131707\H,0,-1.045058,1.41842
 8,1.500618\H,0,-0.853926,2.452826,0.063798\H,0,-3.138792,2.539064,-1.3
 88463\H,0,-1.862561,1.558585,-2.090578\H,0,-3.531498,0.907747,-1.98593
 8\C,0,-2.848693,-0.57364,1.810577\H,0,-3.648162,-0.004782,2.30079\H,0,
 -3.058192,-1.633279,1.970336\H,0,-1.910513,-0.333892,2.315502\C,0,-0.9
 43413,-2.218271,0.367582\H,0,-1.785419,-2.90385,0.482739\H,0,-0.112529
 ,-2.763149,-0.100885\H,0,-0.596594,-1.87207,1.340452\C,0,-1.836224,-1.
 535124,-1.903337\H,0,-1.038241,-2.103295,-2.397237\H,0,-2.699879,-2.19
 1899,-1.774512\H,0,-2.089669,-0.70261,-2.558288\\Version=ES64L-G16RevA
 .03\HF=-3033.1079917\S2=8.762178\S2-1=0.\S2A=8.750046\RMSD=7.394e-09\P
 G=C01 [X(C8H16Cl3Fe1O1)]\\@


 THE TEST OF A FIRST RATE INTELLIGENCE IS THE ABILITY TO HOLD TWO OPPOSED
 IDEAS IN THE MIND AT THE SAME TIME, AND STILL RETAIN THE ABILITY TO FUNCTION.
 ONE SHOULD, FOR EXAMPLE, BE ABLE TO SEE THAT THINGS ARE HOPELESS AND YET BE
 DETERMINED TO MAKE THEM OTHERWISE.

                                                       -- F. SCOTT FITZGERALD
 Job cpu time:       0 days  1 hours 29 minutes 35.5 seconds.
 Elapsed time:       0 days  0 hours 22 minutes 27.5 seconds.
 File lengths (MBytes):  RWF=    173 Int=      0 D2E=      0 Chk=     13 Scr=      1
 Normal termination of Gaussian 16 at Tue Feb 11 23:39:43 2020.
 Initial command:
 /n/sw/g16_nehalem/g16/l1.exe "/scratch/Gau-100891.inp" -scrdir="/scratch/"
 Entering Link 1 = /n/sw/g16_nehalem/g16/l1.exe PID=    102674.
  
 Copyright (c) 1988,1990,1992,1993,1995,1998,2003,2009,2016,
            Gaussian, Inc.  All Rights Reserved.
  
 This is part of the Gaussian(R) 16 program.  It is based on
 the Gaussian(R) 09 system (copyright 2009, Gaussian, Inc.),
 the Gaussian(R) 03 system (copyright 2003, Gaussian, Inc.),
 the Gaussian(R) 98 system (copyright 1998, Gaussian, Inc.),
 the Gaussian(R) 94 system (copyright 1995, Gaussian, Inc.),
 the Gaussian 92(TM) system (copyright 1992, Gaussian, Inc.),
 the Gaussian 90(TM) system (copyright 1990, Gaussian, Inc.),
 the Gaussian 88(TM) system (copyright 1988, Gaussian, Inc.),
 the Gaussian 86(TM) system (copyright 1986, Carnegie Mellon
 University), and the Gaussian 82(TM) system (copyright 1983,
 Carnegie Mellon University). Gaussian is a federally registered
 trademark of Gaussian, Inc.
  
 This software contains proprietary and confidential information,
 including trade secrets, belonging to Gaussian, Inc.
  
 This software is provided under written license and may be
 used, copied, transmitted, or stored only in accord with that
 written license.
  
 The following legend is applicable only to US Government
 contracts under FAR:
  
                    RESTRICTED RIGHTS LEGEND
  
 Use, reproduction and disclosure by the US Government is
 subject to restrictions as set forth in subparagraphs (a)
 and (c) of the Commercial Computer Software - Restricted
 Rights clause in FAR 52.227-19.
  
 Gaussian, Inc.
 340 Quinnipiac St., Bldg. 40, Wallingford CT 06492
  
  
 ---------------------------------------------------------------
 Warning -- This program may not be used in any manner that
 competes with the business of Gaussian, Inc. or will provide
 assistance to any competitor of Gaussian, Inc.  The licensee
 of this program is prohibited from giving any competitor of
 Gaussian, Inc. access to this program.  By using this program,
 the user acknowledges that Gaussian, Inc. is engaged in the
 business of creating and licensing software in the field of
 computational chemistry and represents and warrants to the
 licensee that it is not a competitor of Gaussian, Inc. and that
 it will not use this program in any manner prohibited above.
 ---------------------------------------------------------------
  

 Cite this work as:
 Gaussian 16, Revision A.03,
 M. J. Frisch, G. W. Trucks, H. B. Schlegel, G. E. Scuseria, 
 M. A. Robb, J. R. Cheeseman, G. Scalmani, V. Barone, 
 G. A. Petersson, H. Nakatsuji, X. Li, M. Caricato, A. V. Marenich, 
 J. Bloino, B. G. Janesko, R. Gomperts, B. Mennucci, H. P. Hratchian, 
 J. V. Ortiz, A. F. Izmaylov, J. L. Sonnenberg, D. Williams-Young, 
 F. Ding, F. Lipparini, F. Egidi, J. Goings, B. Peng, A. Petrone, 
 T. Henderson, D. Ranasinghe, V. G. Zakrzewski, J. Gao, N. Rega, 
 G. Zheng, W. Liang, M. Hada, M. Ehara, K. Toyota, R. Fukuda, 
 J. Hasegawa, M. Ishida, T. Nakajima, Y. Honda, O. Kitao, H. Nakai, 
 T. Vreven, K. Throssell, J. A. Montgomery, Jr., J. E. Peralta, 
 F. Ogliaro, M. J. Bearpark, J. J. Heyd, E. N. Brothers, K. N. Kudin, 
 V. N. Staroverov, T. A. Keith, R. Kobayashi, J. Normand, 
 K. Raghavachari, A. P. Rendell, J. C. Burant, S. S. Iyengar, 
 J. Tomasi, M. Cossi, J. M. Millam, M. Klene, C. Adamo, R. Cammi, 
 J. W. Ochterski, R. L. Martin, K. Morokuma, O. Farkas, 
 J. B. Foresman, and D. J. Fox, Gaussian, Inc., Wallingford CT, 2016.
 
 ******************************************
 Gaussian 16:  ES64L-G16RevA.03 25-Dec-2016
                11-Feb-2020 
 ******************************************
 %chk=checkpoint.chk
 %mem=3GB
 %nprocshared=4
 Will use up to    4 processors via shared memory.
 ---------------------------------------------------------------------
 #t pop=none jul-cc-pvdz guess=read upbe1pbe empiricaldispersion=gd3bj
 ---------------------------------------------------------------------
 -----------------------------
 theory_abbreviation pbe0_d3bj
 -----------------------------
 Symbolic Z-matrix:
 Charge =  0 Multiplicity = 6
 O                    -0.32851  -0.1487   -0.70342 
 C                    -1.25234  -1.07399  -0.57777 
 C                    -2.82723  -0.24115   0.33113 
 C                    -2.41486   0.99916  -0.12713 
 C                    -2.77409   1.50841  -1.48012 
 Fe                    1.40527   0.10204   0.00019 
 Cl                    1.97575   2.0909   -0.74177 
 C                    -1.5732    1.91366   0.68743 
 Cl                    2.59987  -1.58572  -0.74255 
 Cl                    1.19741   0.05679   2.2146 
 H                    -3.61062  -0.72105  -0.25246 
 H                    -2.24847   2.66227   1.13171 
 H                    -1.04506   1.41843   1.50062 
 H                    -0.85393   2.45283   0.0638 
 H                    -3.13879   2.53906  -1.38846 
 H                    -1.86256   1.55859  -2.09058 
 H                    -3.5315    0.90775  -1.98594 
 C                    -2.84869  -0.57364   1.81058 
 H                    -3.64816  -0.00478   2.30079 
 H                    -3.05819  -1.63328   1.97034 
 H                    -1.91051  -0.33389   2.3155 
 C                    -0.94341  -2.21827   0.36758 
 H                    -1.78542  -2.90385   0.48274 
 H                    -0.11253  -2.76315  -0.10089 
 H                    -0.59659  -1.87207   1.34045 
 C                    -1.83622  -1.53512  -1.90334 
 H                    -1.03824  -2.1033   -2.39724 
 H                    -2.69988  -2.1919   -1.77451 
 H                    -2.08967  -0.70261  -2.55829 
 
                    Distance matrix (angstroms):
                    1          2          3          4          5
     1  O    0.000000
     2  C    1.313550   0.000000
     3  C    2.706002   1.999999   0.000000
     4  C    2.450011   2.419192   1.385073   0.000000
     5  C    3.054523   3.130296   2.518815   1.489617   0.000000
     6  Fe   1.887835   2.963097   4.259267   3.926124   4.651474
     7  Cl   3.213541   4.523707   5.445929   4.565863   4.842039
     8  C    2.781550   3.260326   2.518486   1.486009   2.510904
     9  Cl   3.262210   3.889546   5.693341   5.675205   6.244767
    10  Cl   3.299319   3.882941   4.453534   4.406847   5.615244
    11  H    3.362020   2.406630   1.088382   2.098730   2.679075
    12  H    3.867227   4.227787   3.066876   2.092434   2.903326
    13  H    2.797696   3.251890   2.701490   2.168344   3.447091
    14  H    2.762717   3.606767   3.350062   2.141523   2.638678
    15  H    3.948547   4.155730   3.283851   2.118097   1.097113
    16  H    2.681852   3.097003   3.167699   2.114974   1.098204
    17  H    3.608331   3.332386   2.680442   2.170344   1.091018
    18  C    3.584979   2.915969   1.516499   2.533106   3.894765
    19  H    4.479517   3.894772   2.146941   2.902366   4.165219
    20  H    4.099282   3.172811   2.162950   3.426803   4.675103
    21  H    3.413344   3.058093   2.187853   2.828048   4.306576
    22  C    2.410039   1.516079   2.731135   3.572363   4.544615
    23  H    3.334730   2.181108   2.863270   4.000204   4.929334
    24  H    2.691664   2.092807   3.730511   4.410942   5.218467
    25  H    2.686875   2.178644   2.941830   3.701874   4.911696
    26  C    2.373853   1.520101   2.765738   3.148386   3.212756
    27  H    2.682012   2.101377   3.756601   4.083345   4.110800
    28  H    3.308368   2.185703   2.873215   3.602494   3.712744
    29  H    2.617066   2.182090   3.017562   2.985348   2.553328
                    6          7          8          9         10
     6  Fe   0.000000
     7  Cl   2.198070   0.000000
     8  C    3.553244   3.830014   0.000000
     9  Cl   2.197105   3.729218   5.630724   0.000000
    10  Cl   2.224608   3.671994   3.668310   3.661898   0.000000
    11  H    5.089246   6.273270   3.460663   6.289520   5.459720
    12  H    4.602709   4.656218   1.101720   6.713025   4.453681
    13  H    3.160425   3.821749   1.088789   5.228984   2.718916
    14  H    3.261016   2.964283   1.094058   5.374832   3.817715
    15  H    5.340033   5.174703   2.674238   7.096714   6.160067
    16  H    4.143857   4.103076   2.815517   5.622915   5.491210
    17  H    5.381964   5.768667   3.463192   6.734770   6.382103
    18  C    4.672284   6.073667   3.012477   6.101612   4.114805
    19  H    5.553499   6.728846   3.254050   7.127360   4.846730
    20  H    5.178348   6.823893   4.053621   6.275009   4.585426
    21  H    4.067570   5.507223   2.795693   5.591276   3.134006
    22  C    3.321913   5.321754   4.191872   3.766616   3.629116
    23  H    4.410067   6.371284   4.826526   4.740210   4.545544
    24  H    3.243949   5.322910   4.962614   3.025756   3.876783
    25  H    3.114620   5.163107   3.963830   3.826005   2.775440
    26  C    4.100118   5.387798   4.321501   4.585733   5.356727
    27  H    4.072083   5.423645   5.092865   4.030104   5.561756
    28  H    5.026324   6.424200   4.917946   5.433210   6.013191
    29  H    4.405433   5.256520   4.200750   5.105741   5.844830
                   11         12         13         14         15
    11  H    0.000000
    12  H    3.901052   0.000000
    13  H    3.772631   1.769584   0.000000
    14  H    4.215788   1.768911   1.780720   0.000000
    15  H    3.484462   2.675651   3.739831   2.708710   0.000000
    16  H    3.410444   3.427851   3.685735   2.541328   1.755867
    17  H    2.379956   3.800554   4.312685   3.709188   1.781120
    18  C    2.204173   3.360391   2.705089   4.023659   4.472912
    19  H    2.652081   3.230951   3.072776   4.341857   4.510122
    20  H    2.465391   4.450917   3.685954   5.018957   5.356909
    21  H    3.103977   3.239221   2.117469   3.735284   4.845813
    22  C    3.120914   5.109473   3.810470   4.681820   5.525904
    23  H    2.938789   5.622920   4.501811   5.453180   5.912557
    24  H    4.053365   5.959586   4.573840   5.270976   6.239358
    25  H    3.598132   4.830370   3.324778   4.516723   5.776491
    26  C    2.556675   5.196107   4.575623   4.553930   4.308223
    27  H    3.623230   6.052163   5.253176   5.181593   5.194366
    28  H    2.304232   5.675633   5.147754   5.325448   4.766937
    29  H    2.762331   4.996366   4.697311   4.284760   3.602444
                   16         17         18         19         20
    16  H    0.000000
    17  H    1.794405   0.000000
    18  C    4.553883   4.132101   0.000000
    19  H    4.991653   4.384331   1.096840   0.000000
    20  H    5.301750   4.725774   1.091901   1.763311   0.000000
    21  H    4.795551   4.761475   1.092067   1.768602   1.767686
    22  C    4.599133   4.691399   2.901230   3.994057   2.717228
    23  H    5.151819   4.865329   2.885062   3.896116   2.333934
    24  H    5.069406   5.358941   3.991770   5.086977   3.774055
    25  H    5.014383   5.235066   2.641758   3.704198   2.552105
    26  C    3.099482   2.974625   3.967707   4.826981   4.063026
    27  H    3.766020   3.930887   4.829418   5.769480   4.834957
    28  H    3.855792   3.216224   3.936213   4.721314   3.803200
    29  H    2.320201   2.236002   4.436184   5.150389   4.723623
                   21         22         23         24         25
    21  H    0.000000
    22  C    2.877596   0.000000
    23  H    3.159011   1.091904   0.000000
    24  H    3.869491   1.098509   1.777350   0.000000
    25  H    2.245684   1.089318   1.792637   1.762326   0.000000
    26  C    4.387149   2.533944   2.751245   2.779929   3.488894
    27  H    5.108968   2.768833   3.081140   2.562339   3.770787
    28  H    4.561086   2.770277   2.537379   3.133965   3.772148
    29  H    4.891000   3.488817   3.766414   3.767457   4.335560
                   26         27         28         29
    26  C    0.000000
    27  H    1.097056   0.000000
    28  H    1.092634   1.776704   0.000000
    29  H    1.089162   1.758794   1.790152   0.000000
 Framework group  C1[X(C8H16Cl3FeO)]
 Deg. of freedom    81
                         Standard orientation:                         
 ---------------------------------------------------------------------
 Center     Atomic      Atomic             Coordinates (Angstroms)
 Number     Number       Type             X           Y           Z
 ---------------------------------------------------------------------
      1          8           0       -0.328511   -0.148697   -0.703420
      2          6           0       -1.252339   -1.073990   -0.577765
      3          6           0       -2.827231   -0.241152    0.331131
      4          6           0       -2.414863    0.999161   -0.127131
      5          6           0       -2.774086    1.508411   -1.480121
      6         26           0        1.405269    0.102035    0.000187
      7         17           0        1.975745    2.090896   -0.741770
      8          6           0       -1.573196    1.913661    0.687429
      9         17           0        2.599874   -1.585723   -0.742553
     10         17           0        1.197410    0.056785    2.214601
     11          1           0       -3.610618   -0.721051   -0.252459
     12          1           0       -2.248469    2.662267    1.131707
     13          1           0       -1.045058    1.418428    1.500618
     14          1           0       -0.853926    2.452826    0.063798
     15          1           0       -3.138792    2.539064   -1.388463
     16          1           0       -1.862561    1.558585   -2.090578
     17          1           0       -3.531498    0.907747   -1.985938
     18          6           0       -2.848693   -0.573640    1.810577
     19          1           0       -3.648162   -0.004782    2.300790
     20          1           0       -3.058192   -1.633279    1.970336
     21          1           0       -1.910513   -0.333892    2.315502
     22          6           0       -0.943413   -2.218271    0.367582
     23          1           0       -1.785419   -2.903850    0.482739
     24          1           0       -0.112529   -2.763149   -0.100885
     25          1           0       -0.596594   -1.872070    1.340452
     26          6           0       -1.836224   -1.535124   -1.903337
     27          1           0       -1.038241   -2.103295   -2.397237
     28          1           0       -2.699879   -2.191899   -1.774512
     29          1           0       -2.089669   -0.702610   -2.558288
 ---------------------------------------------------------------------
 Rotational constants (GHZ):           0.5777763           0.3464348           0.3236549
   427 basis functions,  1056 primitive gaussians,   461 cartesian basis functions
    77 alpha electrons       72 beta electrons
       nuclear repulsion energy      1654.3212887708 Hartrees.
 NAtoms=   29 NActive=   29 NUniq=   29 SFac= 1.00D+00 NAtFMM=   60 NAOKFM=F Big=F
 Nuclear repulsion after empirical dispersion term =     1654.2839420090 Hartrees.
 Initial guess from the checkpoint file:  "checkpoint.chk"
 B after Tr=     0.000000    0.000000    0.000000
         Rot=    1.000000    0.000000    0.000000    0.000000 Ang=   0.00 deg.
 Initial guess <Sx>= 0.0000 <Sy>= 0.0000 <Sz>= 2.5000 <S**2>= 8.7622 S= 2.5020
 SCF Done:  E(UPBE1PBE) =  -3033.14533847     A.U. after    1 cycles
            NFock=  1  Conv=0.34D-08     -V/T= 2.0021
 <Sx>= 0.0000 <Sy>= 0.0000 <Sz>= 2.5000 <S**2>= 8.7622 S= 2.5020
 <L.S>= 0.000000000000E+00
 Annihilation of the first spin contaminant:
 S**2 before annihilation     8.7622,   after     8.7500
 1\1\GINC-HOLY7C02501\SP\UPBE1PBE\Jul-CC-pVDZ\C8H16Cl3Fe1O1(6)\EKWAN\11
 -Feb-2020\0\\#t pop=none jul-cc-pvdz guess=read upbe1pbe empiricaldisp
 ersion=gd3bj\\theory_abbreviation pbe0_d3bj\\0,6\O,0,-0.328511,-0.1486
 97,-0.70342\C,0,-1.252339,-1.07399,-0.577765\C,0,-2.827231,-0.241152,0
 .331131\C,0,-2.414863,0.999161,-0.127131\C,0,-2.774086,1.508411,-1.480
 121\Fe,0,1.405269,0.102035,0.000187\Cl,0,1.975745,2.090896,-0.74177\C,
 0,-1.573196,1.913661,0.687429\Cl,0,2.599874,-1.585723,-0.742553\Cl,0,1
 .19741,0.056785,2.214601\H,0,-3.610618,-0.721051,-0.252459\H,0,-2.2484
 69,2.662267,1.131707\H,0,-1.045058,1.418428,1.500618\H,0,-0.853926,2.4
 52826,0.063798\H,0,-3.138792,2.539064,-1.388463\H,0,-1.862561,1.558585
 ,-2.090578\H,0,-3.531498,0.907747,-1.985938\C,0,-2.848693,-0.57364,1.8
 10577\H,0,-3.648162,-0.004782,2.30079\H,0,-3.058192,-1.633279,1.970336
 \H,0,-1.910513,-0.333892,2.315502\C,0,-0.943413,-2.218271,0.367582\H,0
 ,-1.785419,-2.90385,0.482739\H,0,-0.112529,-2.763149,-0.100885\H,0,-0.
 596594,-1.87207,1.340452\C,0,-1.836224,-1.535124,-1.903337\H,0,-1.0382
 41,-2.103295,-2.397237\H,0,-2.699879,-2.191899,-1.774512\H,0,-2.089669
 ,-0.70261,-2.558288\\Version=ES64L-G16RevA.03\HF=-3033.1453385\S2=8.76
 2178\S2-1=0.\S2A=8.750046\RMSD=3.402e-09\PG=C01 [X(C8H16Cl3Fe1O1)]\\@


 BE CAREFUL NOT TO BECOME TOO GOOD OF A SONGBIRD OR 
 THEY'LL THROW YOU INTO A CAGE.

                                    -- SNOOPY TO WOODSTOCK
 Job cpu time:       0 days  0 hours  4 minutes 34.5 seconds.
 Elapsed time:       0 days  0 hours  1 minutes  9.0 seconds.
 File lengths (MBytes):  RWF=    170 Int=      0 D2E=      0 Chk=     13 Scr=      1
 Normal termination of Gaussian 16 at Tue Feb 11 23:40:53 2020.
 Initial command:
 /n/sw/g16_nehalem/g16/l1.exe "/scratch/Gau-100891.inp" -scrdir="/scratch/"
 Entering Link 1 = /n/sw/g16_nehalem/g16/l1.exe PID=    102783.
  
 Copyright (c) 1988,1990,1992,1993,1995,1998,2003,2009,2016,
            Gaussian, Inc.  All Rights Reserved.
  
 This is part of the Gaussian(R) 16 program.  It is based on
 the Gaussian(R) 09 system (copyright 2009, Gaussian, Inc.),
 the Gaussian(R) 03 system (copyright 2003, Gaussian, Inc.),
 the Gaussian(R) 98 system (copyright 1998, Gaussian, Inc.),
 the Gaussian(R) 94 system (copyright 1995, Gaussian, Inc.),
 the Gaussian 92(TM) system (copyright 1992, Gaussian, Inc.),
 the Gaussian 90(TM) system (copyright 1990, Gaussian, Inc.),
 the Gaussian 88(TM) system (copyright 1988, Gaussian, Inc.),
 the Gaussian 86(TM) system (copyright 1986, Carnegie Mellon
 University), and the Gaussian 82(TM) system (copyright 1983,
 Carnegie Mellon University). Gaussian is a federally registered
 trademark of Gaussian, Inc.
  
 This software contains proprietary and confidential information,
 including trade secrets, belonging to Gaussian, Inc.
  
 This software is provided under written license and may be
 used, copied, transmitted, or stored only in accord with that
 written license.
  
 The following legend is applicable only to US Government
 contracts under FAR:
  
                    RESTRICTED RIGHTS LEGEND
  
 Use, reproduction and disclosure by the US Government is
 subject to restrictions as set forth in subparagraphs (a)
 and (c) of the Commercial Computer Software - Restricted
 Rights clause in FAR 52.227-19.
  
 Gaussian, Inc.
 340 Quinnipiac St., Bldg. 40, Wallingford CT 06492
  
  
 ---------------------------------------------------------------
 Warning -- This program may not be used in any manner that
 competes with the business of Gaussian, Inc. or will provide
 assistance to any competitor of Gaussian, Inc.  The licensee
 of this program is prohibited from giving any competitor of
 Gaussian, Inc. access to this program.  By using this program,
 the user acknowledges that Gaussian, Inc. is engaged in the
 business of creating and licensing software in the field of
 computational chemistry and represents and warrants to the
 licensee that it is not a competitor of Gaussian, Inc. and that
 it will not use this program in any manner prohibited above.
 ---------------------------------------------------------------
  

 Cite this work as:
 Gaussian 16, Revision A.03,
 M. J. Frisch, G. W. Trucks, H. B. Schlegel, G. E. Scuseria, 
 M. A. Robb, J. R. Cheeseman, G. Scalmani, V. Barone, 
 G. A. Petersson, H. Nakatsuji, X. Li, M. Caricato, A. V. Marenich, 
 J. Bloino, B. G. Janesko, R. Gomperts, B. Mennucci, H. P. Hratchian, 
 J. V. Ortiz, A. F. Izmaylov, J. L. Sonnenberg, D. Williams-Young, 
 F. Ding, F. Lipparini, F. Egidi, J. Goings, B. Peng, A. Petrone, 
 T. Henderson, D. Ranasinghe, V. G. Zakrzewski, J. Gao, N. Rega, 
 G. Zheng, W. Liang, M. Hada, M. Ehara, K. Toyota, R. Fukuda, 
 J. Hasegawa, M. Ishida, T. Nakajima, Y. Honda, O. Kitao, H. Nakai, 
 T. Vreven, K. Throssell, J. A. Montgomery, Jr., J. E. Peralta, 
 F. Ogliaro, M. J. Bearpark, J. J. Heyd, E. N. Brothers, K. N. Kudin, 
 V. N. Staroverov, T. A. Keith, R. Kobayashi, J. Normand, 
 K. Raghavachari, A. P. Rendell, J. C. Burant, S. S. Iyengar, 
 J. Tomasi, M. Cossi, J. M. Millam, M. Klene, C. Adamo, R. Cammi, 
 J. W. Ochterski, R. L. Martin, K. Morokuma, O. Farkas, 
 J. B. Foresman, and D. J. Fox, Gaussian, Inc., Wallingford CT, 2016.
 
 ******************************************
 Gaussian 16:  ES64L-G16RevA.03 25-Dec-2016
                11-Feb-2020 
 ******************************************
 %chk=checkpoint.chk
 %mem=3GB
 %nprocshared=4
 Will use up to    4 processors via shared memory.
 -----------------------------------------
 #t pop=none jul-cc-pvdz guess=read ub3lyp
 -----------------------------------------
 -------------------------
 theory_abbreviation b3lyp
 -------------------------
 Symbolic Z-matrix:
 Charge =  0 Multiplicity = 6
 O                    -0.32851  -0.1487   -0.70342 
 C                    -1.25234  -1.07399  -0.57777 
 C                    -2.82723  -0.24115   0.33113 
 C                    -2.41486   0.99916  -0.12713 
 C                    -2.77409   1.50841  -1.48012 
 Fe                    1.40527   0.10204   0.00019 
 Cl                    1.97575   2.0909   -0.74177 
 C                    -1.5732    1.91366   0.68743 
 Cl                    2.59987  -1.58572  -0.74255 
 Cl                    1.19741   0.05679   2.2146 
 H                    -3.61062  -0.72105  -0.25246 
 H                    -2.24847   2.66227   1.13171 
 H                    -1.04506   1.41843   1.50062 
 H                    -0.85393   2.45283   0.0638 
 H                    -3.13879   2.53906  -1.38846 
 H                    -1.86256   1.55859  -2.09058 
 H                    -3.5315    0.90775  -1.98594 
 C                    -2.84869  -0.57364   1.81058 
 H                    -3.64816  -0.00478   2.30079 
 H                    -3.05819  -1.63328   1.97034 
 H                    -1.91051  -0.33389   2.3155 
 C                    -0.94341  -2.21827   0.36758 
 H                    -1.78542  -2.90385   0.48274 
 H                    -0.11253  -2.76315  -0.10089 
 H                    -0.59659  -1.87207   1.34045 
 C                    -1.83622  -1.53512  -1.90334 
 H                    -1.03824  -2.1033   -2.39724 
 H                    -2.69988  -2.1919   -1.77451 
 H                    -2.08967  -0.70261  -2.55829 
 
                    Distance matrix (angstroms):
                    1          2          3          4          5
     1  O    0.000000
     2  C    1.313550   0.000000
     3  C    2.706002   1.999999   0.000000
     4  C    2.450011   2.419192   1.385073   0.000000
     5  C    3.054523   3.130296   2.518815   1.489617   0.000000
     6  Fe   1.887835   2.963097   4.259267   3.926124   4.651474
     7  Cl   3.213541   4.523707   5.445929   4.565863   4.842039
     8  C    2.781550   3.260326   2.518486   1.486009   2.510904
     9  Cl   3.262210   3.889546   5.693341   5.675205   6.244767
    10  Cl   3.299319   3.882941   4.453534   4.406847   5.615244
    11  H    3.362020   2.406630   1.088382   2.098730   2.679075
    12  H    3.867227   4.227787   3.066876   2.092434   2.903326
    13  H    2.797696   3.251890   2.701490   2.168344   3.447091
    14  H    2.762717   3.606767   3.350062   2.141523   2.638678
    15  H    3.948547   4.155730   3.283851   2.118097   1.097113
    16  H    2.681852   3.097003   3.167699   2.114974   1.098204
    17  H    3.608331   3.332386   2.680442   2.170344   1.091018
    18  C    3.584979   2.915969   1.516499   2.533106   3.894765
    19  H    4.479517   3.894772   2.146941   2.902366   4.165219
    20  H    4.099282   3.172811   2.162950   3.426803   4.675103
    21  H    3.413344   3.058093   2.187853   2.828048   4.306576
    22  C    2.410039   1.516079   2.731135   3.572363   4.544615
    23  H    3.334730   2.181108   2.863270   4.000204   4.929334
    24  H    2.691664   2.092807   3.730511   4.410942   5.218467
    25  H    2.686875   2.178644   2.941830   3.701874   4.911696
    26  C    2.373853   1.520101   2.765738   3.148386   3.212756
    27  H    2.682012   2.101377   3.756601   4.083345   4.110800
    28  H    3.308368   2.185703   2.873215   3.602494   3.712744
    29  H    2.617066   2.182090   3.017562   2.985348   2.553328
                    6          7          8          9         10
     6  Fe   0.000000
     7  Cl   2.198070   0.000000
     8  C    3.553244   3.830014   0.000000
     9  Cl   2.197105   3.729218   5.630724   0.000000
    10  Cl   2.224608   3.671994   3.668310   3.661898   0.000000
    11  H    5.089246   6.273270   3.460663   6.289520   5.459720
    12  H    4.602709   4.656218   1.101720   6.713025   4.453681
    13  H    3.160425   3.821749   1.088789   5.228984   2.718916
    14  H    3.261016   2.964283   1.094058   5.374832   3.817715
    15  H    5.340033   5.174703   2.674238   7.096714   6.160067
    16  H    4.143857   4.103076   2.815517   5.622915   5.491210
    17  H    5.381964   5.768667   3.463192   6.734770   6.382103
    18  C    4.672284   6.073667   3.012477   6.101612   4.114805
    19  H    5.553499   6.728846   3.254050   7.127360   4.846730
    20  H    5.178348   6.823893   4.053621   6.275009   4.585426
    21  H    4.067570   5.507223   2.795693   5.591276   3.134006
    22  C    3.321913   5.321754   4.191872   3.766616   3.629116
    23  H    4.410067   6.371284   4.826526   4.740210   4.545544
    24  H    3.243949   5.322910   4.962614   3.025756   3.876783
    25  H    3.114620   5.163107   3.963830   3.826005   2.775440
    26  C    4.100118   5.387798   4.321501   4.585733   5.356727
    27  H    4.072083   5.423645   5.092865   4.030104   5.561756
    28  H    5.026324   6.424200   4.917946   5.433210   6.013191
    29  H    4.405433   5.256520   4.200750   5.105741   5.844830
                   11         12         13         14         15
    11  H    0.000000
    12  H    3.901052   0.000000
    13  H    3.772631   1.769584   0.000000
    14  H    4.215788   1.768911   1.780720   0.000000
    15  H    3.484462   2.675651   3.739831   2.708710   0.000000
    16  H    3.410444   3.427851   3.685735   2.541328   1.755867
    17  H    2.379956   3.800554   4.312685   3.709188   1.781120
    18  C    2.204173   3.360391   2.705089   4.023659   4.472912
    19  H    2.652081   3.230951   3.072776   4.341857   4.510122
    20  H    2.465391   4.450917   3.685954   5.018957   5.356909
    21  H    3.103977   3.239221   2.117469   3.735284   4.845813
    22  C    3.120914   5.109473   3.810470   4.681820   5.525904
    23  H    2.938789   5.622920   4.501811   5.453180   5.912557
    24  H    4.053365   5.959586   4.573840   5.270976   6.239358
    25  H    3.598132   4.830370   3.324778   4.516723   5.776491
    26  C    2.556675   5.196107   4.575623   4.553930   4.308223
    27  H    3.623230   6.052163   5.253176   5.181593   5.194366
    28  H    2.304232   5.675633   5.147754   5.325448   4.766937
    29  H    2.762331   4.996366   4.697311   4.284760   3.602444
                   16         17         18         19         20
    16  H    0.000000
    17  H    1.794405   0.000000
    18  C    4.553883   4.132101   0.000000
    19  H    4.991653   4.384331   1.096840   0.000000
    20  H    5.301750   4.725774   1.091901   1.763311   0.000000
    21  H    4.795551   4.761475   1.092067   1.768602   1.767686
    22  C    4.599133   4.691399   2.901230   3.994057   2.717228
    23  H    5.151819   4.865329   2.885062   3.896116   2.333934
    24  H    5.069406   5.358941   3.991770   5.086977   3.774055
    25  H    5.014383   5.235066   2.641758   3.704198   2.552105
    26  C    3.099482   2.974625   3.967707   4.826981   4.063026
    27  H    3.766020   3.930887   4.829418   5.769480   4.834957
    28  H    3.855792   3.216224   3.936213   4.721314   3.803200
    29  H    2.320201   2.236002   4.436184   5.150389   4.723623
                   21         22         23         24         25
    21  H    0.000000
    22  C    2.877596   0.000000
    23  H    3.159011   1.091904   0.000000
    24  H    3.869491   1.098509   1.777350   0.000000
    25  H    2.245684   1.089318   1.792637   1.762326   0.000000
    26  C    4.387149   2.533944   2.751245   2.779929   3.488894
    27  H    5.108968   2.768833   3.081140   2.562339   3.770787
    28  H    4.561086   2.770277   2.537379   3.133965   3.772148
    29  H    4.891000   3.488817   3.766414   3.767457   4.335560
                   26         27         28         29
    26  C    0.000000
    27  H    1.097056   0.000000
    28  H    1.092634   1.776704   0.000000
    29  H    1.089162   1.758794   1.790152   0.000000
 Framework group  C1[X(C8H16Cl3FeO)]
 Deg. of freedom    81
                         Standard orientation:                         
 ---------------------------------------------------------------------
 Center     Atomic      Atomic             Coordinates (Angstroms)
 Number     Number       Type             X           Y           Z
 ---------------------------------------------------------------------
      1          8           0       -0.328511   -0.148697   -0.703420
      2          6           0       -1.252339   -1.073990   -0.577765
      3          6           0       -2.827231   -0.241152    0.331131
      4          6           0       -2.414863    0.999161   -0.127131
      5          6           0       -2.774086    1.508411   -1.480121
      6         26           0        1.405269    0.102035    0.000187
      7         17           0        1.975745    2.090896   -0.741770
      8          6           0       -1.573196    1.913661    0.687429
      9         17           0        2.599874   -1.585723   -0.742553
     10         17           0        1.197410    0.056785    2.214601
     11          1           0       -3.610618   -0.721051   -0.252459
     12          1           0       -2.248469    2.662267    1.131707
     13          1           0       -1.045058    1.418428    1.500618
     14          1           0       -0.853926    2.452826    0.063798
     15          1           0       -3.138792    2.539064   -1.388463
     16          1           0       -1.862561    1.558585   -2.090578
     17          1           0       -3.531498    0.907747   -1.985938
     18          6           0       -2.848693   -0.573640    1.810577
     19          1           0       -3.648162   -0.004782    2.300790
     20          1           0       -3.058192   -1.633279    1.970336
     21          1           0       -1.910513   -0.333892    2.315502
     22          6           0       -0.943413   -2.218271    0.367582
     23          1           0       -1.785419   -2.903850    0.482739
     24          1           0       -0.112529   -2.763149   -0.100885
     25          1           0       -0.596594   -1.872070    1.340452
     26          6           0       -1.836224   -1.535124   -1.903337
     27          1           0       -1.038241   -2.103295   -2.397237
     28          1           0       -2.699879   -2.191899   -1.774512
     29          1           0       -2.089669   -0.702610   -2.558288
 ---------------------------------------------------------------------
 Rotational constants (GHZ):           0.5777763           0.3464348           0.3236549
   427 basis functions,  1056 primitive gaussians,   461 cartesian basis functions
    77 alpha electrons       72 beta electrons
       nuclear repulsion energy      1654.3212887708 Hartrees.
 NAtoms=   29 NActive=   29 NUniq=   29 SFac= 1.00D+00 NAtFMM=   60 NAOKFM=F Big=F
 Initial guess from the checkpoint file:  "checkpoint.chk"
 B after Tr=     0.000000    0.000000    0.000000
         Rot=    1.000000    0.000000    0.000000    0.000000 Ang=   0.00 deg.
 Initial guess <Sx>= 0.0000 <Sy>= 0.0000 <Sz>= 2.5000 <S**2>= 8.7622 S= 2.5020
 SCF Done:  E(UB3LYP) =  -3034.32117176     A.U. after   13 cycles
            NFock= 13  Conv=0.79D-08     -V/T= 2.0024
 <Sx>= 0.0000 <Sy>= 0.0000 <Sz>= 2.5000 <S**2>= 8.7614 S= 2.5019
 <L.S>= 0.000000000000E+00
 Annihilation of the first spin contaminant:
 S**2 before annihilation     8.7614,   after     8.7500
 1\1\GINC-HOLY7C02501\SP\UB3LYP\Jul-CC-pVDZ\C8H16Cl3Fe1O1(6)\EKWAN\11-F
 eb-2020\0\\#t pop=none jul-cc-pvdz guess=read ub3lyp\\theory_abbreviat
 ion b3lyp\\0,6\O,0,-0.328511,-0.148697,-0.70342\C,0,-1.252339,-1.07399
 ,-0.577765\C,0,-2.827231,-0.241152,0.331131\C,0,-2.414863,0.999161,-0.
 127131\C,0,-2.774086,1.508411,-1.480121\Fe,0,1.405269,0.102035,0.00018
 7\Cl,0,1.975745,2.090896,-0.74177\C,0,-1.573196,1.913661,0.687429\Cl,0
 ,2.599874,-1.585723,-0.742553\Cl,0,1.19741,0.056785,2.214601\H,0,-3.61
 0618,-0.721051,-0.252459\H,0,-2.248469,2.662267,1.131707\H,0,-1.045058
 ,1.418428,1.500618\H,0,-0.853926,2.452826,0.063798\H,0,-3.138792,2.539
 064,-1.388463\H,0,-1.862561,1.558585,-2.090578\H,0,-3.531498,0.907747,
 -1.985938\C,0,-2.848693,-0.57364,1.810577\H,0,-3.648162,-0.004782,2.30
 079\H,0,-3.058192,-1.633279,1.970336\H,0,-1.910513,-0.333892,2.315502\
 C,0,-0.943413,-2.218271,0.367582\H,0,-1.785419,-2.90385,0.482739\H,0,-
 0.112529,-2.763149,-0.100885\H,0,-0.596594,-1.87207,1.340452\C,0,-1.83
 6224,-1.535124,-1.903337\H,0,-1.038241,-2.103295,-2.397237\H,0,-2.6998
 79,-2.191899,-1.774512\H,0,-2.089669,-0.70261,-2.558288\\Version=ES64L
 -G16RevA.03\HF=-3034.3211718\S2=8.761434\S2-1=0.\S2A=8.750041\RMSD=7.8
 66e-09\PG=C01 [X(C8H16Cl3Fe1O1)]\\@


 JUST WHEN YOU THINK YOU'VE GOT THE WORLD ON A STRING,
 YOU FIND OUT IT'S YOUR LEASH.
 Job cpu time:       0 days  0 hours 54 minutes 24.7 seconds.
 Elapsed time:       0 days  0 hours 13 minutes 38.4 seconds.
 File lengths (MBytes):  RWF=    174 Int=      0 D2E=      0 Chk=     13 Scr=      1
 Normal termination of Gaussian 16 at Tue Feb 11 23:54:32 2020.
 Initial command:
 /n/sw/g16_nehalem/g16/l1.exe "/scratch/Gau-100891.inp" -scrdir="/scratch/"
 Entering Link 1 = /n/sw/g16_nehalem/g16/l1.exe PID=    103749.
  
 Copyright (c) 1988,1990,1992,1993,1995,1998,2003,2009,2016,
            Gaussian, Inc.  All Rights Reserved.
  
 This is part of the Gaussian(R) 16 program.  It is based on
 the Gaussian(R) 09 system (copyright 2009, Gaussian, Inc.),
 the Gaussian(R) 03 system (copyright 2003, Gaussian, Inc.),
 the Gaussian(R) 98 system (copyright 1998, Gaussian, Inc.),
 the Gaussian(R) 94 system (copyright 1995, Gaussian, Inc.),
 the Gaussian 92(TM) system (copyright 1992, Gaussian, Inc.),
 the Gaussian 90(TM) system (copyright 1990, Gaussian, Inc.),
 the Gaussian 88(TM) system (copyright 1988, Gaussian, Inc.),
 the Gaussian 86(TM) system (copyright 1986, Carnegie Mellon
 University), and the Gaussian 82(TM) system (copyright 1983,
 Carnegie Mellon University). Gaussian is a federally registered
 trademark of Gaussian, Inc.
  
 This software contains proprietary and confidential information,
 including trade secrets, belonging to Gaussian, Inc.
  
 This software is provided under written license and may be
 used, copied, transmitted, or stored only in accord with that
 written license.
  
 The following legend is applicable only to US Government
 contracts under FAR:
  
                    RESTRICTED RIGHTS LEGEND
  
 Use, reproduction and disclosure by the US Government is
 subject to restrictions as set forth in subparagraphs (a)
 and (c) of the Commercial Computer Software - Restricted
 Rights clause in FAR 52.227-19.
  
 Gaussian, Inc.
 340 Quinnipiac St., Bldg. 40, Wallingford CT 06492
  
  
 ---------------------------------------------------------------
 Warning -- This program may not be used in any manner that
 competes with the business of Gaussian, Inc. or will provide
 assistance to any competitor of Gaussian, Inc.  The licensee
 of this program is prohibited from giving any competitor of
 Gaussian, Inc. access to this program.  By using this program,
 the user acknowledges that Gaussian, Inc. is engaged in the
 business of creating and licensing software in the field of
 computational chemistry and represents and warrants to the
 licensee that it is not a competitor of Gaussian, Inc. and that
 it will not use this program in any manner prohibited above.
 ---------------------------------------------------------------
  

 Cite this work as:
 Gaussian 16, Revision A.03,
 M. J. Frisch, G. W. Trucks, H. B. Schlegel, G. E. Scuseria, 
 M. A. Robb, J. R. Cheeseman, G. Scalmani, V. Barone, 
 G. A. Petersson, H. Nakatsuji, X. Li, M. Caricato, A. V. Marenich, 
 J. Bloino, B. G. Janesko, R. Gomperts, B. Mennucci, H. P. Hratchian, 
 J. V. Ortiz, A. F. Izmaylov, J. L. Sonnenberg, D. Williams-Young, 
 F. Ding, F. Lipparini, F. Egidi, J. Goings, B. Peng, A. Petrone, 
 T. Henderson, D. Ranasinghe, V. G. Zakrzewski, J. Gao, N. Rega, 
 G. Zheng, W. Liang, M. Hada, M. Ehara, K. Toyota, R. Fukuda, 
 J. Hasegawa, M. Ishida, T. Nakajima, Y. Honda, O. Kitao, H. Nakai, 
 T. Vreven, K. Throssell, J. A. Montgomery, Jr., J. E. Peralta, 
 F. Ogliaro, M. J. Bearpark, J. J. Heyd, E. N. Brothers, K. N. Kudin, 
 V. N. Staroverov, T. A. Keith, R. Kobayashi, J. Normand, 
 K. Raghavachari, A. P. Rendell, J. C. Burant, S. S. Iyengar, 
 J. Tomasi, M. Cossi, J. M. Millam, M. Klene, C. Adamo, R. Cammi, 
 J. W. Ochterski, R. L. Martin, K. Morokuma, O. Farkas, 
 J. B. Foresman, and D. J. Fox, Gaussian, Inc., Wallingford CT, 2016.
 
 ******************************************
 Gaussian 16:  ES64L-G16RevA.03 25-Dec-2016
                11-Feb-2020 
 ******************************************
 %chk=checkpoint.chk
 %mem=3GB
 %nprocshared=4
 Will use up to    4 processors via shared memory.
 -------------------------------------------------------------------
 #t pop=none jul-cc-pvdz guess=read ub3lyp empiricaldispersion=gd3bj
 -------------------------------------------------------------------
 ------------------------------
 theory_abbreviation b3lyp_d3bj
 ------------------------------
 Symbolic Z-matrix:
 Charge =  0 Multiplicity = 6
 O                    -0.32851  -0.1487   -0.70342 
 C                    -1.25234  -1.07399  -0.57777 
 C                    -2.82723  -0.24115   0.33113 
 C                    -2.41486   0.99916  -0.12713 
 C                    -2.77409   1.50841  -1.48012 
 Fe                    1.40527   0.10204   0.00019 
 Cl                    1.97575   2.0909   -0.74177 
 C                    -1.5732    1.91366   0.68743 
 Cl                    2.59987  -1.58572  -0.74255 
 Cl                    1.19741   0.05679   2.2146 
 H                    -3.61062  -0.72105  -0.25246 
 H                    -2.24847   2.66227   1.13171 
 H                    -1.04506   1.41843   1.50062 
 H                    -0.85393   2.45283   0.0638 
 H                    -3.13879   2.53906  -1.38846 
 H                    -1.86256   1.55859  -2.09058 
 H                    -3.5315    0.90775  -1.98594 
 C                    -2.84869  -0.57364   1.81058 
 H                    -3.64816  -0.00478   2.30079 
 H                    -3.05819  -1.63328   1.97034 
 H                    -1.91051  -0.33389   2.3155 
 C                    -0.94341  -2.21827   0.36758 
 H                    -1.78542  -2.90385   0.48274 
 H                    -0.11253  -2.76315  -0.10089 
 H                    -0.59659  -1.87207   1.34045 
 C                    -1.83622  -1.53512  -1.90334 
 H                    -1.03824  -2.1033   -2.39724 
 H                    -2.69988  -2.1919   -1.77451 
 H                    -2.08967  -0.70261  -2.55829 
 
                    Distance matrix (angstroms):
                    1          2          3          4          5
     1  O    0.000000
     2  C    1.313550   0.000000
     3  C    2.706002   1.999999   0.000000
     4  C    2.450011   2.419192   1.385073   0.000000
     5  C    3.054523   3.130296   2.518815   1.489617   0.000000
     6  Fe   1.887835   2.963097   4.259267   3.926124   4.651474
     7  Cl   3.213541   4.523707   5.445929   4.565863   4.842039
     8  C    2.781550   3.260326   2.518486   1.486009   2.510904
     9  Cl   3.262210   3.889546   5.693341   5.675205   6.244767
    10  Cl   3.299319   3.882941   4.453534   4.406847   5.615244
    11  H    3.362020   2.406630   1.088382   2.098730   2.679075
    12  H    3.867227   4.227787   3.066876   2.092434   2.903326
    13  H    2.797696   3.251890   2.701490   2.168344   3.447091
    14  H    2.762717   3.606767   3.350062   2.141523   2.638678
    15  H    3.948547   4.155730   3.283851   2.118097   1.097113
    16  H    2.681852   3.097003   3.167699   2.114974   1.098204
    17  H    3.608331   3.332386   2.680442   2.170344   1.091018
    18  C    3.584979   2.915969   1.516499   2.533106   3.894765
    19  H    4.479517   3.894772   2.146941   2.902366   4.165219
    20  H    4.099282   3.172811   2.162950   3.426803   4.675103
    21  H    3.413344   3.058093   2.187853   2.828048   4.306576
    22  C    2.410039   1.516079   2.731135   3.572363   4.544615
    23  H    3.334730   2.181108   2.863270   4.000204   4.929334
    24  H    2.691664   2.092807   3.730511   4.410942   5.218467
    25  H    2.686875   2.178644   2.941830   3.701874   4.911696
    26  C    2.373853   1.520101   2.765738   3.148386   3.212756
    27  H    2.682012   2.101377   3.756601   4.083345   4.110800
    28  H    3.308368   2.185703   2.873215   3.602494   3.712744
    29  H    2.617066   2.182090   3.017562   2.985348   2.553328
                    6          7          8          9         10
     6  Fe   0.000000
     7  Cl   2.198070   0.000000
     8  C    3.553244   3.830014   0.000000
     9  Cl   2.197105   3.729218   5.630724   0.000000
    10  Cl   2.224608   3.671994   3.668310   3.661898   0.000000
    11  H    5.089246   6.273270   3.460663   6.289520   5.459720
    12  H    4.602709   4.656218   1.101720   6.713025   4.453681
    13  H    3.160425   3.821749   1.088789   5.228984   2.718916
    14  H    3.261016   2.964283   1.094058   5.374832   3.817715
    15  H    5.340033   5.174703   2.674238   7.096714   6.160067
    16  H    4.143857   4.103076   2.815517   5.622915   5.491210
    17  H    5.381964   5.768667   3.463192   6.734770   6.382103
    18  C    4.672284   6.073667   3.012477   6.101612   4.114805
    19  H    5.553499   6.728846   3.254050   7.127360   4.846730
    20  H    5.178348   6.823893   4.053621   6.275009   4.585426
    21  H    4.067570   5.507223   2.795693   5.591276   3.134006
    22  C    3.321913   5.321754   4.191872   3.766616   3.629116
    23  H    4.410067   6.371284   4.826526   4.740210   4.545544
    24  H    3.243949   5.322910   4.962614   3.025756   3.876783
    25  H    3.114620   5.163107   3.963830   3.826005   2.775440
    26  C    4.100118   5.387798   4.321501   4.585733   5.356727
    27  H    4.072083   5.423645   5.092865   4.030104   5.561756
    28  H    5.026324   6.424200   4.917946   5.433210   6.013191
    29  H    4.405433   5.256520   4.200750   5.105741   5.844830
                   11         12         13         14         15
    11  H    0.000000
    12  H    3.901052   0.000000
    13  H    3.772631   1.769584   0.000000
    14  H    4.215788   1.768911   1.780720   0.000000
    15  H    3.484462   2.675651   3.739831   2.708710   0.000000
    16  H    3.410444   3.427851   3.685735   2.541328   1.755867
    17  H    2.379956   3.800554   4.312685   3.709188   1.781120
    18  C    2.204173   3.360391   2.705089   4.023659   4.472912
    19  H    2.652081   3.230951   3.072776   4.341857   4.510122
    20  H    2.465391   4.450917   3.685954   5.018957   5.356909
    21  H    3.103977   3.239221   2.117469   3.735284   4.845813
    22  C    3.120914   5.109473   3.810470   4.681820   5.525904
    23  H    2.938789   5.622920   4.501811   5.453180   5.912557
    24  H    4.053365   5.959586   4.573840   5.270976   6.239358
    25  H    3.598132   4.830370   3.324778   4.516723   5.776491
    26  C    2.556675   5.196107   4.575623   4.553930   4.308223
    27  H    3.623230   6.052163   5.253176   5.181593   5.194366
    28  H    2.304232   5.675633   5.147754   5.325448   4.766937
    29  H    2.762331   4.996366   4.697311   4.284760   3.602444
                   16         17         18         19         20
    16  H    0.000000
    17  H    1.794405   0.000000
    18  C    4.553883   4.132101   0.000000
    19  H    4.991653   4.384331   1.096840   0.000000
    20  H    5.301750   4.725774   1.091901   1.763311   0.000000
    21  H    4.795551   4.761475   1.092067   1.768602   1.767686
    22  C    4.599133   4.691399   2.901230   3.994057   2.717228
    23  H    5.151819   4.865329   2.885062   3.896116   2.333934
    24  H    5.069406   5.358941   3.991770   5.086977   3.774055
    25  H    5.014383   5.235066   2.641758   3.704198   2.552105
    26  C    3.099482   2.974625   3.967707   4.826981   4.063026
    27  H    3.766020   3.930887   4.829418   5.769480   4.834957
    28  H    3.855792   3.216224   3.936213   4.721314   3.803200
    29  H    2.320201   2.236002   4.436184   5.150389   4.723623
                   21         22         23         24         25
    21  H    0.000000
    22  C    2.877596   0.000000
    23  H    3.159011   1.091904   0.000000
    24  H    3.869491   1.098509   1.777350   0.000000
    25  H    2.245684   1.089318   1.792637   1.762326   0.000000
    26  C    4.387149   2.533944   2.751245   2.779929   3.488894
    27  H    5.108968   2.768833   3.081140   2.562339   3.770787
    28  H    4.561086   2.770277   2.537379   3.133965   3.772148
    29  H    4.891000   3.488817   3.766414   3.767457   4.335560
                   26         27         28         29
    26  C    0.000000
    27  H    1.097056   0.000000
    28  H    1.092634   1.776704   0.000000
    29  H    1.089162   1.758794   1.790152   0.000000
 Framework group  C1[X(C8H16Cl3FeO)]
 Deg. of freedom    81
                         Standard orientation:                         
 ---------------------------------------------------------------------
 Center     Atomic      Atomic             Coordinates (Angstroms)
 Number     Number       Type             X           Y           Z
 ---------------------------------------------------------------------
      1          8           0       -0.328511   -0.148697   -0.703420
      2          6           0       -1.252339   -1.073990   -0.577765
      3          6           0       -2.827231   -0.241152    0.331131
      4          6           0       -2.414863    0.999161   -0.127131
      5          6           0       -2.774086    1.508411   -1.480121
      6         26           0        1.405269    0.102035    0.000187
      7         17           0        1.975745    2.090896   -0.741770
      8          6           0       -1.573196    1.913661    0.687429
      9         17           0        2.599874   -1.585723   -0.742553
     10         17           0        1.197410    0.056785    2.214601
     11          1           0       -3.610618   -0.721051   -0.252459
     12          1           0       -2.248469    2.662267    1.131707
     13          1           0       -1.045058    1.418428    1.500618
     14          1           0       -0.853926    2.452826    0.063798
     15          1           0       -3.138792    2.539064   -1.388463
     16          1           0       -1.862561    1.558585   -2.090578
     17          1           0       -3.531498    0.907747   -1.985938
     18          6           0       -2.848693   -0.573640    1.810577
     19          1           0       -3.648162   -0.004782    2.300790
     20          1           0       -3.058192   -1.633279    1.970336
     21          1           0       -1.910513   -0.333892    2.315502
     22          6           0       -0.943413   -2.218271    0.367582
     23          1           0       -1.785419   -2.903850    0.482739
     24          1           0       -0.112529   -2.763149   -0.100885
     25          1           0       -0.596594   -1.872070    1.340452
     26          6           0       -1.836224   -1.535124   -1.903337
     27          1           0       -1.038241   -2.103295   -2.397237
     28          1           0       -2.699879   -2.191899   -1.774512
     29          1           0       -2.089669   -0.702610   -2.558288
 ---------------------------------------------------------------------
 Rotational constants (GHZ):           0.5777763           0.3464348           0.3236549
   427 basis functions,  1056 primitive gaussians,   461 cartesian basis functions
    77 alpha electrons       72 beta electrons
       nuclear repulsion energy      1654.3212887708 Hartrees.
 NAtoms=   29 NActive=   29 NUniq=   29 SFac= 1.00D+00 NAtFMM=   60 NAOKFM=F Big=F
 Nuclear repulsion after empirical dispersion term =     1654.2516564172 Hartrees.
 Initial guess from the checkpoint file:  "checkpoint.chk"
 B after Tr=     0.000000    0.000000    0.000000
         Rot=    1.000000    0.000000    0.000000    0.000000 Ang=   0.00 deg.
 Initial guess <Sx>= 0.0000 <Sy>= 0.0000 <Sz>= 2.5000 <S**2>= 8.7614 S= 2.5019
 SCF Done:  E(UB3LYP) =  -3034.39080411     A.U. after    1 cycles
            NFock=  1  Conv=0.56D-08     -V/T= 2.0024
 <Sx>= 0.0000 <Sy>= 0.0000 <Sz>= 2.5000 <S**2>= 8.7614 S= 2.5019
 <L.S>= 0.000000000000E+00
 Annihilation of the first spin contaminant:
 S**2 before annihilation     8.7614,   after     8.7500
 1\1\GINC-HOLY7C02501\SP\UB3LYP\Jul-CC-pVDZ\C8H16Cl3Fe1O1(6)\EKWAN\11-F
 eb-2020\0\\#t pop=none jul-cc-pvdz guess=read ub3lyp empiricaldispersi
 on=gd3bj\\theory_abbreviation b3lyp_d3bj\\0,6\O,0,-0.328511,-0.148697,
 -0.70342\C,0,-1.252339,-1.07399,-0.577765\C,0,-2.827231,-0.241152,0.33
 1131\C,0,-2.414863,0.999161,-0.127131\C,0,-2.774086,1.508411,-1.480121
 \Fe,0,1.405269,0.102035,0.000187\Cl,0,1.975745,2.090896,-0.74177\C,0,-
 1.573196,1.913661,0.687429\Cl,0,2.599874,-1.585723,-0.742553\Cl,0,1.19
 741,0.056785,2.214601\H,0,-3.610618,-0.721051,-0.252459\H,0,-2.248469,
 2.662267,1.131707\H,0,-1.045058,1.418428,1.500618\H,0,-0.853926,2.4528
 26,0.063798\H,0,-3.138792,2.539064,-1.388463\H,0,-1.862561,1.558585,-2
 .090578\H,0,-3.531498,0.907747,-1.985938\C,0,-2.848693,-0.57364,1.8105
 77\H,0,-3.648162,-0.004782,2.30079\H,0,-3.058192,-1.633279,1.970336\H,
 0,-1.910513,-0.333892,2.315502\C,0,-0.943413,-2.218271,0.367582\H,0,-1
 .785419,-2.90385,0.482739\H,0,-0.112529,-2.763149,-0.100885\H,0,-0.596
 594,-1.87207,1.340452\C,0,-1.836224,-1.535124,-1.903337\H,0,-1.038241,
 -2.103295,-2.397237\H,0,-2.699879,-2.191899,-1.774512\H,0,-2.089669,-0
 .70261,-2.558288\\Version=ES64L-G16RevA.03\HF=-3034.3908041\S2=8.76143
 4\S2-1=0.\S2A=8.750041\RMSD=5.621e-09\PG=C01 [X(C8H16Cl3Fe1O1)]\\@


 IF YOU'RE NOT PART OF THE SOLUTION,
 THEN YOU'RE PART OF THE PRECIPITATE.
 Job cpu time:       0 days  0 hours  4 minutes 35.5 seconds.
 Elapsed time:       0 days  0 hours  1 minutes  9.2 seconds.
 File lengths (MBytes):  RWF=    170 Int=      0 D2E=      0 Chk=     13 Scr=      1
 Normal termination of Gaussian 16 at Tue Feb 11 23:55:42 2020.
 Initial command:
 /n/sw/g16_nehalem/g16/l1.exe "/scratch/Gau-100891.inp" -scrdir="/scratch/"
 Entering Link 1 = /n/sw/g16_nehalem/g16/l1.exe PID=    103861.
  
 Copyright (c) 1988,1990,1992,1993,1995,1998,2003,2009,2016,
            Gaussian, Inc.  All Rights Reserved.
  
 This is part of the Gaussian(R) 16 program.  It is based on
 the Gaussian(R) 09 system (copyright 2009, Gaussian, Inc.),
 the Gaussian(R) 03 system (copyright 2003, Gaussian, Inc.),
 the Gaussian(R) 98 system (copyright 1998, Gaussian, Inc.),
 the Gaussian(R) 94 system (copyright 1995, Gaussian, Inc.),
 the Gaussian 92(TM) system (copyright 1992, Gaussian, Inc.),
 the Gaussian 90(TM) system (copyright 1990, Gaussian, Inc.),
 the Gaussian 88(TM) system (copyright 1988, Gaussian, Inc.),
 the Gaussian 86(TM) system (copyright 1986, Carnegie Mellon
 University), and the Gaussian 82(TM) system (copyright 1983,
 Carnegie Mellon University). Gaussian is a federally registered
 trademark of Gaussian, Inc.
  
 This software contains proprietary and confidential information,
 including trade secrets, belonging to Gaussian, Inc.
  
 This software is provided under written license and may be
 used, copied, transmitted, or stored only in accord with that
 written license.
  
 The following legend is applicable only to US Government
 contracts under FAR:
  
                    RESTRICTED RIGHTS LEGEND
  
 Use, reproduction and disclosure by the US Government is
 subject to restrictions as set forth in subparagraphs (a)
 and (c) of the Commercial Computer Software - Restricted
 Rights clause in FAR 52.227-19.
  
 Gaussian, Inc.
 340 Quinnipiac St., Bldg. 40, Wallingford CT 06492
  
  
 ---------------------------------------------------------------
 Warning -- This program may not be used in any manner that
 competes with the business of Gaussian, Inc. or will provide
 assistance to any competitor of Gaussian, Inc.  The licensee
 of this program is prohibited from giving any competitor of
 Gaussian, Inc. access to this program.  By using this program,
 the user acknowledges that Gaussian, Inc. is engaged in the
 business of creating and licensing software in the field of
 computational chemistry and represents and warrants to the
 licensee that it is not a competitor of Gaussian, Inc. and that
 it will not use this program in any manner prohibited above.
 ---------------------------------------------------------------
  

 Cite this work as:
 Gaussian 16, Revision A.03,
 M. J. Frisch, G. W. Trucks, H. B. Schlegel, G. E. Scuseria, 
 M. A. Robb, J. R. Cheeseman, G. Scalmani, V. Barone, 
 G. A. Petersson, H. Nakatsuji, X. Li, M. Caricato, A. V. Marenich, 
 J. Bloino, B. G. Janesko, R. Gomperts, B. Mennucci, H. P. Hratchian, 
 J. V. Ortiz, A. F. Izmaylov, J. L. Sonnenberg, D. Williams-Young, 
 F. Ding, F. Lipparini, F. Egidi, J. Goings, B. Peng, A. Petrone, 
 T. Henderson, D. Ranasinghe, V. G. Zakrzewski, J. Gao, N. Rega, 
 G. Zheng, W. Liang, M. Hada, M. Ehara, K. Toyota, R. Fukuda, 
 J. Hasegawa, M. Ishida, T. Nakajima, Y. Honda, O. Kitao, H. Nakai, 
 T. Vreven, K. Throssell, J. A. Montgomery, Jr., J. E. Peralta, 
 F. Ogliaro, M. J. Bearpark, J. J. Heyd, E. N. Brothers, K. N. Kudin, 
 V. N. Staroverov, T. A. Keith, R. Kobayashi, J. Normand, 
 K. Raghavachari, A. P. Rendell, J. C. Burant, S. S. Iyengar, 
 J. Tomasi, M. Cossi, J. M. Millam, M. Klene, C. Adamo, R. Cammi, 
 J. W. Ochterski, R. L. Martin, K. Morokuma, O. Farkas, 
 J. B. Foresman, and D. J. Fox, Gaussian, Inc., Wallingford CT, 2016.
 
 ******************************************
 Gaussian 16:  ES64L-G16RevA.03 25-Dec-2016
                11-Feb-2020 
 ******************************************
 %chk=checkpoint.chk
 %mem=3GB
 %nprocshared=4
 Will use up to    4 processors via shared memory.
 ----------------------------------------
 #t pop=none jul-cc-pvdz guess=read ub97d
 ----------------------------------------
 ------------------------
 theory_abbreviation b97d
 ------------------------
 Symbolic Z-matrix:
 Charge =  0 Multiplicity = 6
 O                    -0.32851  -0.1487   -0.70342 
 C                    -1.25234  -1.07399  -0.57777 
 C                    -2.82723  -0.24115   0.33113 
 C                    -2.41486   0.99916  -0.12713 
 C                    -2.77409   1.50841  -1.48012 
 Fe                    1.40527   0.10204   0.00019 
 Cl                    1.97575   2.0909   -0.74177 
 C                    -1.5732    1.91366   0.68743 
 Cl                    2.59987  -1.58572  -0.74255 
 Cl                    1.19741   0.05679   2.2146 
 H                    -3.61062  -0.72105  -0.25246 
 H                    -2.24847   2.66227   1.13171 
 H                    -1.04506   1.41843   1.50062 
 H                    -0.85393   2.45283   0.0638 
 H                    -3.13879   2.53906  -1.38846 
 H                    -1.86256   1.55859  -2.09058 
 H                    -3.5315    0.90775  -1.98594 
 C                    -2.84869  -0.57364   1.81058 
 H                    -3.64816  -0.00478   2.30079 
 H                    -3.05819  -1.63328   1.97034 
 H                    -1.91051  -0.33389   2.3155 
 C                    -0.94341  -2.21827   0.36758 
 H                    -1.78542  -2.90385   0.48274 
 H                    -0.11253  -2.76315  -0.10089 
 H                    -0.59659  -1.87207   1.34045 
 C                    -1.83622  -1.53512  -1.90334 
 H                    -1.03824  -2.1033   -2.39724 
 H                    -2.69988  -2.1919   -1.77451 
 H                    -2.08967  -0.70261  -2.55829 
 
                    Distance matrix (angstroms):
                    1          2          3          4          5
     1  O    0.000000
     2  C    1.313550   0.000000
     3  C    2.706002   1.999999   0.000000
     4  C    2.450011   2.419192   1.385073   0.000000
     5  C    3.054523   3.130296   2.518815   1.489617   0.000000
     6  Fe   1.887835   2.963097   4.259267   3.926124   4.651474
     7  Cl   3.213541   4.523707   5.445929   4.565863   4.842039
     8  C    2.781550   3.260326   2.518486   1.486009   2.510904
     9  Cl   3.262210   3.889546   5.693341   5.675205   6.244767
    10  Cl   3.299319   3.882941   4.453534   4.406847   5.615244
    11  H    3.362020   2.406630   1.088382   2.098730   2.679075
    12  H    3.867227   4.227787   3.066876   2.092434   2.903326
    13  H    2.797696   3.251890   2.701490   2.168344   3.447091
    14  H    2.762717   3.606767   3.350062   2.141523   2.638678
    15  H    3.948547   4.155730   3.283851   2.118097   1.097113
    16  H    2.681852   3.097003   3.167699   2.114974   1.098204
    17  H    3.608331   3.332386   2.680442   2.170344   1.091018
    18  C    3.584979   2.915969   1.516499   2.533106   3.894765
    19  H    4.479517   3.894772   2.146941   2.902366   4.165219
    20  H    4.099282   3.172811   2.162950   3.426803   4.675103
    21  H    3.413344   3.058093   2.187853   2.828048   4.306576
    22  C    2.410039   1.516079   2.731135   3.572363   4.544615
    23  H    3.334730   2.181108   2.863270   4.000204   4.929334
    24  H    2.691664   2.092807   3.730511   4.410942   5.218467
    25  H    2.686875   2.178644   2.941830   3.701874   4.911696
    26  C    2.373853   1.520101   2.765738   3.148386   3.212756
    27  H    2.682012   2.101377   3.756601   4.083345   4.110800
    28  H    3.308368   2.185703   2.873215   3.602494   3.712744
    29  H    2.617066   2.182090   3.017562   2.985348   2.553328
                    6          7          8          9         10
     6  Fe   0.000000
     7  Cl   2.198070   0.000000
     8  C    3.553244   3.830014   0.000000
     9  Cl   2.197105   3.729218   5.630724   0.000000
    10  Cl   2.224608   3.671994   3.668310   3.661898   0.000000
    11  H    5.089246   6.273270   3.460663   6.289520   5.459720
    12  H    4.602709   4.656218   1.101720   6.713025   4.453681
    13  H    3.160425   3.821749   1.088789   5.228984   2.718916
    14  H    3.261016   2.964283   1.094058   5.374832   3.817715
    15  H    5.340033   5.174703   2.674238   7.096714   6.160067
    16  H    4.143857   4.103076   2.815517   5.622915   5.491210
    17  H    5.381964   5.768667   3.463192   6.734770   6.382103
    18  C    4.672284   6.073667   3.012477   6.101612   4.114805
    19  H    5.553499   6.728846   3.254050   7.127360   4.846730
    20  H    5.178348   6.823893   4.053621   6.275009   4.585426
    21  H    4.067570   5.507223   2.795693   5.591276   3.134006
    22  C    3.321913   5.321754   4.191872   3.766616   3.629116
    23  H    4.410067   6.371284   4.826526   4.740210   4.545544
    24  H    3.243949   5.322910   4.962614   3.025756   3.876783
    25  H    3.114620   5.163107   3.963830   3.826005   2.775440
    26  C    4.100118   5.387798   4.321501   4.585733   5.356727
    27  H    4.072083   5.423645   5.092865   4.030104   5.561756
    28  H    5.026324   6.424200   4.917946   5.433210   6.013191
    29  H    4.405433   5.256520   4.200750   5.105741   5.844830
                   11         12         13         14         15
    11  H    0.000000
    12  H    3.901052   0.000000
    13  H    3.772631   1.769584   0.000000
    14  H    4.215788   1.768911   1.780720   0.000000
    15  H    3.484462   2.675651   3.739831   2.708710   0.000000
    16  H    3.410444   3.427851   3.685735   2.541328   1.755867
    17  H    2.379956   3.800554   4.312685   3.709188   1.781120
    18  C    2.204173   3.360391   2.705089   4.023659   4.472912
    19  H    2.652081   3.230951   3.072776   4.341857   4.510122
    20  H    2.465391   4.450917   3.685954   5.018957   5.356909
    21  H    3.103977   3.239221   2.117469   3.735284   4.845813
    22  C    3.120914   5.109473   3.810470   4.681820   5.525904
    23  H    2.938789   5.622920   4.501811   5.453180   5.912557
    24  H    4.053365   5.959586   4.573840   5.270976   6.239358
    25  H    3.598132   4.830370   3.324778   4.516723   5.776491
    26  C    2.556675   5.196107   4.575623   4.553930   4.308223
    27  H    3.623230   6.052163   5.253176   5.181593   5.194366
    28  H    2.304232   5.675633   5.147754   5.325448   4.766937
    29  H    2.762331   4.996366   4.697311   4.284760   3.602444
                   16         17         18         19         20
    16  H    0.000000
    17  H    1.794405   0.000000
    18  C    4.553883   4.132101   0.000000
    19  H    4.991653   4.384331   1.096840   0.000000
    20  H    5.301750   4.725774   1.091901   1.763311   0.000000
    21  H    4.795551   4.761475   1.092067   1.768602   1.767686
    22  C    4.599133   4.691399   2.901230   3.994057   2.717228
    23  H    5.151819   4.865329   2.885062   3.896116   2.333934
[...]
 ---------------------------------------------------------------------
 Rotational constants (GHZ):           0.5777763           0.3464348           0.3236549
   427 basis functions,  1056 primitive gaussians,   461 cartesian basis functions
    77 alpha electrons       72 beta electrons
       nuclear repulsion energy      1654.3212887708 Hartrees.
 NAtoms=   29 NActive=   29 NUniq=   29 SFac= 1.00D+00 NAtFMM=   60 NAOKFM=F Big=F
 Nuclear repulsion after empirical dispersion term =     1654.3188836651 Hartrees.
 Initial guess from the checkpoint file:  "checkpoint.chk"
 B after Tr=     0.000000    0.000000    0.000000
         Rot=    1.000000    0.000000    0.000000    0.000000 Ang=   0.00 deg.
 Initial guess <Sx>= 0.0000 <Sy>= 0.0000 <Sz>= 2.5000 <S**2>= 8.7612 S= 2.5019
 SCF Done:  E(UM06L) =  -3034.18897823     A.U. after   18 cycles
            NFock= 18  Conv=0.19D-08     -V/T= 2.0020
 <Sx>= 0.0000 <Sy>= 0.0000 <Sz>= 2.5000 <S**2>= 8.7613 S= 2.5019
 <L.S>= 0.000000000000E+00
 Annihilation of the first spin contaminant:
 S**2 before annihilation     8.7613,   after     8.7500
 1\1\GINC-HOLY7C02501\SP\UM06L\Jul-CC-pVDZ\C8H16Cl3Fe1O1(6)\EKWAN\12-Fe
 b-2020\0\\#t pop=none jul-cc-pvdz guess=read um06l empiricaldispersion
 =gd3\\theory_abbreviation m06l_d3\\0,6\O,0,-0.328511,-0.148697,-0.7034
 2\C,0,-1.252339,-1.07399,-0.577765\C,0,-2.827231,-0.241152,0.331131\C,
 0,-2.414863,0.999161,-0.127131\C,0,-2.774086,1.508411,-1.480121\Fe,0,1
 .405269,0.102035,0.000187\Cl,0,1.975745,2.090896,-0.74177\C,0,-1.57319
 6,1.913661,0.687429\Cl,0,2.599874,-1.585723,-0.742553\Cl,0,1.19741,0.0
 56785,2.214601\H,0,-3.610618,-0.721051,-0.252459\H,0,-2.248469,2.66226
 7,1.131707\H,0,-1.045058,1.418428,1.500618\H,0,-0.853926,2.452826,0.06
 3798\H,0,-3.138792,2.539064,-1.388463\H,0,-1.862561,1.558585,-2.090578
 \H,0,-3.531498,0.907747,-1.985938\C,0,-2.848693,-0.57364,1.810577\H,0,
 -3.648162,-0.004782,2.30079\H,0,-3.058192,-1.633279,1.970336\H,0,-1.91
 0513,-0.333892,2.315502\C,0,-0.943413,-2.218271,0.367582\H,0,-1.785419
 ,-2.90385,0.482739\H,0,-0.112529,-2.763149,-0.100885\H,0,-0.596594,-1.
 87207,1.340452\C,0,-1.836224,-1.535124,-1.903337\H,0,-1.038241,-2.1032
 95,-2.397237\H,0,-2.699879,-2.191899,-1.774512\H,0,-2.089669,-0.70261,
 -2.558288\\Version=ES64L-G16RevA.03\HF=-3034.1889782\S2=8.761305\S2-1=
 0.\S2A=8.750041\RMSD=1.916e-09\PG=C01 [X(C8H16Cl3Fe1O1)]\\@


 THOSE WITH THE GOLD MAKE THE RULES.

             -- PETER'S GOLDEN RULE
 Job cpu time:       0 days  1 hours 19 minutes 35.2 seconds.
 Elapsed time:       0 days  0 hours 19 minutes 57.1 seconds.
 File lengths (MBytes):  RWF=    174 Int=      0 D2E=      0 Chk=     13 Scr=      1
 Normal termination of Gaussian 16 at Wed Feb 12 09:13:24 2020.
 Initial command:
 /n/sw/g16_nehalem/g16/l1.exe "/scratch/Gau-100891.inp" -scrdir="/scratch/"
 Entering Link 1 = /n/sw/g16_nehalem/g16/l1.exe PID=    157021.
  
 Copyright (c) 1988,1990,1992,1993,1995,1998,2003,2009,2016,
            Gaussian, Inc.  All Rights Reserved.
  
 This is part of the Gaussian(R) 16 program.  It is based on
 the Gaussian(R) 09 system (copyright 2009, Gaussian, Inc.),
 the Gaussian(R) 03 system (copyright 2003, Gaussian, Inc.),
 the Gaussian(R) 98 system (copyright 1998, Gaussian, Inc.),
 the Gaussian(R) 94 system (copyright 1995, Gaussian, Inc.),
 the Gaussian 92(TM) system (copyright 1992, Gaussian, Inc.),
 the Gaussian 90(TM) system (copyright 1990, Gaussian, Inc.),
 the Gaussian 88(TM) system (copyright 1988, Gaussian, Inc.),
 the Gaussian 86(TM) system (copyright 1986, Carnegie Mellon
 University), and the Gaussian 82(TM) system (copyright 1983,
 Carnegie Mellon University). Gaussian is a federally registered
 trademark of Gaussian, Inc.
  
 This software contains proprietary and confidential information,
 including trade secrets, belonging to Gaussian, Inc.
  
 This software is provided under written license and may be
 used, copied, transmitted, or stored only in accord with that
 written license.
  
 The following legend is applicable only to US Government
 contracts under FAR:
  
                    RESTRICTED RIGHTS LEGEND
  
 Use, reproduction and disclosure by the US Government is
 subject to restrictions as set forth in subparagraphs (a)
 and (c) of the Commercial Computer Software - Restricted
 Rights clause in FAR 52.227-19.
  
 Gaussian, Inc.
 340 Quinnipiac St., Bldg. 40, Wallingford CT 06492
  
  
 ---------------------------------------------------------------
 Warning -- This program may not be used in any manner that
 competes with the business of Gaussian, Inc. or will provide
 assistance to any competitor of Gaussian, Inc.  The licensee
 of this program is prohibited from giving any competitor of
 Gaussian, Inc. access to this program.  By using this program,
 the user acknowledges that Gaussian, Inc. is engaged in the
 business of creating and licensing software in the field of
 computational chemistry and represents and warrants to the
 licensee that it is not a competitor of Gaussian, Inc. and that
 it will not use this program in any manner prohibited above.
 ---------------------------------------------------------------
  

 Cite this work as:
 Gaussian 16, Revision A.03,
 M. J. Frisch, G. W. Trucks, H. B. Schlegel, G. E. Scuseria, 
 M. A. Robb, J. R. Cheeseman, G. Scalmani, V. Barone, 
 G. A. Petersson, H. Nakatsuji, X. Li, M. Caricato, A. V. Marenich, 
 J. Bloino, B. G. Janesko, R. Gomperts, B. Mennucci, H. P. Hratchian, 
 J. V. Ortiz, A. F. Izmaylov, J. L. Sonnenberg, D. Williams-Young, 
 F. Ding, F. Lipparini, F. Egidi, J. Goings, B. Peng, A. Petrone, 
 T. Henderson, D. Ranasinghe, V. G. Zakrzewski, J. Gao, N. Rega, 
 G. Zheng, W. Liang, M. Hada, M. Ehara, K. Toyota, R. Fukuda, 
 J. Hasegawa, M. Ishida, T. Nakajima, Y. Honda, O. Kitao, H. Nakai, 
 T. Vreven, K. Throssell, J. A. Montgomery, Jr., J. E. Peralta, 
 F. Ogliaro, M. J. Bearpark, J. J. Heyd, E. N. Brothers, K. N. Kudin, 
 V. N. Staroverov, T. A. Keith, R. Kobayashi, J. Normand, 
 K. Raghavachari, A. P. Rendell, J. C. Burant, S. S. Iyengar, 
 J. Tomasi, M. Cossi, J. M. Millam, M. Klene, C. Adamo, R. Cammi, 
 J. W. Ochterski, R. L. Martin, K. Morokuma, O. Farkas, 
 J. B. Foresman, and D. J. Fox, Gaussian, Inc., Wallingford CT, 2016.
 
 ******************************************
 Gaussian 16:  ES64L-G16RevA.03 25-Dec-2016
                12-Feb-2020 
 ******************************************
 %chk=checkpoint.chk
 %mem=3GB
 %nprocshared=4
 Will use up to    4 processors via shared memory.
 -------------------------------------------------------------------
 #t pop=none jul-cc-pvdz guess=read ub97d3 empiricaldispersion=gd3bj
 -------------------------------------------------------------------
 ------------------------------
 theory_abbreviation b97d3_d3bj
 ------------------------------
 Symbolic Z-matrix:
 Charge =  0 Multiplicity = 6
 O                    -0.32851  -0.1487   -0.70342 
 C                    -1.25234  -1.07399  -0.57777 
 C                    -2.82723  -0.24115   0.33113 
 C                    -2.41486   0.99916  -0.12713 
 C                    -2.77409   1.50841  -1.48012 
 Fe                    1.40527   0.10204   0.00019 
 Cl                    1.97575   2.0909   -0.74177 
 C                    -1.5732    1.91366   0.68743 
 Cl                    2.59987  -1.58572  -0.74255 
 Cl                    1.19741   0.05679   2.2146 
 H                    -3.61062  -0.72105  -0.25246 
 H                    -2.24847   2.66227   1.13171 
 H                    -1.04506   1.41843   1.50062 
 H                    -0.85393   2.45283   0.0638 
 H                    -3.13879   2.53906  -1.38846 
 H                    -1.86256   1.55859  -2.09058 
 H                    -3.5315    0.90775  -1.98594 
 C                    -2.84869  -0.57364   1.81058 
 H                    -3.64816  -0.00478   2.30079 
 H                    -3.05819  -1.63328   1.97034 
 H                    -1.91051  -0.33389   2.3155 
 C                    -0.94341  -2.21827   0.36758 
 H                    -1.78542  -2.90385   0.48274 
 H                    -0.11253  -2.76315  -0.10089 
 H                    -0.59659  -1.87207   1.34045 
 C                    -1.83622  -1.53512  -1.90334 
 H                    -1.03824  -2.1033   -2.39724 
 H                    -2.69988  -2.1919   -1.77451 
 H                    -2.08967  -0.70261  -2.55829 
 
                    Distance matrix (angstroms):
                    1          2          3          4          5
     1  O    0.000000
     2  C    1.313550   0.000000
     3  C    2.706002   1.999999   0.000000
     4  C    2.450011   2.419192   1.385073   0.000000
     5  C    3.054523   3.130296   2.518815   1.489617   0.000000
     6  Fe   1.887835   2.963097   4.259267   3.926124   4.651474
     7  Cl   3.213541   4.523707   5.445929   4.565863   4.842039
     8  C    2.781550   3.260326   2.518486   1.486009   2.510904
     9  Cl   3.262210   3.889546   5.693341   5.675205   6.244767
    10  Cl   3.299319   3.882941   4.453534   4.406847   5.615244
    11  H    3.362020   2.406630   1.088382   2.098730   2.679075
    12  H    3.867227   4.227787   3.066876   2.092434   2.903326
    13  H    2.797696   3.251890   2.701490   2.168344   3.447091
    14  H    2.762717   3.606767   3.350062   2.141523   2.638678
    15  H    3.948547   4.155730   3.283851   2.118097   1.097113
    16  H    2.681852   3.097003   3.167699   2.114974   1.098204
    17  H    3.608331   3.332386   2.680442   2.170344   1.091018
    18  C    3.584979   2.915969   1.516499   2.533106   3.894765
    19  H    4.479517   3.894772   2.146941   2.902366   4.165219
    20  H    4.099282   3.172811   2.162950   3.426803   4.675103
    21  H    3.413344   3.058093   2.187853   2.828048   4.306576
    22  C    2.410039   1.516079   2.731135   3.572363   4.544615
    23  H    3.334730   2.181108   2.863270   4.000204   4.929334
    24  H    2.691664   2.092807   3.730511   4.410942   5.218467
    25  H    2.686875   2.178644   2.941830   3.701874   4.911696
    26  C    2.373853   1.520101   2.765738   3.148386   3.212756
    27  H    2.682012   2.101377   3.756601   4.083345   4.110800
    28  H    3.308368   2.185703   2.873215   3.602494   3.712744
    29  H    2.617066   2.182090   3.017562   2.985348   2.553328
                    6          7          8          9         10
     6  Fe   0.000000
     7  Cl   2.198070   0.000000
     8  C    3.553244   3.830014   0.000000
     9  Cl   2.197105   3.729218   5.630724   0.000000
    10  Cl   2.224608   3.671994   3.668310   3.661898   0.000000
    11  H    5.089246   6.273270   3.460663   6.289520   5.459720
    12  H    4.602709   4.656218   1.101720   6.713025   4.453681
    13  H    3.160425   3.821749   1.088789   5.228984   2.718916
    14  H    3.261016   2.964283   1.094058   5.374832   3.817715
    15  H    5.340033   5.174703   2.674238   7.096714   6.160067
    16  H    4.143857   4.103076   2.815517   5.622915   5.491210
    17  H    5.381964   5.768667   3.463192   6.734770   6.382103
    18  C    4.672284   6.073667   3.012477   6.101612   4.114805
    19  H    5.553499   6.728846   3.254050   7.127360   4.846730
    20  H    5.178348   6.823893   4.053621   6.275009   4.585426
    21  H    4.067570   5.507223   2.795693   5.591276   3.134006
    22  C    3.321913   5.321754   4.191872   3.766616   3.629116
    23  H    4.410067   6.371284   4.826526   4.740210   4.545544
    24  H    3.243949   5.322910   4.962614   3.025756   3.876783
    25  H    3.114620   5.163107   3.963830   3.826005   2.775440
    26  C    4.100118   5.387798   4.321501   4.585733   5.356727
    27  H    4.072083   5.423645   5.092865   4.030104   5.561756
    28  H    5.026324   6.424200   4.917946   5.433210   6.013191
    29  H    4.405433   5.256520   4.200750   5.105741   5.844830
                   11         12         13         14         15
    11  H    0.000000
    12  H    3.901052   0.000000
    13  H    3.772631   1.769584   0.000000
    14  H    4.215788   1.768911   1.780720   0.000000
    15  H    3.484462   2.675651   3.739831   2.708710   0.000000
    16  H    3.410444   3.427851   3.685735   2.541328   1.755867
    17  H    2.379956   3.800554   4.312685   3.709188   1.781120
    18  C    2.204173   3.360391   2.705089   4.023659   4.472912
    19  H    2.652081   3.230951   3.072776   4.341857   4.510122
    20  H    2.465391   4.450917   3.685954   5.018957   5.356909
    21  H    3.103977   3.239221   2.117469   3.735284   4.845813
    22  C    3.120914   5.109473   3.810470   4.681820   5.525904
    23  H    2.938789   5.622920   4.501811   5.453180   5.912557
    24  H    4.053365   5.959586   4.573840   5.270976   6.239358
    25  H    3.598132   4.830370   3.324778   4.516723   5.776491
    26  C    2.556675   5.196107   4.575623   4.553930   4.308223
    27  H    3.623230   6.052163   5.253176   5.181593   5.194366
    28  H    2.304232   5.675633   5.147754   5.325448   4.766937
    29  H    2.762331   4.996366   4.697311   4.284760   3.602444
                   16         17         18         19         20
    16  H    0.000000
    17  H    1.794405   0.000000
    18  C    4.553883   4.132101   0.000000
    19  H    4.991653   4.384331   1.096840   0.000000
    20  H    5.301750   4.725774   1.091901   1.763311   0.000000
    21  H    4.795551   4.761475   1.092067   1.768602   1.767686
    22  C    4.599133   4.691399   2.901230   3.994057   2.717228
    23  H    5.151819   4.865329   2.885062   3.896116   2.333934
    24  H    5.069406   5.358941   3.991770   5.086977   3.774055
    25  H    5.014383   5.235066   2.641758   3.704198   2.552105
    26  C    3.099482   2.974625   3.967707   4.826981   4.063026
    27  H    3.766020   3.930887   4.829418   5.769480   4.834957
    28  H    3.855792   3.216224   3.936213   4.721314   3.803200
    29  H    2.320201   2.236002   4.436184   5.150389   4.723623
                   21         22         23         24         25
    21  H    0.000000
    22  C    2.877596   0.000000
    23  H    3.159011   1.091904   0.000000
    24  H    3.869491   1.098509   1.777350   0.000000
    25  H    2.245684   1.089318   1.792637   1.762326   0.000000
    26  C    4.387149   2.533944   2.751245   2.779929   3.488894
    27  H    5.108968   2.768833   3.081140   2.562339   3.770787
    28  H    4.561086   2.770277   2.537379   3.133965   3.772148
    29  H    4.891000   3.488817   3.766414   3.767457   4.335560
                   26         27         28         29
    26  C    0.000000
    27  H    1.097056   0.000000
    28  H    1.092634   1.776704   0.000000
    29  H    1.089162   1.758794   1.790152   0.000000
 Framework group  C1[X(C8H16Cl3FeO)]
 Deg. of freedom    81
                         Standard orientation:                         
 ---------------------------------------------------------------------
 Center     Atomic      Atomic             Coordinates (Angstroms)
 Number     Number       Type             X           Y           Z
 ---------------------------------------------------------------------
      1          8           0       -0.328511   -0.148697   -0.703420
      2          6           0       -1.252339   -1.073990   -0.577765
      3          6           0       -2.827231   -0.241152    0.331131
      4          6           0       -2.414863    0.999161   -0.127131
      5          6           0       -2.774086    1.508411   -1.480121
      6         26           0        1.405269    0.102035    0.000187
      7         17           0        1.975745    2.090896   -0.741770
      8          6           0       -1.573196    1.913661    0.687429
      9         17           0        2.599874   -1.585723   -0.742553
     10         17           0        1.197410    0.056785    2.214601
     11          1           0       -3.610618   -0.721051   -0.252459
     12          1           0       -2.248469    2.662267    1.131707
     13          1           0       -1.045058    1.418428    1.500618
     14          1           0       -0.853926    2.452826    0.063798
     15          1           0       -3.138792    2.539064   -1.388463
     16          1           0       -1.862561    1.558585   -2.090578
     17          1           0       -3.531498    0.907747   -1.985938
     18          6           0       -2.848693   -0.573640    1.810577
     19          1           0       -3.648162   -0.004782    2.300790
     20          1           0       -3.058192   -1.633279    1.970336
     21          1           0       -1.910513   -0.333892    2.315502
     22          6           0       -0.943413   -2.218271    0.367582
     23          1           0       -1.785419   -2.903850    0.482739
     24          1           0       -0.112529   -2.763149   -0.100885
     25          1           0       -0.596594   -1.872070    1.340452
     26          6           0       -1.836224   -1.535124   -1.903337
     27          1           0       -1.038241   -2.103295   -2.397237
     28          1           0       -2.699879   -2.191899   -1.774512
     29          1           0       -2.089669   -0.702610   -2.558288
 ---------------------------------------------------------------------
 Rotational constants (GHZ):           0.5777763           0.3464348           0.3236549
   427 basis functions,  1056 primitive gaussians,   461 cartesian basis functions
    77 alpha electrons       72 beta electrons
       nuclear repulsion energy      1654.3212887708 Hartrees.
 NAtoms=   29 NActive=   29 NUniq=   29 SFac= 1.00D+00 NAtFMM=   60 NAOKFM=F Big=F
 Nuclear repulsion after empirical dispersion term =     1654.2188098783 Hartrees.
 Initial guess from the checkpoint file:  "checkpoint.chk"
 B after Tr=     0.000000    0.000000    0.000000
         Rot=    1.000000    0.000000    0.000000    0.000000 Ang=   0.00 deg.
 Initial guess <Sx>= 0.0000 <Sy>= 0.0000 <Sz>= 2.5000 <S**2>= 8.7613 S= 2.5019
 EnCoef did     2 forward-backward iterations
 SCF Done:  E(UB97D3) =  -3034.60953273     A.U. after   15 cycles
            NFock= 15  Conv=0.83D-08     -V/T= 2.0019
 <Sx>= 0.0000 <Sy>= 0.0000 <Sz>= 2.5000 <S**2>= 8.7593 S= 2.5016
 <L.S>= 0.000000000000E+00
 Annihilation of the first spin contaminant:
 S**2 before annihilation     8.7593,   after     8.7500
 1\1\GINC-HOLY7C02501\SP\UB97D3\Jul-CC-pVDZ\C8H16Cl3Fe1O1(6)\EKWAN\12-F
 eb-2020\0\\#t pop=none jul-cc-pvdz guess=read ub97d3 empiricaldispersi
 on=gd3bj\\theory_abbreviation b97d3_d3bj\\0,6\O,0,-0.328511,-0.148697,
 -0.70342\C,0,-1.252339,-1.07399,-0.577765\C,0,-2.827231,-0.241152,0.33
 1131\C,0,-2.414863,0.999161,-0.127131\C,0,-2.774086,1.508411,-1.480121
 \Fe,0,1.405269,0.102035,0.000187\Cl,0,1.975745,2.090896,-0.74177\C,0,-
 1.573196,1.913661,0.687429\Cl,0,2.599874,-1.585723,-0.742553\Cl,0,1.19
 741,0.056785,2.214601\H,0,-3.610618,-0.721051,-0.252459\H,0,-2.248469,
 2.662267,1.131707\H,0,-1.045058,1.418428,1.500618\H,0,-0.853926,2.4528
 26,0.063798\H,0,-3.138792,2.539064,-1.388463\H,0,-1.862561,1.558585,-2
 .090578\H,0,-3.531498,0.907747,-1.985938\C,0,-2.848693,-0.57364,1.8105
 77\H,0,-3.648162,-0.004782,2.30079\H,0,-3.058192,-1.633279,1.970336\H,
 0,-1.910513,-0.333892,2.315502\C,0,-0.943413,-2.218271,0.367582\H,0,-1
 .785419,-2.90385,0.482739\H,0,-0.112529,-2.763149,-0.100885\H,0,-0.596
 594,-1.87207,1.340452\C,0,-1.836224,-1.535124,-1.903337\H,0,-1.038241,
 -2.103295,-2.397237\H,0,-2.699879,-2.191899,-1.774512\H,0,-2.089669,-0
 .70261,-2.558288\\Version=ES64L-G16RevA.03\HF=-3034.6095327\S2=8.75931
 7\S2-1=0.\S2A=8.750028\RMSD=8.327e-09\PG=C01 [X(C8H16Cl3Fe1O1)]\\@


 ABSOLUTISM, OBSOLETISM -- IF IT WORKS, IT'S OUT OF DATE

                          -- STAFFORD BEER
 Job cpu time:       0 days  0 hours 48 minutes 21.8 seconds.
 Elapsed time:       0 days  0 hours 12 minutes  7.5 seconds.
 File lengths (MBytes):  RWF=    174 Int=      0 D2E=      0 Chk=     13 Scr=      1
 Normal termination of Gaussian 16 at Wed Feb 12 09:25:32 2020.
