 Entering Gaussian System, Link 0=g16
 Input=simple-grid-245-270-b3lyp_d3bj-631gd-gas-singlepoint-DFT-juldz2-gas.gjf
 Output=simple-grid-245-270-b3lyp_d3bj-631gd-gas-singlepoint-DFT-juldz2-gas.out
 Initial command:
 /n/sw/g16_nehalem/g16/l1.exe "/scratch/Gau-270319.inp" -scrdir="/scratch/"
 Entering Link 1 = /n/sw/g16_nehalem/g16/l1.exe PID=    270332.
  
 Copyright (c) 1988,1990,1992,1993,1995,1998,2003,2009,2016,
            Gaussian, Inc.  All Rights Reserved.
  
 This is part of the Gaussian(R) 16 program.  It is based on
 the Gaussian(R) 09 system (copyright 2009, Gaussian, Inc.),
 the Gaussian(R) 03 system (copyright 2003, Gaussian, Inc.),
 the Gaussian(R) 98 system (copyright 1998, Gaussian, Inc.),
 the Gaussian(R) 94 system (copyright 1995, Gaussian, Inc.),
 the Gaussian 92(TM) system (copyright 1992, Gaussian, Inc.),
 the Gaussian 90(TM) system (copyright 1990, Gaussian, Inc.),
 the Gaussian 88(TM) system (copyright 1988, Gaussian, Inc.),
 the Gaussian 86(TM) system (copyright 1986, Carnegie Mellon
 University), and the Gaussian 82(TM) system (copyright 1983,
 Carnegie Mellon University). Gaussian is a federally registered
 trademark of Gaussian, Inc.
  
 This software contains proprietary and confidential information,
 including trade secrets, belonging to Gaussian, Inc.
  
 This software is provided under written license and may be
 used, copied, transmitted, or stored only in accord with that
 written license.
  
 The following legend is applicable only to US Government
 contracts under FAR:
  
                    RESTRICTED RIGHTS LEGEND
  
 Use, reproduction and disclosure by the US Government is
 subject to restrictions as set forth in subparagraphs (a)
 and (c) of the Commercial Computer Software - Restricted
 Rights clause in FAR 52.227-19.
  
 Gaussian, Inc.
 340 Quinnipiac St., Bldg. 40, Wallingford CT 06492
  
  
 ---------------------------------------------------------------
 Warning -- This program may not be used in any manner that
 competes with the business of Gaussian, Inc. or will provide
 assistance to any competitor of Gaussian, Inc.  The licensee
 of this program is prohibited from giving any competitor of
 Gaussian, Inc. access to this program.  By using this program,
 the user acknowledges that Gaussian, Inc. is engaged in the
 business of creating and licensing software in the field of
 computational chemistry and represents and warrants to the
 licensee that it is not a competitor of Gaussian, Inc. and that
 it will not use this program in any manner prohibited above.
 ---------------------------------------------------------------
  

 Cite this work as:
 Gaussian 16, Revision A.03,
 M. J. Frisch, G. W. Trucks, H. B. Schlegel, G. E. Scuseria, 
 M. A. Robb, J. R. Cheeseman, G. Scalmani, V. Barone, 
 G. A. Petersson, H. Nakatsuji, X. Li, M. Caricato, A. V. Marenich, 
 J. Bloino, B. G. Janesko, R. Gomperts, B. Mennucci, H. P. Hratchian, 
 J. V. Ortiz, A. F. Izmaylov, J. L. Sonnenberg, D. Williams-Young, 
 F. Ding, F. Lipparini, F. Egidi, J. Goings, B. Peng, A. Petrone, 
 T. Henderson, D. Ranasinghe, V. G. Zakrzewski, J. Gao, N. Rega, 
 G. Zheng, W. Liang, M. Hada, M. Ehara, K. Toyota, R. Fukuda, 
 J. Hasegawa, M. Ishida, T. Nakajima, Y. Honda, O. Kitao, H. Nakai, 
 T. Vreven, K. Throssell, J. A. Montgomery, Jr., J. E. Peralta, 
 F. Ogliaro, M. J. Bearpark, J. J. Heyd, E. N. Brothers, K. N. Kudin, 
 V. N. Staroverov, T. A. Keith, R. Kobayashi, J. Normand, 
 K. Raghavachari, A. P. Rendell, J. C. Burant, S. S. Iyengar, 
 J. Tomasi, M. Cossi, J. M. Millam, M. Klene, C. Adamo, R. Cammi, 
 J. W. Ochterski, R. L. Martin, K. Morokuma, O. Farkas, 
 J. B. Foresman, and D. J. Fox, Gaussian, Inc., Wallingford CT, 2016.
 
 ******************************************
 Gaussian 16:  ES64L-G16RevA.03 25-Dec-2016
                11-Feb-2020 
 ******************************************
 %chk=checkpoint.chk
 %mem=3GB
 %nprocshared=4
 Will use up to    4 processors via shared memory.
 --------------------------------
 #t pop=none jul-cc-pvdz upbe1pbe
 --------------------------------
 ------------------------
 theory_abbreviation pbe0
 ------------------------
 Symbolic Z-matrix:
 Charge =  0 Multiplicity = 6
 O                    -0.25905  -0.27529  -0.82406 
 C                    -1.08822  -1.21513  -0.65485 
 C                    -2.97931  -0.15276   0.4843 
 C                    -2.55875   0.968    -0.14905 
 C                    -3.0058    1.30644  -1.54168 
 Fe                    1.45539   0.13651   0.01065 
 Cl                    2.06961   2.01403  -0.90988 
 C                    -1.64675   1.9818    0.46855 
 Cl                    2.64231  -1.62394  -0.528 
 Cl                    1.13493   0.27793   2.18392 
 H                    -3.7106   -0.77121  -0.03445 
 H                    -2.19094   2.92703   0.59955 
 H                    -1.24441   1.68368   1.43565 
 H                    -0.8087    2.20161  -0.20417 
 H                    -3.47965   2.29637  -1.54443 
 H                    -2.14281   1.37628  -2.21707 
 H                    -3.72456   0.58742  -1.94286 
 C                    -2.82586  -0.4324    1.95824 
 H                    -3.61896   0.08309   2.51611 
 H                    -2.92793  -1.49862   2.17791 
 H                    -1.86881  -0.0937    2.36228 
 C                    -0.88489  -2.20949   0.45024 
 H                    -1.7664   -2.82912   0.61814 
 H                    -0.06323  -2.85776   0.11072 
 H                    -0.56112  -1.73676   1.37691 
 C                    -1.85173  -1.68066  -1.86398 
 H                    -1.19169  -2.40349  -2.36516 
 H                    -2.77761  -2.19588  -1.60499 
 H                    -2.03887  -0.86687  -2.56168 
 
                    Distance matrix (angstroms):
                    1          2          3          4          5
     1  O    0.000000
     2  C    1.264702   0.000000
     3  C    3.021032   2.450000   0.000000
     4  C    2.700004   2.680362   1.354290   0.000000
     5  C    3.249843   3.289664   2.496905   1.501266   0.000000
     6  Fe   1.950795   2.956308   4.469293   4.102464   4.866280
     7  Cl   3.266643   4.523758   5.668357   4.805699   5.163297
     8  C    2.948046   3.434289   2.516412   1.496990   2.518760
     9  Cl   3.213154   3.755001   5.898443   5.823461   6.443272
    10  Cl   3.361121   3.902589   4.472265   4.422919   5.664233
    11  H    3.575285   2.731089   1.089204   2.089198   2.661788
    12  H    4.001714   4.466209   3.181185   2.129203   2.806275
    13  H    3.148775   3.577387   2.699531   2.179673   3.479840
    14  H    2.611775   3.457651   3.275457   2.141852   2.723514
    15  H    4.183852   4.340613   3.219368   2.135348   1.097499
    16  H    2.866479   3.204387   3.214818   2.148575   1.098079
    17  H    3.742426   3.443609   2.644683   2.172944   1.092951
    18  C    3.788714   3.234230   1.508059   2.544235   3.912204
    19  H    4.751233   4.259697   2.143140   3.001703   4.282313
    20  H    4.198959   3.389599   2.163857   3.411043   4.659366
    21  H    3.574501   3.312096   2.182542   2.812467   4.300460
    22  C    2.399302   1.500434   2.935621   3.641067   4.563739
    23  H    3.297592   2.164575   2.941420   3.954048   4.827396
    24  H    2.753421   2.082049   3.995007   4.575096   5.360007
    25  H    2.659210   2.162858   3.025462   3.692528   4.873973
    26  C    2.364986   1.503885   3.019992   3.233617   3.218468
    27  H    2.788197   2.085198   4.047313   4.259916   4.211016
    28  H    3.262159   2.172249   2.929185   3.489664   3.510310
    29  H    2.556765   2.158937   3.266856   3.075350   2.588171
                    6          7          8          9         10
     6  Fe   0.000000
     7  Cl   2.179387   0.000000
     8  C    3.638411   3.963884   0.000000
     9  Cl   2.190448   3.702515   5.691256   0.000000
    10  Cl   2.201316   3.668685   3.685566   3.639194   0.000000
    11  H    5.245328   6.475706   3.477296   6.428853   5.431482
    12  H    4.629209   4.611315   1.098532   6.733717   4.537554
    13  H    3.422473   4.073495   1.089052   5.468347   2.863096
    14  H    3.071950   2.969483   1.096903   5.162272   3.630592
    15  H    5.606950   5.592549   2.740542   7.340317   6.266500
    16  H    4.409852   4.456448   2.797364   5.895049   5.596302
    17  H    5.554403   6.055958   3.475123   6.886865   6.382843
    18  C    4.737702   6.178727   3.072110   6.123877   4.030299
    19  H    5.659441   6.915620   3.418668   7.168263   4.769467
    20  H    5.155977   6.844593   4.083705   6.193955   4.434291
    21  H    4.078416   5.537207   2.818370   5.571849   3.031895
    22  C    3.342729   5.330766   4.260007   3.706873   3.643151
    23  H    4.420846   6.364420   4.814730   4.711978   4.530237
    24  H    3.358844   5.415249   5.104594   3.041412   3.945405
    25  H    3.072799   5.120402   3.978865   3.728715   2.754414
    26  C    4.213474   5.471556   4.346995   4.688752   5.398304
    27  H    4.370701   5.680521   5.240964   4.322310   5.770372
    28  H    5.095937   6.457708   4.799104   5.555403   5.981929
    29  H    4.453476   5.282761   4.177433   5.159688   5.822731
                   11         12         13         14         15
    11  H    0.000000
    12  H    4.048251   0.000000
    13  H    3.777538   1.772259   0.000000
    14  H    4.157828   1.755795   1.774011   0.000000
    15  H    3.426873   2.579759   3.775256   2.989861   0.000000
    16  H    3.439987   3.215658   3.774114   2.552012   1.756738
    17  H    2.342672   3.780158   4.332117   3.759108   1.771787
    18  C    2.206434   3.678988   2.692932   3.960173   4.488022
    19  H    2.691388   3.714902   3.060688   4.448112   4.626668
    20  H    2.456869   4.756125   3.675894   4.884374   5.344355
    21  H    3.097659   3.512231   2.099425   3.602628   4.854850
    22  C    3.207523   5.302066   4.032006   4.460025   5.569042
    23  H    2.905302   5.771814   4.615858   5.186674   5.820875
    24  H    4.204530   6.183033   4.875992   5.123676   6.401287
    25  H    3.583772   5.001152   3.488515   4.251096   5.772185
    26  C    2.762196   5.235926   4.751341   4.349129   4.309180
    27  H    3.800191   6.180810   5.581565   5.101317   5.291219
    28  H    2.316625   5.607884   5.162090   5.017647   4.547175
    29  H    3.031625   4.940666   4.807817   4.060383   3.621702
                   16         17         18         19         20
    16  H    0.000000
    17  H    1.788691   0.000000
    18  C    4.601197   4.131130   0.000000
    19  H    5.123898   4.488642   1.098170   0.000000
    20  H    5.310104   4.686883   1.093382   1.758891   0.000000
    21  H    4.817287   4.737286   1.092657   1.765769   1.769044
    22  C    4.642693   4.649013   3.033057   4.122971   2.768425
    23  H    5.085810   4.697431   2.943218   3.938935   2.356319
    24  H    5.260260   5.430634   4.114333   5.203623   3.785101
    25  H    5.010925   5.141009   2.677368   3.736310   2.509995
    26  C    3.091004   2.942437   4.137202   5.041743   4.186672
    27  H    3.900411   3.941992   5.024678   5.991785   4.946992
    28  H    3.679390   2.959326   3.976021   4.783830   3.849555
    29  H    2.271847   2.310728   4.608441   5.402135   4.863454
                   21         22         23         24         25
    21  H    0.000000
    22  C    3.016717   0.000000
    23  H    3.245769   1.090498   0.000000
    24  H    3.996205   1.100294   1.777378   0.000000
    25  H    2.319626   1.089504   1.794898   1.762883   0.000000
    26  C    4.514424   2.563209   2.736272   2.912686   3.488865
    27  H    5.304927   2.838697   3.067823   2.758581   3.852944
    28  H    4.580860   2.794017   2.523068   3.278662   3.743704
    29  H    4.987187   3.493695   3.746454   3.874081   4.295681
                   26         27         28         29
    26  C    0.000000
    27  H    1.099681   0.000000
    28  H    1.090771   1.770904   0.000000
    29  H    1.088144   1.765650   1.796454   0.000000
 Framework group  C1[X(C8H16Cl3FeO)]
 Deg. of freedom    81
                         Standard orientation:                         
 ---------------------------------------------------------------------
 Center     Atomic      Atomic             Coordinates (Angstroms)
 Number     Number       Type             X           Y           Z
 ---------------------------------------------------------------------
      1          8           0       -0.259047   -0.275285   -0.824060
      2          6           0       -1.088220   -1.215131   -0.654849
      3          6           0       -2.979309   -0.152762    0.484297
      4          6           0       -2.558751    0.967997   -0.149053
      5          6           0       -3.005802    1.306436   -1.541678
      6         26           0        1.455390    0.136506    0.010647
      7         17           0        2.069607    2.014029   -0.909881
      8          6           0       -1.646746    1.981801    0.468546
      9         17           0        2.642305   -1.623937   -0.527995
     10         17           0        1.134929    0.277927    2.183916
     11          1           0       -3.710602   -0.771213   -0.034447
     12          1           0       -2.190942    2.927032    0.599548
     13          1           0       -1.244412    1.683683    1.435649
     14          1           0       -0.808695    2.201608   -0.204174
     15          1           0       -3.479648    2.296369   -1.544434
     16          1           0       -2.142812    1.376280   -2.217065
     17          1           0       -3.724560    0.587420   -1.942858
     18          6           0       -2.825855   -0.432404    1.958235
     19          1           0       -3.618964    0.083085    2.516111
     20          1           0       -2.927926   -1.498617    2.177906
     21          1           0       -1.868814   -0.093695    2.362275
     22          6           0       -0.884890   -2.209488    0.450236
     23          1           0       -1.766396   -2.829117    0.618144
     24          1           0       -0.063229   -2.857757    0.110724
     25          1           0       -0.561121   -1.736756    1.376906
     26          6           0       -1.851726   -1.680664   -1.863984
     27          1           0       -1.191688   -2.403487   -2.365157
     28          1           0       -2.777609   -2.195877   -1.604991
     29          1           0       -2.038866   -0.866871   -2.561678
 ---------------------------------------------------------------------
 Rotational constants (GHZ):           0.5733210           0.3312941           0.3119279
   427 basis functions,  1056 primitive gaussians,   461 cartesian basis functions
    77 alpha electrons       72 beta electrons
       nuclear repulsion energy      1635.5284228326 Hartrees.
 NAtoms=   29 NActive=   29 NUniq=   29 SFac= 1.00D+00 NAtFMM=   60 NAOKFM=F Big=F
 ExpMin= 1.40D-02 ExpMax= 4.32D+06 ExpMxC= 4.91D+03 IAcc=3 IRadAn=         5 AccDes= 0.00D+00
 Harris functional with IExCor= 1009 and IRadAn=       5 diagonalized for initial guess.
 HarFok:  IExCor= 1009 AccDes= 0.00D+00 IRadAn=         5 IDoV= 1 UseB2=F ITyADJ=14
 ICtDFT=  3500011 ScaDFX=  1.000000  1.000000  1.000000  1.000000
 FoFCou: FMM=F IPFlag=           0 FMFlag=      100000 FMFlg1=           0
         NFxFlg=           0 DoJE=T BraDBF=F KetDBF=T FulRan=T
         wScrn=  0.000000 ICntrl=       500 IOpCl=  0 I1Cent=   200000004 NGrid=           0
         NMat0=    1 NMatS0=      1 NMatT0=    0 NMatD0=    1 NMtDS0=    0 NMtDT0=    0
 Petite list used in FoFCou.
 Initial guess <Sx>= 0.0000 <Sy>= 0.0000 <Sz>= 2.5000 <S**2>= 8.7500 S= 2.5000
 EnCoef did   100 forward-backward iterations
 Restarting incremental Fock formation.
 SCF Done:  E(UPBE1PBE) =  -3033.12755540     A.U. after   21 cycles
            NFock= 21  Conv=0.67D-08     -V/T= 2.0021
 <Sx>= 0.0000 <Sy>= 0.0000 <Sz>= 2.5000 <S**2>= 8.7627 S= 2.5021
 <L.S>= 0.000000000000E+00
 Annihilation of the first spin contaminant:
 S**2 before annihilation     8.7627,   after     8.7500
 1\1\GINC-HOLY7C04208\SP\UPBE1PBE\Jul-CC-pVDZ\C8H16Cl3Fe1O1(6)\EKWAN\11
 -Feb-2020\0\\#t pop=none jul-cc-pvdz upbe1pbe\\theory_abbreviation pbe
 0\\0,6\O,0,-0.259047,-0.275285,-0.82406\C,0,-1.08822,-1.215131,-0.6548
 49\C,0,-2.979309,-0.152762,0.484297\C,0,-2.558751,0.967997,-0.149053\C
 ,0,-3.005802,1.306436,-1.541678\Fe,0,1.45539,0.136506,0.010647\Cl,0,2.
 069607,2.014029,-0.909881\C,0,-1.646746,1.981801,0.468546\Cl,0,2.64230
 5,-1.623937,-0.527995\Cl,0,1.134929,0.277927,2.183916\H,0,-3.710602,-0
 .771213,-0.034447\H,0,-2.190942,2.927032,0.599548\H,0,-1.244412,1.6836
 83,1.435649\H,0,-0.808695,2.201608,-0.204174\H,0,-3.479648,2.296369,-1
 .544434\H,0,-2.142812,1.37628,-2.217065\H,0,-3.72456,0.58742,-1.942858
 \C,0,-2.825855,-0.432404,1.958235\H,0,-3.618964,0.083085,2.516111\H,0,
 -2.927926,-1.498617,2.177906\H,0,-1.868814,-0.093695,2.362275\C,0,-0.8
 8489,-2.209488,0.450236\H,0,-1.766396,-2.829117,0.618144\H,0,-0.063229
 ,-2.857757,0.110724\H,0,-0.561121,-1.736756,1.376906\C,0,-1.851726,-1.
 680664,-1.863984\H,0,-1.191688,-2.403487,-2.365157\H,0,-2.777609,-2.19
 5877,-1.604991\H,0,-2.038866,-0.866871,-2.561678\\Version=ES64L-G16Rev
 A.03\HF=-3033.1275554\S2=8.762693\S2-1=0.\S2A=8.75005\RMSD=6.673e-09\P
 G=C01 [X(C8H16Cl3Fe1O1)]\\@


 Children are likely to live up to what you believe of them.
 -- Lady Bird Johnson
 Job cpu time:       0 days  1 hours 30 minutes 16.5 seconds.
 Elapsed time:       0 days  0 hours 22 minutes 39.4 seconds.
 File lengths (MBytes):  RWF=    173 Int=      0 D2E=      0 Chk=     13 Scr=      1
 Normal termination of Gaussian 16 at Tue Feb 11 14:00:03 2020.
 Initial command:
 /n/sw/g16_nehalem/g16/l1.exe "/scratch/Gau-270319.inp" -scrdir="/scratch/"
 Entering Link 1 = /n/sw/g16_nehalem/g16/l1.exe PID=    272206.
  
 Copyright (c) 1988,1990,1992,1993,1995,1998,2003,2009,2016,
            Gaussian, Inc.  All Rights Reserved.
  
 This is part of the Gaussian(R) 16 program.  It is based on
 the Gaussian(R) 09 system (copyright 2009, Gaussian, Inc.),
 the Gaussian(R) 03 system (copyright 2003, Gaussian, Inc.),
 the Gaussian(R) 98 system (copyright 1998, Gaussian, Inc.),
 the Gaussian(R) 94 system (copyright 1995, Gaussian, Inc.),
 the Gaussian 92(TM) system (copyright 1992, Gaussian, Inc.),
 the Gaussian 90(TM) system (copyright 1990, Gaussian, Inc.),
 the Gaussian 88(TM) system (copyright 1988, Gaussian, Inc.),
 the Gaussian 86(TM) system (copyright 1986, Carnegie Mellon
 University), and the Gaussian 82(TM) system (copyright 1983,
 Carnegie Mellon University). Gaussian is a federally registered
 trademark of Gaussian, Inc.
  
 This software contains proprietary and confidential information,
 including trade secrets, belonging to Gaussian, Inc.
  
 This software is provided under written license and may be
 used, copied, transmitted, or stored only in accord with that
 written license.
  
 The following legend is applicable only to US Government
 contracts under FAR:
  
                    RESTRICTED RIGHTS LEGEND
  
 Use, reproduction and disclosure by the US Government is
 subject to restrictions as set forth in subparagraphs (a)
 and (c) of the Commercial Computer Software - Restricted
 Rights clause in FAR 52.227-19.
  
 Gaussian, Inc.
 340 Quinnipiac St., Bldg. 40, Wallingford CT 06492
  
  
 ---------------------------------------------------------------
 Warning -- This program may not be used in any manner that
 competes with the business of Gaussian, Inc. or will provide
 assistance to any competitor of Gaussian, Inc.  The licensee
 of this program is prohibited from giving any competitor of
 Gaussian, Inc. access to this program.  By using this program,
 the user acknowledges that Gaussian, Inc. is engaged in the
 business of creating and licensing software in the field of
 computational chemistry and represents and warrants to the
 licensee that it is not a competitor of Gaussian, Inc. and that
 it will not use this program in any manner prohibited above.
 ---------------------------------------------------------------
  

 Cite this work as:
 Gaussian 16, Revision A.03,
 M. J. Frisch, G. W. Trucks, H. B. Schlegel, G. E. Scuseria, 
 M. A. Robb, J. R. Cheeseman, G. Scalmani, V. Barone, 
 G. A. Petersson, H. Nakatsuji, X. Li, M. Caricato, A. V. Marenich, 
 J. Bloino, B. G. Janesko, R. Gomperts, B. Mennucci, H. P. Hratchian, 
 J. V. Ortiz, A. F. Izmaylov, J. L. Sonnenberg, D. Williams-Young, 
 F. Ding, F. Lipparini, F. Egidi, J. Goings, B. Peng, A. Petrone, 
 T. Henderson, D. Ranasinghe, V. G. Zakrzewski, J. Gao, N. Rega, 
 G. Zheng, W. Liang, M. Hada, M. Ehara, K. Toyota, R. Fukuda, 
 J. Hasegawa, M. Ishida, T. Nakajima, Y. Honda, O. Kitao, H. Nakai, 
 T. Vreven, K. Throssell, J. A. Montgomery, Jr., J. E. Peralta, 
 F. Ogliaro, M. J. Bearpark, J. J. Heyd, E. N. Brothers, K. N. Kudin, 
 V. N. Staroverov, T. A. Keith, R. Kobayashi, J. Normand, 
 K. Raghavachari, A. P. Rendell, J. C. Burant, S. S. Iyengar, 
 J. Tomasi, M. Cossi, J. M. Millam, M. Klene, C. Adamo, R. Cammi, 
 J. W. Ochterski, R. L. Martin, K. Morokuma, O. Farkas, 
 J. B. Foresman, and D. J. Fox, Gaussian, Inc., Wallingford CT, 2016.
 
 ******************************************
 Gaussian 16:  ES64L-G16RevA.03 25-Dec-2016
                11-Feb-2020 
 ******************************************
 %chk=checkpoint.chk
 %mem=3GB
 %nprocshared=4
 Will use up to    4 processors via shared memory.
 ---------------------------------------------------------------------
 #t pop=none jul-cc-pvdz guess=read upbe1pbe empiricaldispersion=gd3bj
 ---------------------------------------------------------------------
 -----------------------------
 theory_abbreviation pbe0_d3bj
 -----------------------------
 Symbolic Z-matrix:
 Charge =  0 Multiplicity = 6
 O                    -0.25905  -0.27529  -0.82406 
 C                    -1.08822  -1.21513  -0.65485 
 C                    -2.97931  -0.15276   0.4843 
 C                    -2.55875   0.968    -0.14905 
 C                    -3.0058    1.30644  -1.54168 
 Fe                    1.45539   0.13651   0.01065 
 Cl                    2.06961   2.01403  -0.90988 
 C                    -1.64675   1.9818    0.46855 
 Cl                    2.64231  -1.62394  -0.528 
 Cl                    1.13493   0.27793   2.18392 
 H                    -3.7106   -0.77121  -0.03445 
 H                    -2.19094   2.92703   0.59955 
 H                    -1.24441   1.68368   1.43565 
 H                    -0.8087    2.20161  -0.20417 
 H                    -3.47965   2.29637  -1.54443 
 H                    -2.14281   1.37628  -2.21707 
 H                    -3.72456   0.58742  -1.94286 
 C                    -2.82586  -0.4324    1.95824 
 H                    -3.61896   0.08309   2.51611 
 H                    -2.92793  -1.49862   2.17791 
 H                    -1.86881  -0.0937    2.36228 
 C                    -0.88489  -2.20949   0.45024 
 H                    -1.7664   -2.82912   0.61814 
 H                    -0.06323  -2.85776   0.11072 
 H                    -0.56112  -1.73676   1.37691 
 C                    -1.85173  -1.68066  -1.86398 
 H                    -1.19169  -2.40349  -2.36516 
 H                    -2.77761  -2.19588  -1.60499 
 H                    -2.03887  -0.86687  -2.56168 
 
                    Distance matrix (angstroms):
                    1          2          3          4          5
     1  O    0.000000
     2  C    1.264702   0.000000
     3  C    3.021032   2.450000   0.000000
     4  C    2.700004   2.680362   1.354290   0.000000
     5  C    3.249843   3.289664   2.496905   1.501266   0.000000
     6  Fe   1.950795   2.956308   4.469293   4.102464   4.866280
     7  Cl   3.266643   4.523758   5.668357   4.805699   5.163297
     8  C    2.948046   3.434289   2.516412   1.496990   2.518760
     9  Cl   3.213154   3.755001   5.898443   5.823461   6.443272
    10  Cl   3.361121   3.902589   4.472265   4.422919   5.664233
    11  H    3.575285   2.731089   1.089204   2.089198   2.661788
    12  H    4.001714   4.466209   3.181185   2.129203   2.806275
    13  H    3.148775   3.577387   2.699531   2.179673   3.479840
    14  H    2.611775   3.457651   3.275457   2.141852   2.723514
    15  H    4.183852   4.340613   3.219368   2.135348   1.097499
    16  H    2.866479   3.204387   3.214818   2.148575   1.098079
    17  H    3.742426   3.443609   2.644683   2.172944   1.092951
    18  C    3.788714   3.234230   1.508059   2.544235   3.912204
    19  H    4.751233   4.259697   2.143140   3.001703   4.282313
    20  H    4.198959   3.389599   2.163857   3.411043   4.659366
    21  H    3.574501   3.312096   2.182542   2.812467   4.300460
    22  C    2.399302   1.500434   2.935621   3.641067   4.563739
    23  H    3.297592   2.164575   2.941420   3.954048   4.827396
    24  H    2.753421   2.082049   3.995007   4.575096   5.360007
    25  H    2.659210   2.162858   3.025462   3.692528   4.873973
    26  C    2.364986   1.503885   3.019992   3.233617   3.218468
    27  H    2.788197   2.085198   4.047313   4.259916   4.211016
    28  H    3.262159   2.172249   2.929185   3.489664   3.510310
    29  H    2.556765   2.158937   3.266856   3.075350   2.588171
                    6          7          8          9         10
     6  Fe   0.000000
     7  Cl   2.179387   0.000000
     8  C    3.638411   3.963884   0.000000
     9  Cl   2.190448   3.702515   5.691256   0.000000
    10  Cl   2.201316   3.668685   3.685566   3.639194   0.000000
    11  H    5.245328   6.475706   3.477296   6.428853   5.431482
    12  H    4.629209   4.611315   1.098532   6.733717   4.537554
    13  H    3.422473   4.073495   1.089052   5.468347   2.863096
    14  H    3.071950   2.969483   1.096903   5.162272   3.630592
    15  H    5.606950   5.592549   2.740542   7.340317   6.266500
    16  H    4.409852   4.456448   2.797364   5.895049   5.596302
    17  H    5.554403   6.055958   3.475123   6.886865   6.382843
    18  C    4.737702   6.178727   3.072110   6.123877   4.030299
    19  H    5.659441   6.915620   3.418668   7.168263   4.769467
    20  H    5.155977   6.844593   4.083705   6.193955   4.434291
    21  H    4.078416   5.537207   2.818370   5.571849   3.031895
    22  C    3.342729   5.330766   4.260007   3.706873   3.643151
    23  H    4.420846   6.364420   4.814730   4.711978   4.530237
    24  H    3.358844   5.415249   5.104594   3.041412   3.945405
    25  H    3.072799   5.120402   3.978865   3.728715   2.754414
    26  C    4.213474   5.471556   4.346995   4.688752   5.398304
    27  H    4.370701   5.680521   5.240964   4.322310   5.770372
    28  H    5.095937   6.457708   4.799104   5.555403   5.981929
    29  H    4.453476   5.282761   4.177433   5.159688   5.822731
                   11         12         13         14         15
    11  H    0.000000
    12  H    4.048251   0.000000
    13  H    3.777538   1.772259   0.000000
    14  H    4.157828   1.755795   1.774011   0.000000
    15  H    3.426873   2.579759   3.775256   2.989861   0.000000
    16  H    3.439987   3.215658   3.774114   2.552012   1.756738
    17  H    2.342672   3.780158   4.332117   3.759108   1.771787
    18  C    2.206434   3.678988   2.692932   3.960173   4.488022
    19  H    2.691388   3.714902   3.060688   4.448112   4.626668
    20  H    2.456869   4.756125   3.675894   4.884374   5.344355
    21  H    3.097659   3.512231   2.099425   3.602628   4.854850
    22  C    3.207523   5.302066   4.032006   4.460025   5.569042
    23  H    2.905302   5.771814   4.615858   5.186674   5.820875
    24  H    4.204530   6.183033   4.875992   5.123676   6.401287
    25  H    3.583772   5.001152   3.488515   4.251096   5.772185
    26  C    2.762196   5.235926   4.751341   4.349129   4.309180
    27  H    3.800191   6.180810   5.581565   5.101317   5.291219
    28  H    2.316625   5.607884   5.162090   5.017647   4.547175
    29  H    3.031625   4.940666   4.807817   4.060383   3.621702
                   16         17         18         19         20
    16  H    0.000000
    17  H    1.788691   0.000000
    18  C    4.601197   4.131130   0.000000
    19  H    5.123898   4.488642   1.098170   0.000000
    20  H    5.310104   4.686883   1.093382   1.758891   0.000000
    21  H    4.817287   4.737286   1.092657   1.765769   1.769044
    22  C    4.642693   4.649013   3.033057   4.122971   2.768425
    23  H    5.085810   4.697431   2.943218   3.938935   2.356319
    24  H    5.260260   5.430634   4.114333   5.203623   3.785101
    25  H    5.010925   5.141009   2.677368   3.736310   2.509995
    26  C    3.091004   2.942437   4.137202   5.041743   4.186672
    27  H    3.900411   3.941992   5.024678   5.991785   4.946992
    28  H    3.679390   2.959326   3.976021   4.783830   3.849555
    29  H    2.271847   2.310728   4.608441   5.402135   4.863454
                   21         22         23         24         25
    21  H    0.000000
    22  C    3.016717   0.000000
    23  H    3.245769   1.090498   0.000000
    24  H    3.996205   1.100294   1.777378   0.000000
    25  H    2.319626   1.089504   1.794898   1.762883   0.000000
    26  C    4.514424   2.563209   2.736272   2.912686   3.488865
    27  H    5.304927   2.838697   3.067823   2.758581   3.852944
    28  H    4.580860   2.794017   2.523068   3.278662   3.743704
    29  H    4.987187   3.493695   3.746454   3.874081   4.295681
                   26         27         28         29
    26  C    0.000000
    27  H    1.099681   0.000000
    28  H    1.090771   1.770904   0.000000
    29  H    1.088144   1.765650   1.796454   0.000000
 Framework group  C1[X(C8H16Cl3FeO)]
 Deg. of freedom    81
                         Standard orientation:                         
 ---------------------------------------------------------------------
 Center     Atomic      Atomic             Coordinates (Angstroms)
 Number     Number       Type             X           Y           Z
 ---------------------------------------------------------------------
      1          8           0       -0.259047   -0.275285   -0.824060
      2          6           0       -1.088220   -1.215131   -0.654849
      3          6           0       -2.979309   -0.152762    0.484297
      4          6           0       -2.558751    0.967997   -0.149053
      5          6           0       -3.005802    1.306436   -1.541678
      6         26           0        1.455390    0.136506    0.010647
      7         17           0        2.069607    2.014029   -0.909881
      8          6           0       -1.646746    1.981801    0.468546
      9         17           0        2.642305   -1.623937   -0.527995
     10         17           0        1.134929    0.277927    2.183916
     11          1           0       -3.710602   -0.771213   -0.034447
     12          1           0       -2.190942    2.927032    0.599548
     13          1           0       -1.244412    1.683683    1.435649
     14          1           0       -0.808695    2.201608   -0.204174
     15          1           0       -3.479648    2.296369   -1.544434
     16          1           0       -2.142812    1.376280   -2.217065
     17          1           0       -3.724560    0.587420   -1.942858
     18          6           0       -2.825855   -0.432404    1.958235
     19          1           0       -3.618964    0.083085    2.516111
     20          1           0       -2.927926   -1.498617    2.177906
     21          1           0       -1.868814   -0.093695    2.362275
     22          6           0       -0.884890   -2.209488    0.450236
     23          1           0       -1.766396   -2.829117    0.618144
     24          1           0       -0.063229   -2.857757    0.110724
     25          1           0       -0.561121   -1.736756    1.376906
     26          6           0       -1.851726   -1.680664   -1.863984
     27          1           0       -1.191688   -2.403487   -2.365157
     28          1           0       -2.777609   -2.195877   -1.604991
     29          1           0       -2.038866   -0.866871   -2.561678
 ---------------------------------------------------------------------
 Rotational constants (GHZ):           0.5733210           0.3312941           0.3119279
   427 basis functions,  1056 primitive gaussians,   461 cartesian basis functions
    77 alpha electrons       72 beta electrons
       nuclear repulsion energy      1635.5284228326 Hartrees.
 NAtoms=   29 NActive=   29 NUniq=   29 SFac= 1.00D+00 NAtFMM=   60 NAOKFM=F Big=F
 Nuclear repulsion after empirical dispersion term =     1635.4911202768 Hartrees.
 Initial guess from the checkpoint file:  "checkpoint.chk"
 B after Tr=     0.000000    0.000000    0.000000
         Rot=    1.000000    0.000000    0.000000    0.000000 Ang=   0.00 deg.
 Initial guess <Sx>= 0.0000 <Sy>= 0.0000 <Sz>= 2.5000 <S**2>= 8.7627 S= 2.5021
 SCF Done:  E(UPBE1PBE) =  -3033.16485795     A.U. after    1 cycles
            NFock=  1  Conv=0.28D-08     -V/T= 2.0021
 <Sx>= 0.0000 <Sy>= 0.0000 <Sz>= 2.5000 <S**2>= 8.7627 S= 2.5021
 <L.S>= 0.000000000000E+00
 Annihilation of the first spin contaminant:
 S**2 before annihilation     8.7627,   after     8.7500
 1\1\GINC-HOLY7C04208\SP\UPBE1PBE\Jul-CC-pVDZ\C8H16Cl3Fe1O1(6)\EKWAN\11
 -Feb-2020\0\\#t pop=none jul-cc-pvdz guess=read upbe1pbe empiricaldisp
 ersion=gd3bj\\theory_abbreviation pbe0_d3bj\\0,6\O,0,-0.259047,-0.2752
 85,-0.82406\C,0,-1.08822,-1.215131,-0.654849\C,0,-2.979309,-0.152762,0
 .484297\C,0,-2.558751,0.967997,-0.149053\C,0,-3.005802,1.306436,-1.541
 678\Fe,0,1.45539,0.136506,0.010647\Cl,0,2.069607,2.014029,-0.909881\C,
 0,-1.646746,1.981801,0.468546\Cl,0,2.642305,-1.623937,-0.527995\Cl,0,1
 .134929,0.277927,2.183916\H,0,-3.710602,-0.771213,-0.034447\H,0,-2.190
 942,2.927032,0.599548\H,0,-1.244412,1.683683,1.435649\H,0,-0.808695,2.
 201608,-0.204174\H,0,-3.479648,2.296369,-1.544434\H,0,-2.142812,1.3762
 8,-2.217065\H,0,-3.72456,0.58742,-1.942858\C,0,-2.825855,-0.432404,1.9
 58235\H,0,-3.618964,0.083085,2.516111\H,0,-2.927926,-1.498617,2.177906
 \H,0,-1.868814,-0.093695,2.362275\C,0,-0.88489,-2.209488,0.450236\H,0,
 -1.766396,-2.829117,0.618144\H,0,-0.063229,-2.857757,0.110724\H,0,-0.5
 61121,-1.736756,1.376906\C,0,-1.851726,-1.680664,-1.863984\H,0,-1.1916
 88,-2.403487,-2.365157\H,0,-2.777609,-2.195877,-1.604991\H,0,-2.038866
 ,-0.866871,-2.561678\\Version=ES64L-G16RevA.03\HF=-3033.164858\S2=8.76
 2693\S2-1=0.\S2A=8.75005\RMSD=2.813e-09\PG=C01 [X(C8H16Cl3Fe1O1)]\\@


 TOM, TOM, THE BURGLAR'S SON
 STOLE A MACHINE AND AWAY HE RUN
 THE JOB WAS NEAT, BUT TOM GOT BEAT
 BY THE TIME HE GOT HOME IT WAS OBSOLETE.
 Job cpu time:       0 days  0 hours  4 minutes 40.0 seconds.
 Elapsed time:       0 days  0 hours  1 minutes 10.9 seconds.
 File lengths (MBytes):  RWF=    170 Int=      0 D2E=      0 Chk=     13 Scr=      1
 Normal termination of Gaussian 16 at Tue Feb 11 14:01:14 2020.
 Initial command:
 /n/sw/g16_nehalem/g16/l1.exe "/scratch/Gau-270319.inp" -scrdir="/scratch/"
 Entering Link 1 = /n/sw/g16_nehalem/g16/l1.exe PID=    272605.
  
 Copyright (c) 1988,1990,1992,1993,1995,1998,2003,2009,2016,
            Gaussian, Inc.  All Rights Reserved.
  
 This is part of the Gaussian(R) 16 program.  It is based on
 the Gaussian(R) 09 system (copyright 2009, Gaussian, Inc.),
 the Gaussian(R) 03 system (copyright 2003, Gaussian, Inc.),
 the Gaussian(R) 98 system (copyright 1998, Gaussian, Inc.),
 the Gaussian(R) 94 system (copyright 1995, Gaussian, Inc.),
 the Gaussian 92(TM) system (copyright 1992, Gaussian, Inc.),
 the Gaussian 90(TM) system (copyright 1990, Gaussian, Inc.),
 the Gaussian 88(TM) system (copyright 1988, Gaussian, Inc.),
 the Gaussian 86(TM) system (copyright 1986, Carnegie Mellon
 University), and the Gaussian 82(TM) system (copyright 1983,
 Carnegie Mellon University). Gaussian is a federally registered
 trademark of Gaussian, Inc.
  
 This software contains proprietary and confidential information,
 including trade secrets, belonging to Gaussian, Inc.
  
 This software is provided under written license and may be
 used, copied, transmitted, or stored only in accord with that
 written license.
  
 The following legend is applicable only to US Government
 contracts under FAR:
  
                    RESTRICTED RIGHTS LEGEND
  
 Use, reproduction and disclosure by the US Government is
 subject to restrictions as set forth in subparagraphs (a)
 and (c) of the Commercial Computer Software - Restricted
 Rights clause in FAR 52.227-19.
  
 Gaussian, Inc.
 340 Quinnipiac St., Bldg. 40, Wallingford CT 06492
  
  
 ---------------------------------------------------------------
 Warning -- This program may not be used in any manner that
 competes with the business of Gaussian, Inc. or will provide
 assistance to any competitor of Gaussian, Inc.  The licensee
 of this program is prohibited from giving any competitor of
 Gaussian, Inc. access to this program.  By using this program,
 the user acknowledges that Gaussian, Inc. is engaged in the
 business of creating and licensing software in the field of
 computational chemistry and represents and warrants to the
 licensee that it is not a competitor of Gaussian, Inc. and that
 it will not use this program in any manner prohibited above.
 ---------------------------------------------------------------
  

 Cite this work as:
 Gaussian 16, Revision A.03,
 M. J. Frisch, G. W. Trucks, H. B. Schlegel, G. E. Scuseria, 
 M. A. Robb, J. R. Cheeseman, G. Scalmani, V. Barone, 
 G. A. Petersson, H. Nakatsuji, X. Li, M. Caricato, A. V. Marenich, 
 J. Bloino, B. G. Janesko, R. Gomperts, B. Mennucci, H. P. Hratchian, 
 J. V. Ortiz, A. F. Izmaylov, J. L. Sonnenberg, D. Williams-Young, 
 F. Ding, F. Lipparini, F. Egidi, J. Goings, B. Peng, A. Petrone, 
 T. Henderson, D. Ranasinghe, V. G. Zakrzewski, J. Gao, N. Rega, 
 G. Zheng, W. Liang, M. Hada, M. Ehara, K. Toyota, R. Fukuda, 
 J. Hasegawa, M. Ishida, T. Nakajima, Y. Honda, O. Kitao, H. Nakai, 
 T. Vreven, K. Throssell, J. A. Montgomery, Jr., J. E. Peralta, 
 F. Ogliaro, M. J. Bearpark, J. J. Heyd, E. N. Brothers, K. N. Kudin, 
 V. N. Staroverov, T. A. Keith, R. Kobayashi, J. Normand, 
 K. Raghavachari, A. P. Rendell, J. C. Burant, S. S. Iyengar, 
 J. Tomasi, M. Cossi, J. M. Millam, M. Klene, C. Adamo, R. Cammi, 
 J. W. Ochterski, R. L. Martin, K. Morokuma, O. Farkas, 
 J. B. Foresman, and D. J. Fox, Gaussian, Inc., Wallingford CT, 2016.
 
 ******************************************
 Gaussian 16:  ES64L-G16RevA.03 25-Dec-2016
                11-Feb-2020 
 ******************************************
 %chk=checkpoint.chk
 %mem=3GB
 %nprocshared=4
 Will use up to    4 processors via shared memory.
 -----------------------------------------
 #t pop=none jul-cc-pvdz guess=read ub3lyp
 -----------------------------------------
 -------------------------
 theory_abbreviation b3lyp
 -------------------------
 Symbolic Z-matrix:
 Charge =  0 Multiplicity = 6
 O                    -0.25905  -0.27529  -0.82406 
 C                    -1.08822  -1.21513  -0.65485 
 C                    -2.97931  -0.15276   0.4843 
 C                    -2.55875   0.968    -0.14905 
 C                    -3.0058    1.30644  -1.54168 
 Fe                    1.45539   0.13651   0.01065 
 Cl                    2.06961   2.01403  -0.90988 
 C                    -1.64675   1.9818    0.46855 
 Cl                    2.64231  -1.62394  -0.528 
 Cl                    1.13493   0.27793   2.18392 
 H                    -3.7106   -0.77121  -0.03445 
 H                    -2.19094   2.92703   0.59955 
 H                    -1.24441   1.68368   1.43565 
 H                    -0.8087    2.20161  -0.20417 
 H                    -3.47965   2.29637  -1.54443 
 H                    -2.14281   1.37628  -2.21707 
 H                    -3.72456   0.58742  -1.94286 
 C                    -2.82586  -0.4324    1.95824 
 H                    -3.61896   0.08309   2.51611 
 H                    -2.92793  -1.49862   2.17791 
 H                    -1.86881  -0.0937    2.36228 
 C                    -0.88489  -2.20949   0.45024 
 H                    -1.7664   -2.82912   0.61814 
 H                    -0.06323  -2.85776   0.11072 
 H                    -0.56112  -1.73676   1.37691 
 C                    -1.85173  -1.68066  -1.86398 
 H                    -1.19169  -2.40349  -2.36516 
 H                    -2.77761  -2.19588  -1.60499 
 H                    -2.03887  -0.86687  -2.56168 
 
                    Distance matrix (angstroms):
                    1          2          3          4          5
     1  O    0.000000
     2  C    1.264702   0.000000
     3  C    3.021032   2.450000   0.000000
     4  C    2.700004   2.680362   1.354290   0.000000
     5  C    3.249843   3.289664   2.496905   1.501266   0.000000
     6  Fe   1.950795   2.956308   4.469293   4.102464   4.866280
     7  Cl   3.266643   4.523758   5.668357   4.805699   5.163297
     8  C    2.948046   3.434289   2.516412   1.496990   2.518760
     9  Cl   3.213154   3.755001   5.898443   5.823461   6.443272
    10  Cl   3.361121   3.902589   4.472265   4.422919   5.664233
    11  H    3.575285   2.731089   1.089204   2.089198   2.661788
    12  H    4.001714   4.466209   3.181185   2.129203   2.806275
    13  H    3.148775   3.577387   2.699531   2.179673   3.479840
    14  H    2.611775   3.457651   3.275457   2.141852   2.723514
    15  H    4.183852   4.340613   3.219368   2.135348   1.097499
    16  H    2.866479   3.204387   3.214818   2.148575   1.098079
    17  H    3.742426   3.443609   2.644683   2.172944   1.092951
    18  C    3.788714   3.234230   1.508059   2.544235   3.912204
    19  H    4.751233   4.259697   2.143140   3.001703   4.282313
    20  H    4.198959   3.389599   2.163857   3.411043   4.659366
    21  H    3.574501   3.312096   2.182542   2.812467   4.300460
    22  C    2.399302   1.500434   2.935621   3.641067   4.563739
    23  H    3.297592   2.164575   2.941420   3.954048   4.827396
    24  H    2.753421   2.082049   3.995007   4.575096   5.360007
    25  H    2.659210   2.162858   3.025462   3.692528   4.873973
    26  C    2.364986   1.503885   3.019992   3.233617   3.218468
    27  H    2.788197   2.085198   4.047313   4.259916   4.211016
    28  H    3.262159   2.172249   2.929185   3.489664   3.510310
    29  H    2.556765   2.158937   3.266856   3.075350   2.588171
                    6          7          8          9         10
     6  Fe   0.000000
     7  Cl   2.179387   0.000000
     8  C    3.638411   3.963884   0.000000
     9  Cl   2.190448   3.702515   5.691256   0.000000
    10  Cl   2.201316   3.668685   3.685566   3.639194   0.000000
    11  H    5.245328   6.475706   3.477296   6.428853   5.431482
    12  H    4.629209   4.611315   1.098532   6.733717   4.537554
    13  H    3.422473   4.073495   1.089052   5.468347   2.863096
    14  H    3.071950   2.969483   1.096903   5.162272   3.630592
    15  H    5.606950   5.592549   2.740542   7.340317   6.266500
    16  H    4.409852   4.456448   2.797364   5.895049   5.596302
    17  H    5.554403   6.055958   3.475123   6.886865   6.382843
    18  C    4.737702   6.178727   3.072110   6.123877   4.030299
    19  H    5.659441   6.915620   3.418668   7.168263   4.769467
    20  H    5.155977   6.844593   4.083705   6.193955   4.434291
    21  H    4.078416   5.537207   2.818370   5.571849   3.031895
    22  C    3.342729   5.330766   4.260007   3.706873   3.643151
    23  H    4.420846   6.364420   4.814730   4.711978   4.530237
    24  H    3.358844   5.415249   5.104594   3.041412   3.945405
    25  H    3.072799   5.120402   3.978865   3.728715   2.754414
    26  C    4.213474   5.471556   4.346995   4.688752   5.398304
    27  H    4.370701   5.680521   5.240964   4.322310   5.770372
    28  H    5.095937   6.457708   4.799104   5.555403   5.981929
    29  H    4.453476   5.282761   4.177433   5.159688   5.822731
                   11         12         13         14         15
    11  H    0.000000
    12  H    4.048251   0.000000
    13  H    3.777538   1.772259   0.000000
    14  H    4.157828   1.755795   1.774011   0.000000
    15  H    3.426873   2.579759   3.775256   2.989861   0.000000
    16  H    3.439987   3.215658   3.774114   2.552012   1.756738
    17  H    2.342672   3.780158   4.332117   3.759108   1.771787
    18  C    2.206434   3.678988   2.692932   3.960173   4.488022
    19  H    2.691388   3.714902   3.060688   4.448112   4.626668
    20  H    2.456869   4.756125   3.675894   4.884374   5.344355
    21  H    3.097659   3.512231   2.099425   3.602628   4.854850
    22  C    3.207523   5.302066   4.032006   4.460025   5.569042
    23  H    2.905302   5.771814   4.615858   5.186674   5.820875
    24  H    4.204530   6.183033   4.875992   5.123676   6.401287
    25  H    3.583772   5.001152   3.488515   4.251096   5.772185
    26  C    2.762196   5.235926   4.751341   4.349129   4.309180
    27  H    3.800191   6.180810   5.581565   5.101317   5.291219
    28  H    2.316625   5.607884   5.162090   5.017647   4.547175
    29  H    3.031625   4.940666   4.807817   4.060383   3.621702
                   16         17         18         19         20
    16  H    0.000000
    17  H    1.788691   0.000000
    18  C    4.601197   4.131130   0.000000
    19  H    5.123898   4.488642   1.098170   0.000000
    20  H    5.310104   4.686883   1.093382   1.758891   0.000000
    21  H    4.817287   4.737286   1.092657   1.765769   1.769044
    22  C    4.642693   4.649013   3.033057   4.122971   2.768425
    23  H    5.085810   4.697431   2.943218   3.938935   2.356319
    24  H    5.260260   5.430634   4.114333   5.203623   3.785101
    25  H    5.010925   5.141009   2.677368   3.736310   2.509995
    26  C    3.091004   2.942437   4.137202   5.041743   4.186672
    27  H    3.900411   3.941992   5.024678   5.991785   4.946992
    28  H    3.679390   2.959326   3.976021   4.783830   3.849555
    29  H    2.271847   2.310728   4.608441   5.402135   4.863454
                   21         22         23         24         25
    21  H    0.000000
    22  C    3.016717   0.000000
    23  H    3.245769   1.090498   0.000000
    24  H    3.996205   1.100294   1.777378   0.000000
    25  H    2.319626   1.089504   1.794898   1.762883   0.000000
    26  C    4.514424   2.563209   2.736272   2.912686   3.488865
    27  H    5.304927   2.838697   3.067823   2.758581   3.852944
    28  H    4.580860   2.794017   2.523068   3.278662   3.743704
    29  H    4.987187   3.493695   3.746454   3.874081   4.295681
                   26         27         28         29
    26  C    0.000000
    27  H    1.099681   0.000000
    28  H    1.090771   1.770904   0.000000
    29  H    1.088144   1.765650   1.796454   0.000000
 Framework group  C1[X(C8H16Cl3FeO)]
 Deg. of freedom    81
                         Standard orientation:                         
 ---------------------------------------------------------------------
 Center     Atomic      Atomic             Coordinates (Angstroms)
 Number     Number       Type             X           Y           Z
 ---------------------------------------------------------------------
      1          8           0       -0.259047   -0.275285   -0.824060
      2          6           0       -1.088220   -1.215131   -0.654849
      3          6           0       -2.979309   -0.152762    0.484297
      4          6           0       -2.558751    0.967997   -0.149053
      5          6           0       -3.005802    1.306436   -1.541678
      6         26           0        1.455390    0.136506    0.010647
      7         17           0        2.069607    2.014029   -0.909881
      8          6           0       -1.646746    1.981801    0.468546
      9         17           0        2.642305   -1.623937   -0.527995
     10         17           0        1.134929    0.277927    2.183916
     11          1           0       -3.710602   -0.771213   -0.034447
     12          1           0       -2.190942    2.927032    0.599548
     13          1           0       -1.244412    1.683683    1.435649
     14          1           0       -0.808695    2.201608   -0.204174
     15          1           0       -3.479648    2.296369   -1.544434
     16          1           0       -2.142812    1.376280   -2.217065
     17          1           0       -3.724560    0.587420   -1.942858
     18          6           0       -2.825855   -0.432404    1.958235
     19          1           0       -3.618964    0.083085    2.516111
     20          1           0       -2.927926   -1.498617    2.177906
     21          1           0       -1.868814   -0.093695    2.362275
     22          6           0       -0.884890   -2.209488    0.450236
     23          1           0       -1.766396   -2.829117    0.618144
     24          1           0       -0.063229   -2.857757    0.110724
     25          1           0       -0.561121   -1.736756    1.376906
     26          6           0       -1.851726   -1.680664   -1.863984
     27          1           0       -1.191688   -2.403487   -2.365157
     28          1           0       -2.777609   -2.195877   -1.604991
     29          1           0       -2.038866   -0.866871   -2.561678
 ---------------------------------------------------------------------
 Rotational constants (GHZ):           0.5733210           0.3312941           0.3119279
   427 basis functions,  1056 primitive gaussians,   461 cartesian basis functions
    77 alpha electrons       72 beta electrons
       nuclear repulsion energy      1635.5284228326 Hartrees.
 NAtoms=   29 NActive=   29 NUniq=   29 SFac= 1.00D+00 NAtFMM=   60 NAOKFM=F Big=F
 Initial guess from the checkpoint file:  "checkpoint.chk"
 B after Tr=     0.000000    0.000000    0.000000
         Rot=    1.000000    0.000000    0.000000    0.000000 Ang=   0.00 deg.
 Initial guess <Sx>= 0.0000 <Sy>= 0.0000 <Sz>= 2.5000 <S**2>= 8.7627 S= 2.5021
 SCF Done:  E(UB3LYP) =  -3034.34426231     A.U. after   13 cycles
            NFock= 13  Conv=0.70D-08     -V/T= 2.0024
 <Sx>= 0.0000 <Sy>= 0.0000 <Sz>= 2.5000 <S**2>= 8.7620 S= 2.5020
 <L.S>= 0.000000000000E+00
 Annihilation of the first spin contaminant:
 S**2 before annihilation     8.7620,   after     8.7500
 1\1\GINC-HOLY7C04208\SP\UB3LYP\Jul-CC-pVDZ\C8H16Cl3Fe1O1(6)\EKWAN\11-F
 eb-2020\0\\#t pop=none jul-cc-pvdz guess=read ub3lyp\\theory_abbreviat
 ion b3lyp\\0,6\O,0,-0.259047,-0.275285,-0.82406\C,0,-1.08822,-1.215131
 ,-0.654849\C,0,-2.979309,-0.152762,0.484297\C,0,-2.558751,0.967997,-0.
 149053\C,0,-3.005802,1.306436,-1.541678\Fe,0,1.45539,0.136506,0.010647
 \Cl,0,2.069607,2.014029,-0.909881\C,0,-1.646746,1.981801,0.468546\Cl,0
 ,2.642305,-1.623937,-0.527995\Cl,0,1.134929,0.277927,2.183916\H,0,-3.7
 10602,-0.771213,-0.034447\H,0,-2.190942,2.927032,0.599548\H,0,-1.24441
 2,1.683683,1.435649\H,0,-0.808695,2.201608,-0.204174\H,0,-3.479648,2.2
 96369,-1.544434\H,0,-2.142812,1.37628,-2.217065\H,0,-3.72456,0.58742,-
 1.942858\C,0,-2.825855,-0.432404,1.958235\H,0,-3.618964,0.083085,2.516
 111\H,0,-2.927926,-1.498617,2.177906\H,0,-1.868814,-0.093695,2.362275\
 C,0,-0.88489,-2.209488,0.450236\H,0,-1.766396,-2.829117,0.618144\H,0,-
 0.063229,-2.857757,0.110724\H,0,-0.561121,-1.736756,1.376906\C,0,-1.85
 1726,-1.680664,-1.863984\H,0,-1.191688,-2.403487,-2.365157\H,0,-2.7776
 09,-2.195877,-1.604991\H,0,-2.038866,-0.866871,-2.561678\\Version=ES64
 L-G16RevA.03\HF=-3034.3442623\S2=8.761971\S2-1=0.\S2A=8.750044\RMSD=6.
 968e-09\PG=C01 [X(C8H16Cl3Fe1O1)]\\@


 WERE I TO AWAIT PERFECTION, MY BOOK WOULD NEVER BE FINISHED.
                                    -- HISTORY OF CHINESE WRITING

                                       TAI T'UNG, 13TH CENTURY
 Job cpu time:       0 days  0 hours 55 minutes  9.9 seconds.
 Elapsed time:       0 days  0 hours 13 minutes 50.1 seconds.
 File lengths (MBytes):  RWF=    174 Int=      0 D2E=      0 Chk=     13 Scr=      1
 Normal termination of Gaussian 16 at Tue Feb 11 14:15:05 2020.
 Initial command:
 /n/sw/g16_nehalem/g16/l1.exe "/scratch/Gau-270319.inp" -scrdir="/scratch/"
 Entering Link 1 = /n/sw/g16_nehalem/g16/l1.exe PID=    273813.
  
 Copyright (c) 1988,1990,1992,1993,1995,1998,2003,2009,2016,
            Gaussian, Inc.  All Rights Reserved.
  
 This is part of the Gaussian(R) 16 program.  It is based on
 the Gaussian(R) 09 system (copyright 2009, Gaussian, Inc.),
 the Gaussian(R) 03 system (copyright 2003, Gaussian, Inc.),
 the Gaussian(R) 98 system (copyright 1998, Gaussian, Inc.),
 the Gaussian(R) 94 system (copyright 1995, Gaussian, Inc.),
 the Gaussian 92(TM) system (copyright 1992, Gaussian, Inc.),
 the Gaussian 90(TM) system (copyright 1990, Gaussian, Inc.),
 the Gaussian 88(TM) system (copyright 1988, Gaussian, Inc.),
 the Gaussian 86(TM) system (copyright 1986, Carnegie Mellon
 University), and the Gaussian 82(TM) system (copyright 1983,
 Carnegie Mellon University). Gaussian is a federally registered
 trademark of Gaussian, Inc.
  
 This software contains proprietary and confidential information,
 including trade secrets, belonging to Gaussian, Inc.
  
 This software is provided under written license and may be
 used, copied, transmitted, or stored only in accord with that
 written license.
  
 The following legend is applicable only to US Government
 contracts under FAR:
  
                    RESTRICTED RIGHTS LEGEND
  
 Use, reproduction and disclosure by the US Government is
 subject to restrictions as set forth in subparagraphs (a)
 and (c) of the Commercial Computer Software - Restricted
 Rights clause in FAR 52.227-19.
  
 Gaussian, Inc.
 340 Quinnipiac St., Bldg. 40, Wallingford CT 06492
  
  
 ---------------------------------------------------------------
 Warning -- This program may not be used in any manner that
 competes with the business of Gaussian, Inc. or will provide
 assistance to any competitor of Gaussian, Inc.  The licensee
 of this program is prohibited from giving any competitor of
 Gaussian, Inc. access to this program.  By using this program,
 the user acknowledges that Gaussian, Inc. is engaged in the
 business of creating and licensing software in the field of
 computational chemistry and represents and warrants to the
 licensee that it is not a competitor of Gaussian, Inc. and that
 it will not use this program in any manner prohibited above.
 ---------------------------------------------------------------
  

 Cite this work as:
 Gaussian 16, Revision A.03,
 M. J. Frisch, G. W. Trucks, H. B. Schlegel, G. E. Scuseria, 
 M. A. Robb, J. R. Cheeseman, G. Scalmani, V. Barone, 
 G. A. Petersson, H. Nakatsuji, X. Li, M. Caricato, A. V. Marenich, 
 J. Bloino, B. G. Janesko, R. Gomperts, B. Mennucci, H. P. Hratchian, 
 J. V. Ortiz, A. F. Izmaylov, J. L. Sonnenberg, D. Williams-Young, 
 F. Ding, F. Lipparini, F. Egidi, J. Goings, B. Peng, A. Petrone, 
 T. Henderson, D. Ranasinghe, V. G. Zakrzewski, J. Gao, N. Rega, 
 G. Zheng, W. Liang, M. Hada, M. Ehara, K. Toyota, R. Fukuda, 
 J. Hasegawa, M. Ishida, T. Nakajima, Y. Honda, O. Kitao, H. Nakai, 
 T. Vreven, K. Throssell, J. A. Montgomery, Jr., J. E. Peralta, 
 F. Ogliaro, M. J. Bearpark, J. J. Heyd, E. N. Brothers, K. N. Kudin, 
 V. N. Staroverov, T. A. Keith, R. Kobayashi, J. Normand, 
 K. Raghavachari, A. P. Rendell, J. C. Burant, S. S. Iyengar, 
 J. Tomasi, M. Cossi, J. M. Millam, M. Klene, C. Adamo, R. Cammi, 
 J. W. Ochterski, R. L. Martin, K. Morokuma, O. Farkas, 
 J. B. Foresman, and D. J. Fox, Gaussian, Inc., Wallingford CT, 2016.
 
 ******************************************
 Gaussian 16:  ES64L-G16RevA.03 25-Dec-2016
                11-Feb-2020 
 ******************************************
 %chk=checkpoint.chk
 %mem=3GB
 %nprocshared=4
 Will use up to    4 processors via shared memory.
 -------------------------------------------------------------------
 #t pop=none jul-cc-pvdz guess=read ub3lyp empiricaldispersion=gd3bj
 -------------------------------------------------------------------
 ------------------------------
 theory_abbreviation b3lyp_d3bj
 ------------------------------
 Symbolic Z-matrix:
 Charge =  0 Multiplicity = 6
 O                    -0.25905  -0.27529  -0.82406 
 C                    -1.08822  -1.21513  -0.65485 
 C                    -2.97931  -0.15276   0.4843 
 C                    -2.55875   0.968    -0.14905 
 C                    -3.0058    1.30644  -1.54168 
 Fe                    1.45539   0.13651   0.01065 
 Cl                    2.06961   2.01403  -0.90988 
 C                    -1.64675   1.9818    0.46855 
 Cl                    2.64231  -1.62394  -0.528 
 Cl                    1.13493   0.27793   2.18392 
 H                    -3.7106   -0.77121  -0.03445 
 H                    -2.19094   2.92703   0.59955 
 H                    -1.24441   1.68368   1.43565 
 H                    -0.8087    2.20161  -0.20417 
 H                    -3.47965   2.29637  -1.54443 
 H                    -2.14281   1.37628  -2.21707 
 H                    -3.72456   0.58742  -1.94286 
 C                    -2.82586  -0.4324    1.95824 
 H                    -3.61896   0.08309   2.51611 
 H                    -2.92793  -1.49862   2.17791 
 H                    -1.86881  -0.0937    2.36228 
 C                    -0.88489  -2.20949   0.45024 
 H                    -1.7664   -2.82912   0.61814 
 H                    -0.06323  -2.85776   0.11072 
 H                    -0.56112  -1.73676   1.37691 
 C                    -1.85173  -1.68066  -1.86398 
 H                    -1.19169  -2.40349  -2.36516 
 H                    -2.77761  -2.19588  -1.60499 
 H                    -2.03887  -0.86687  -2.56168 
 
                    Distance matrix (angstroms):
                    1          2          3          4          5
     1  O    0.000000
     2  C    1.264702   0.000000
     3  C    3.021032   2.450000   0.000000
     4  C    2.700004   2.680362   1.354290   0.000000
     5  C    3.249843   3.289664   2.496905   1.501266   0.000000
     6  Fe   1.950795   2.956308   4.469293   4.102464   4.866280
     7  Cl   3.266643   4.523758   5.668357   4.805699   5.163297
     8  C    2.948046   3.434289   2.516412   1.496990   2.518760
     9  Cl   3.213154   3.755001   5.898443   5.823461   6.443272
    10  Cl   3.361121   3.902589   4.472265   4.422919   5.664233
    11  H    3.575285   2.731089   1.089204   2.089198   2.661788
    12  H    4.001714   4.466209   3.181185   2.129203   2.806275
    13  H    3.148775   3.577387   2.699531   2.179673   3.479840
    14  H    2.611775   3.457651   3.275457   2.141852   2.723514
    15  H    4.183852   4.340613   3.219368   2.135348   1.097499
    16  H    2.866479   3.204387   3.214818   2.148575   1.098079
    17  H    3.742426   3.443609   2.644683   2.172944   1.092951
    18  C    3.788714   3.234230   1.508059   2.544235   3.912204
    19  H    4.751233   4.259697   2.143140   3.001703   4.282313
    20  H    4.198959   3.389599   2.163857   3.411043   4.659366
    21  H    3.574501   3.312096   2.182542   2.812467   4.300460
    22  C    2.399302   1.500434   2.935621   3.641067   4.563739
    23  H    3.297592   2.164575   2.941420   3.954048   4.827396
    24  H    2.753421   2.082049   3.995007   4.575096   5.360007
    25  H    2.659210   2.162858   3.025462   3.692528   4.873973
    26  C    2.364986   1.503885   3.019992   3.233617   3.218468
    27  H    2.788197   2.085198   4.047313   4.259916   4.211016
    28  H    3.262159   2.172249   2.929185   3.489664   3.510310
    29  H    2.556765   2.158937   3.266856   3.075350   2.588171
                    6          7          8          9         10
     6  Fe   0.000000
     7  Cl   2.179387   0.000000
     8  C    3.638411   3.963884   0.000000
     9  Cl   2.190448   3.702515   5.691256   0.000000
    10  Cl   2.201316   3.668685   3.685566   3.639194   0.000000
    11  H    5.245328   6.475706   3.477296   6.428853   5.431482
    12  H    4.629209   4.611315   1.098532   6.733717   4.537554
    13  H    3.422473   4.073495   1.089052   5.468347   2.863096
    14  H    3.071950   2.969483   1.096903   5.162272   3.630592
    15  H    5.606950   5.592549   2.740542   7.340317   6.266500
    16  H    4.409852   4.456448   2.797364   5.895049   5.596302
    17  H    5.554403   6.055958   3.475123   6.886865   6.382843
    18  C    4.737702   6.178727   3.072110   6.123877   4.030299
    19  H    5.659441   6.915620   3.418668   7.168263   4.769467
    20  H    5.155977   6.844593   4.083705   6.193955   4.434291
    21  H    4.078416   5.537207   2.818370   5.571849   3.031895
    22  C    3.342729   5.330766   4.260007   3.706873   3.643151
    23  H    4.420846   6.364420   4.814730   4.711978   4.530237
    24  H    3.358844   5.415249   5.104594   3.041412   3.945405
    25  H    3.072799   5.120402   3.978865   3.728715   2.754414
    26  C    4.213474   5.471556   4.346995   4.688752   5.398304
    27  H    4.370701   5.680521   5.240964   4.322310   5.770372
    28  H    5.095937   6.457708   4.799104   5.555403   5.981929
    29  H    4.453476   5.282761   4.177433   5.159688   5.822731
                   11         12         13         14         15
    11  H    0.000000
    12  H    4.048251   0.000000
    13  H    3.777538   1.772259   0.000000
    14  H    4.157828   1.755795   1.774011   0.000000
    15  H    3.426873   2.579759   3.775256   2.989861   0.000000
    16  H    3.439987   3.215658   3.774114   2.552012   1.756738
    17  H    2.342672   3.780158   4.332117   3.759108   1.771787
    18  C    2.206434   3.678988   2.692932   3.960173   4.488022
    19  H    2.691388   3.714902   3.060688   4.448112   4.626668
    20  H    2.456869   4.756125   3.675894   4.884374   5.344355
    21  H    3.097659   3.512231   2.099425   3.602628   4.854850
    22  C    3.207523   5.302066   4.032006   4.460025   5.569042
    23  H    2.905302   5.771814   4.615858   5.186674   5.820875
    24  H    4.204530   6.183033   4.875992   5.123676   6.401287
    25  H    3.583772   5.001152   3.488515   4.251096   5.772185
    26  C    2.762196   5.235926   4.751341   4.349129   4.309180
    27  H    3.800191   6.180810   5.581565   5.101317   5.291219
    28  H    2.316625   5.607884   5.162090   5.017647   4.547175
    29  H    3.031625   4.940666   4.807817   4.060383   3.621702
                   16         17         18         19         20
    16  H    0.000000
    17  H    1.788691   0.000000
    18  C    4.601197   4.131130   0.000000
    19  H    5.123898   4.488642   1.098170   0.000000
    20  H    5.310104   4.686883   1.093382   1.758891   0.000000
    21  H    4.817287   4.737286   1.092657   1.765769   1.769044
    22  C    4.642693   4.649013   3.033057   4.122971   2.768425
    23  H    5.085810   4.697431   2.943218   3.938935   2.356319
    24  H    5.260260   5.430634   4.114333   5.203623   3.785101
    25  H    5.010925   5.141009   2.677368   3.736310   2.509995
    26  C    3.091004   2.942437   4.137202   5.041743   4.186672
    27  H    3.900411   3.941992   5.024678   5.991785   4.946992
    28  H    3.679390   2.959326   3.976021   4.783830   3.849555
    29  H    2.271847   2.310728   4.608441   5.402135   4.863454
                   21         22         23         24         25
    21  H    0.000000
    22  C    3.016717   0.000000
    23  H    3.245769   1.090498   0.000000
    24  H    3.996205   1.100294   1.777378   0.000000
    25  H    2.319626   1.089504   1.794898   1.762883   0.000000
    26  C    4.514424   2.563209   2.736272   2.912686   3.488865
    27  H    5.304927   2.838697   3.067823   2.758581   3.852944
    28  H    4.580860   2.794017   2.523068   3.278662   3.743704
    29  H    4.987187   3.493695   3.746454   3.874081   4.295681
                   26         27         28         29
    26  C    0.000000
    27  H    1.099681   0.000000
    28  H    1.090771   1.770904   0.000000
    29  H    1.088144   1.765650   1.796454   0.000000
 Framework group  C1[X(C8H16Cl3FeO)]
 Deg. of freedom    81
                         Standard orientation:                         
 ---------------------------------------------------------------------
 Center     Atomic      Atomic             Coordinates (Angstroms)
 Number     Number       Type             X           Y           Z
 ---------------------------------------------------------------------
      1          8           0       -0.259047   -0.275285   -0.824060
      2          6           0       -1.088220   -1.215131   -0.654849
      3          6           0       -2.979309   -0.152762    0.484297
      4          6           0       -2.558751    0.967997   -0.149053
      5          6           0       -3.005802    1.306436   -1.541678
      6         26           0        1.455390    0.136506    0.010647
      7         17           0        2.069607    2.014029   -0.909881
      8          6           0       -1.646746    1.981801    0.468546
      9         17           0        2.642305   -1.623937   -0.527995
     10         17           0        1.134929    0.277927    2.183916
     11          1           0       -3.710602   -0.771213   -0.034447
     12          1           0       -2.190942    2.927032    0.599548
     13          1           0       -1.244412    1.683683    1.435649
     14          1           0       -0.808695    2.201608   -0.204174
     15          1           0       -3.479648    2.296369   -1.544434
     16          1           0       -2.142812    1.376280   -2.217065
     17          1           0       -3.724560    0.587420   -1.942858
     18          6           0       -2.825855   -0.432404    1.958235
     19          1           0       -3.618964    0.083085    2.516111
     20          1           0       -2.927926   -1.498617    2.177906
     21          1           0       -1.868814   -0.093695    2.362275
     22          6           0       -0.884890   -2.209488    0.450236
     23          1           0       -1.766396   -2.829117    0.618144
     24          1           0       -0.063229   -2.857757    0.110724
     25          1           0       -0.561121   -1.736756    1.376906
     26          6           0       -1.851726   -1.680664   -1.863984
     27          1           0       -1.191688   -2.403487   -2.365157
     28          1           0       -2.777609   -2.195877   -1.604991
     29          1           0       -2.038866   -0.866871   -2.561678
 ---------------------------------------------------------------------
 Rotational constants (GHZ):           0.5733210           0.3312941           0.3119279
   427 basis functions,  1056 primitive gaussians,   461 cartesian basis functions
    77 alpha electrons       72 beta electrons
       nuclear repulsion energy      1635.5284228326 Hartrees.
 NAtoms=   29 NActive=   29 NUniq=   29 SFac= 1.00D+00 NAtFMM=   60 NAOKFM=F Big=F
 Nuclear repulsion after empirical dispersion term =     1635.4590743374 Hartrees.
 Initial guess from the checkpoint file:  "checkpoint.chk"
 B after Tr=     0.000000    0.000000    0.000000
         Rot=    1.000000    0.000000    0.000000    0.000000 Ang=   0.00 deg.
 Initial guess <Sx>= 0.0000 <Sy>= 0.0000 <Sz>= 2.5000 <S**2>= 8.7620 S= 2.5020
 SCF Done:  E(UB3LYP) =  -3034.41361080     A.U. after    1 cycles
            NFock=  1  Conv=0.44D-08     -V/T= 2.0024
 <Sx>= 0.0000 <Sy>= 0.0000 <Sz>= 2.5000 <S**2>= 8.7620 S= 2.5020
 <L.S>= 0.000000000000E+00
 Annihilation of the first spin contaminant:
 S**2 before annihilation     8.7620,   after     8.7500
 1\1\GINC-HOLY7C04208\SP\UB3LYP\Jul-CC-pVDZ\C8H16Cl3Fe1O1(6)\EKWAN\11-F
 eb-2020\0\\#t pop=none jul-cc-pvdz guess=read ub3lyp empiricaldispersi
 on=gd3bj\\theory_abbreviation b3lyp_d3bj\\0,6\O,0,-0.259047,-0.275285,
 -0.82406\C,0,-1.08822,-1.215131,-0.654849\C,0,-2.979309,-0.152762,0.48
 4297\C,0,-2.558751,0.967997,-0.149053\C,0,-3.005802,1.306436,-1.541678
 \Fe,0,1.45539,0.136506,0.010647\Cl,0,2.069607,2.014029,-0.909881\C,0,-
 1.646746,1.981801,0.468546\Cl,0,2.642305,-1.623937,-0.527995\Cl,0,1.13
 4929,0.277927,2.183916\H,0,-3.710602,-0.771213,-0.034447\H,0,-2.190942
 ,2.927032,0.599548\H,0,-1.244412,1.683683,1.435649\H,0,-0.808695,2.201
 608,-0.204174\H,0,-3.479648,2.296369,-1.544434\H,0,-2.142812,1.37628,-
 2.217065\H,0,-3.72456,0.58742,-1.942858\C,0,-2.825855,-0.432404,1.9582
 35\H,0,-3.618964,0.083085,2.516111\H,0,-2.927926,-1.498617,2.177906\H,
 0,-1.868814,-0.093695,2.362275\C,0,-0.88489,-2.209488,0.450236\H,0,-1.
 766396,-2.829117,0.618144\H,0,-0.063229,-2.857757,0.110724\H,0,-0.5611
 21,-1.736756,1.376906\C,0,-1.851726,-1.680664,-1.863984\H,0,-1.191688,
 -2.403487,-2.365157\H,0,-2.777609,-2.195877,-1.604991\H,0,-2.038866,-0
 .866871,-2.561678\\Version=ES64L-G16RevA.03\HF=-3034.4136108\S2=8.7619
 71\S2-1=0.\S2A=8.750044\RMSD=4.435e-09\PG=C01 [X(C8H16Cl3Fe1O1)]\\@


 THERE IS NO CURE FOR BIRTH AND DEATH SAVE TO ENJOY THE INTERVAL.

                               -- GEORGE SANTAYANA
 Job cpu time:       0 days  0 hours  4 minutes 34.7 seconds.
 Elapsed time:       0 days  0 hours  1 minutes  9.3 seconds.
 File lengths (MBytes):  RWF=    170 Int=      0 D2E=      0 Chk=     13 Scr=      1
 Normal termination of Gaussian 16 at Tue Feb 11 14:16:15 2020.
 Initial command:
 /n/sw/g16_nehalem/g16/l1.exe "/scratch/Gau-270319.inp" -scrdir="/scratch/"
 Entering Link 1 = /n/sw/g16_nehalem/g16/l1.exe PID=    274568.
  
 Copyright (c) 1988,1990,1992,1993,1995,1998,2003,2009,2016,
            Gaussian, Inc.  All Rights Reserved.
  
 This is part of the Gaussian(R) 16 program.  It is based on
 the Gaussian(R) 09 system (copyright 2009, Gaussian, Inc.),
 the Gaussian(R) 03 system (copyright 2003, Gaussian, Inc.),
 the Gaussian(R) 98 system (copyright 1998, Gaussian, Inc.),
 the Gaussian(R) 94 system (copyright 1995, Gaussian, Inc.),
 the Gaussian 92(TM) system (copyright 1992, Gaussian, Inc.),
 the Gaussian 90(TM) system (copyright 1990, Gaussian, Inc.),
 the Gaussian 88(TM) system (copyright 1988, Gaussian, Inc.),
 the Gaussian 86(TM) system (copyright 1986, Carnegie Mellon
 University), and the Gaussian 82(TM) system (copyright 1983,
 Carnegie Mellon University). Gaussian is a federally registered
 trademark of Gaussian, Inc.
  
 This software contains proprietary and confidential information,
 including trade secrets, belonging to Gaussian, Inc.
  
 This software is provided under written license and may be
 used, copied, transmitted, or stored only in accord with that
 written license.
  
 The following legend is applicable only to US Government
 contracts under FAR:
  
                    RESTRICTED RIGHTS LEGEND
  
 Use, reproduction and disclosure by the US Government is
 subject to restrictions as set forth in subparagraphs (a)
 and (c) of the Commercial Computer Software - Restricted
 Rights clause in FAR 52.227-19.
  
 Gaussian, Inc.
 340 Quinnipiac St., Bldg. 40, Wallingford CT 06492
  
  
 ---------------------------------------------------------------
 Warning -- This program may not be used in any manner that
 competes with the business of Gaussian, Inc. or will provide
 assistance to any competitor of Gaussian, Inc.  The licensee
 of this program is prohibited from giving any competitor of
 Gaussian, Inc. access to this program.  By using this program,
 the user acknowledges that Gaussian, Inc. is engaged in the
 business of creating and licensing software in the field of
 computational chemistry and represents and warrants to the
 licensee that it is not a competitor of Gaussian, Inc. and that
 it will not use this program in any manner prohibited above.
 ---------------------------------------------------------------
  

 Cite this work as:
 Gaussian 16, Revision A.03,
 M. J. Frisch, G. W. Trucks, H. B. Schlegel, G. E. Scuseria, 
 M. A. Robb, J. R. Cheeseman, G. Scalmani, V. Barone, 
 G. A. Petersson, H. Nakatsuji, X. Li, M. Caricato, A. V. Marenich, 
 J. Bloino, B. G. Janesko, R. Gomperts, B. Mennucci, H. P. Hratchian, 
 J. V. Ortiz, A. F. Izmaylov, J. L. Sonnenberg, D. Williams-Young, 
 F. Ding, F. Lipparini, F. Egidi, J. Goings, B. Peng, A. Petrone, 
 T. Henderson, D. Ranasinghe, V. G. Zakrzewski, J. Gao, N. Rega, 
 G. Zheng, W. Liang, M. Hada, M. Ehara, K. Toyota, R. Fukuda, 
 J. Hasegawa, M. Ishida, T. Nakajima, Y. Honda, O. Kitao, H. Nakai, 
 T. Vreven, K. Throssell, J. A. Montgomery, Jr., J. E. Peralta, 
 F. Ogliaro, M. J. Bearpark, J. J. Heyd, E. N. Brothers, K. N. Kudin, 
 V. N. Staroverov, T. A. Keith, R. Kobayashi, J. Normand, 
 K. Raghavachari, A. P. Rendell, J. C. Burant, S. S. Iyengar, 
 J. Tomasi, M. Cossi, J. M. Millam, M. Klene, C. Adamo, R. Cammi, 
 J. W. Ochterski, R. L. Martin, K. Morokuma, O. Farkas, 
 J. B. Foresman, and D. J. Fox, Gaussian, Inc., Wallingford CT, 2016.
 
 ******************************************
 Gaussian 16:  ES64L-G16RevA.03 25-Dec-2016
                11-Feb-2020 
 ******************************************
 %chk=checkpoint.chk
 %mem=3GB
 %nprocshared=4
 Will use up to    4 processors via shared memory.
 ----------------------------------------
 #t pop=none jul-cc-pvdz guess=read ub97d
 ----------------------------------------
 ------------------------
 theory_abbreviation b97d
 ------------------------
 Symbolic Z-matrix:
 Charge =  0 Multiplicity = 6
 O                    -0.25905  -0.27529  -0.82406 
 C                    -1.08822  -1.21513  -0.65485 
 C                    -2.97931  -0.15276   0.4843 
 C                    -2.55875   0.968    -0.14905 
 C                    -3.0058    1.30644  -1.54168 
 Fe                    1.45539   0.13651   0.01065 
 Cl                    2.06961   2.01403  -0.90988 
 C                    -1.64675   1.9818    0.46855 
 Cl                    2.64231  -1.62394  -0.528 
 Cl                    1.13493   0.27793   2.18392 
 H                    -3.7106   -0.77121  -0.03445 
 H                    -2.19094   2.92703   0.59955 
 H                    -1.24441   1.68368   1.43565 
 H                    -0.8087    2.20161  -0.20417 
 H                    -3.47965   2.29637  -1.54443 
 H                    -2.14281   1.37628  -2.21707 
 H                    -3.72456   0.58742  -1.94286 
 C                    -2.82586  -0.4324    1.95824 
 H                    -3.61896   0.08309   2.51611 
 H                    -2.92793  -1.49862   2.17791 
 H                    -1.86881  -0.0937    2.36228 
 C                    -0.88489  -2.20949   0.45024 
 H                    -1.7664   -2.82912   0.61814 
 H                    -0.06323  -2.85776   0.11072 
 H                    -0.56112  -1.73676   1.37691 
 C                    -1.85173  -1.68066  -1.86398 
 H                    -1.19169  -2.40349  -2.36516 
 H                    -2.77761  -2.19588  -1.60499 
 H                    -2.03887  -0.86687  -2.56168 
 
                    Distance matrix (angstroms):
                    1          2          3          4          5
     1  O    0.000000
     2  C    1.264702   0.000000
     3  C    3.021032   2.450000   0.000000
     4  C    2.700004   2.680362   1.354290   0.000000
     5  C    3.249843   3.289664   2.496905   1.501266   0.000000
     6  Fe   1.950795   2.956308   4.469293   4.102464   4.866280
     7  Cl   3.266643   4.523758   5.668357   4.805699   5.163297
     8  C    2.948046   3.434289   2.516412   1.496990   2.518760
     9  Cl   3.213154   3.755001   5.898443   5.823461   6.443272
    10  Cl   3.361121   3.902589   4.472265   4.422919   5.664233
    11  H    3.575285   2.731089   1.089204   2.089198   2.661788
    12  H    4.001714   4.466209   3.181185   2.129203   2.806275
    13  H    3.148775   3.577387   2.699531   2.179673   3.479840
    14  H    2.611775   3.457651   3.275457   2.141852   2.723514
    15  H    4.183852   4.340613   3.219368   2.135348   1.097499
    16  H    2.866479   3.204387   3.214818   2.148575   1.098079
    17  H    3.742426   3.443609   2.644683   2.172944   1.092951
    18  C    3.788714   3.234230   1.508059   2.544235   3.912204
    19  H    4.751233   4.259697   2.143140   3.001703   4.282313
    20  H    4.198959   3.389599   2.163857   3.411043   4.659366
    21  H    3.574501   3.312096   2.182542   2.812467   4.300460
    22  C    2.399302   1.500434   2.935621   3.641067   4.563739
    23  H    3.297592   2.164575   2.941420   3.954048   4.827396
    24  H    2.753421   2.082049   3.995007   4.575096   5.360007
    25  H    2.659210   2.162858   3.025462   3.692528   4.873973
    26  C    2.364986   1.503885   3.019992   3.233617   3.218468
    27  H    2.788197   2.085198   4.047313   4.259916   4.211016
    28  H    3.262159   2.172249   2.929185   3.489664   3.510310
    29  H    2.556765   2.158937   3.266856   3.075350   2.588171
                    6          7          8          9         10
     6  Fe   0.000000
     7  Cl   2.179387   0.000000
     8  C    3.638411   3.963884   0.000000
     9  Cl   2.190448   3.702515   5.691256   0.000000
    10  Cl   2.201316   3.668685   3.685566   3.639194   0.000000
    11  H    5.245328   6.475706   3.477296   6.428853   5.431482
    12  H    4.629209   4.611315   1.098532   6.733717   4.537554
    13  H    3.422473   4.073495   1.089052   5.468347   2.863096
    14  H    3.071950   2.969483   1.096903   5.162272   3.630592
    15  H    5.606950   5.592549   2.740542   7.340317   6.266500
    16  H    4.409852   4.456448   2.797364   5.895049   5.596302
    17  H    5.554403   6.055958   3.475123   6.886865   6.382843
    18  C    4.737702   6.178727   3.072110   6.123877   4.030299
    19  H    5.659441   6.915620   3.418668   7.168263   4.769467
    20  H    5.155977   6.844593   4.083705   6.193955   4.434291
    21  H    4.078416   5.537207   2.818370   5.571849   3.031895
    22  C    3.342729   5.330766   4.260007   3.706873   3.643151
    23  H    4.420846   6.364420   4.814730   4.711978   4.530237
    24  H    3.358844   5.415249   5.104594   3.041412   3.945405
    25  H    3.072799   5.120402   3.978865   3.728715   2.754414
    26  C    4.213474   5.471556   4.346995   4.688752   5.398304
    27  H    4.370701   5.680521   5.240964   4.322310   5.770372
    28  H    5.095937   6.457708   4.799104   5.555403   5.981929
    29  H    4.453476   5.282761   4.177433   5.159688   5.822731
                   11         12         13         14         15
    11  H    0.000000
    12  H    4.048251   0.000000
    13  H    3.777538   1.772259   0.000000
    14  H    4.157828   1.755795   1.774011   0.000000
    15  H    3.426873   2.579759   3.775256   2.989861   0.000000
    16  H    3.439987   3.215658   3.774114   2.552012   1.756738
    17  H    2.342672   3.780158   4.332117   3.759108   1.771787
    18  C    2.206434   3.678988   2.692932   3.960173   4.488022
    19  H    2.691388   3.714902   3.060688   4.448112   4.626668
    20  H    2.456869   4.756125   3.675894   4.884374   5.344355
    21  H    3.097659   3.512231   2.099425   3.602628   4.854850
    22  C    3.207523   5.302066   4.032006   4.460025   5.569042
    23  H    2.905302   5.771814   4.615858   5.186674   5.820875
    24  H    4.204530   6.183033   4.875992   5.123676   6.401287
    25  H    3.583772   5.001152   3.488515   4.251096   5.772185
    26  C    2.762196   5.235926   4.751341   4.349129   4.309180
    27  H    3.800191   6.180810   5.581565   5.101317   5.291219
    28  H    2.316625   5.607884   5.162090   5.017647   4.547175
    29  H    3.031625   4.940666   4.807817   4.060383   3.621702
                   16         17         18         19         20
    16  H    0.000000
    17  H    1.788691   0.000000
    18  C    4.601197   4.131130   0.000000
    19  H    5.123898   4.488642   1.098170   0.000000
    20  H    5.310104   4.686883   1.093382   1.758891   0.000000
    21  H    4.817287   4.737286   1.092657   1.765769   1.769044
    22  C    4.642693   4.649013   3.033057   4.122971   2.768425
    23  H    5.085810   4.697431   2.943218   3.938935   2.356319
    24  H    5.260260   5.430634   4.114333   5.203623   3.785101
    25  H    5.010925   5.141009   2.677368   3.736310   2.509995
[...]
 Rotational constants (GHZ):           0.5733210           0.3312941           0.3119279
   427 basis functions,  1056 primitive gaussians,   461 cartesian basis functions
    77 alpha electrons       72 beta electrons
       nuclear repulsion energy      1635.5284228326 Hartrees.
 NAtoms=   29 NActive=   29 NUniq=   29 SFac= 1.00D+00 NAtFMM=   60 NAOKFM=F Big=F
 Nuclear repulsion after empirical dispersion term =     1635.5259556450 Hartrees.
 Initial guess from the checkpoint file:  "checkpoint.chk"
 B after Tr=     0.000000    0.000000    0.000000
         Rot=    1.000000    0.000000    0.000000    0.000000 Ang=   0.00 deg.
 Initial guess <Sx>= 0.0000 <Sy>= 0.0000 <Sz>= 2.5000 <S**2>= 8.7617 S= 2.5019
 SCF Done:  E(UM06L) =  -3034.21311695     A.U. after   17 cycles
            NFock= 17  Conv=0.69D-08     -V/T= 2.0020
 <Sx>= 0.0000 <Sy>= 0.0000 <Sz>= 2.5000 <S**2>= 8.7616 S= 2.5019
 <L.S>= 0.000000000000E+00
 Annihilation of the first spin contaminant:
 S**2 before annihilation     8.7616,   after     8.7500
 1\1\GINC-HOLY7C04208\SP\UM06L\Jul-CC-pVDZ\C8H16Cl3Fe1O1(6)\EKWAN\11-Fe
 b-2020\0\\#t pop=none jul-cc-pvdz guess=read um06l empiricaldispersion
 =gd3\\theory_abbreviation m06l_d3\\0,6\O,0,-0.259047,-0.275285,-0.8240
 6\C,0,-1.08822,-1.215131,-0.654849\C,0,-2.979309,-0.152762,0.484297\C,
 0,-2.558751,0.967997,-0.149053\C,0,-3.005802,1.306436,-1.541678\Fe,0,1
 .45539,0.136506,0.010647\Cl,0,2.069607,2.014029,-0.909881\C,0,-1.64674
 6,1.981801,0.468546\Cl,0,2.642305,-1.623937,-0.527995\Cl,0,1.134929,0.
 277927,2.183916\H,0,-3.710602,-0.771213,-0.034447\H,0,-2.190942,2.9270
 32,0.599548\H,0,-1.244412,1.683683,1.435649\H,0,-0.808695,2.201608,-0.
 204174\H,0,-3.479648,2.296369,-1.544434\H,0,-2.142812,1.37628,-2.21706
 5\H,0,-3.72456,0.58742,-1.942858\C,0,-2.825855,-0.432404,1.958235\H,0,
 -3.618964,0.083085,2.516111\H,0,-2.927926,-1.498617,2.177906\H,0,-1.86
 8814,-0.093695,2.362275\C,0,-0.88489,-2.209488,0.450236\H,0,-1.766396,
 -2.829117,0.618144\H,0,-0.063229,-2.857757,0.110724\H,0,-0.561121,-1.7
 36756,1.376906\C,0,-1.851726,-1.680664,-1.863984\H,0,-1.191688,-2.4034
 87,-2.365157\H,0,-2.777609,-2.195877,-1.604991\H,0,-2.038866,-0.866871
 ,-2.561678\\Version=ES64L-G16RevA.03\HF=-3034.213117\S2=8.761598\S2-1=
 0.\S2A=8.750043\RMSD=6.871e-09\PG=C01 [X(C8H16Cl3Fe1O1)]\\@


 A successful marriage requires falling in love
 many times, always with the same person.
                           -- Mignon McLaughlin
 Job cpu time:       0 days  1 hours 15 minutes 12.7 seconds.
 Elapsed time:       0 days  0 hours 18 minutes 51.7 seconds.
 File lengths (MBytes):  RWF=    174 Int=      0 D2E=      0 Chk=     13 Scr=      1
 Normal termination of Gaussian 16 at Tue Feb 11 23:18:23 2020.
 Initial command:
 /n/sw/g16_nehalem/g16/l1.exe "/scratch/Gau-270319.inp" -scrdir="/scratch/"
 Entering Link 1 = /n/sw/g16_nehalem/g16/l1.exe PID=    325134.
  
 Copyright (c) 1988,1990,1992,1993,1995,1998,2003,2009,2016,
            Gaussian, Inc.  All Rights Reserved.
  
 This is part of the Gaussian(R) 16 program.  It is based on
 the Gaussian(R) 09 system (copyright 2009, Gaussian, Inc.),
 the Gaussian(R) 03 system (copyright 2003, Gaussian, Inc.),
 the Gaussian(R) 98 system (copyright 1998, Gaussian, Inc.),
 the Gaussian(R) 94 system (copyright 1995, Gaussian, Inc.),
 the Gaussian 92(TM) system (copyright 1992, Gaussian, Inc.),
 the Gaussian 90(TM) system (copyright 1990, Gaussian, Inc.),
 the Gaussian 88(TM) system (copyright 1988, Gaussian, Inc.),
 the Gaussian 86(TM) system (copyright 1986, Carnegie Mellon
 University), and the Gaussian 82(TM) system (copyright 1983,
 Carnegie Mellon University). Gaussian is a federally registered
 trademark of Gaussian, Inc.
  
 This software contains proprietary and confidential information,
 including trade secrets, belonging to Gaussian, Inc.
  
 This software is provided under written license and may be
 used, copied, transmitted, or stored only in accord with that
 written license.
  
 The following legend is applicable only to US Government
 contracts under FAR:
  
                    RESTRICTED RIGHTS LEGEND
  
 Use, reproduction and disclosure by the US Government is
 subject to restrictions as set forth in subparagraphs (a)
 and (c) of the Commercial Computer Software - Restricted
 Rights clause in FAR 52.227-19.
  
 Gaussian, Inc.
 340 Quinnipiac St., Bldg. 40, Wallingford CT 06492
  
  
 ---------------------------------------------------------------
 Warning -- This program may not be used in any manner that
 competes with the business of Gaussian, Inc. or will provide
 assistance to any competitor of Gaussian, Inc.  The licensee
 of this program is prohibited from giving any competitor of
 Gaussian, Inc. access to this program.  By using this program,
 the user acknowledges that Gaussian, Inc. is engaged in the
 business of creating and licensing software in the field of
 computational chemistry and represents and warrants to the
 licensee that it is not a competitor of Gaussian, Inc. and that
 it will not use this program in any manner prohibited above.
 ---------------------------------------------------------------
  

 Cite this work as:
 Gaussian 16, Revision A.03,
 M. J. Frisch, G. W. Trucks, H. B. Schlegel, G. E. Scuseria, 
 M. A. Robb, J. R. Cheeseman, G. Scalmani, V. Barone, 
 G. A. Petersson, H. Nakatsuji, X. Li, M. Caricato, A. V. Marenich, 
 J. Bloino, B. G. Janesko, R. Gomperts, B. Mennucci, H. P. Hratchian, 
 J. V. Ortiz, A. F. Izmaylov, J. L. Sonnenberg, D. Williams-Young, 
 F. Ding, F. Lipparini, F. Egidi, J. Goings, B. Peng, A. Petrone, 
 T. Henderson, D. Ranasinghe, V. G. Zakrzewski, J. Gao, N. Rega, 
 G. Zheng, W. Liang, M. Hada, M. Ehara, K. Toyota, R. Fukuda, 
 J. Hasegawa, M. Ishida, T. Nakajima, Y. Honda, O. Kitao, H. Nakai, 
 T. Vreven, K. Throssell, J. A. Montgomery, Jr., J. E. Peralta, 
 F. Ogliaro, M. J. Bearpark, J. J. Heyd, E. N. Brothers, K. N. Kudin, 
 V. N. Staroverov, T. A. Keith, R. Kobayashi, J. Normand, 
 K. Raghavachari, A. P. Rendell, J. C. Burant, S. S. Iyengar, 
 J. Tomasi, M. Cossi, J. M. Millam, M. Klene, C. Adamo, R. Cammi, 
 J. W. Ochterski, R. L. Martin, K. Morokuma, O. Farkas, 
 J. B. Foresman, and D. J. Fox, Gaussian, Inc., Wallingford CT, 2016.
 
 ******************************************
 Gaussian 16:  ES64L-G16RevA.03 25-Dec-2016
                11-Feb-2020 
 ******************************************
 %chk=checkpoint.chk
 %mem=3GB
 %nprocshared=4
 Will use up to    4 processors via shared memory.
 -------------------------------------------------------------------
 #t pop=none jul-cc-pvdz guess=read ub97d3 empiricaldispersion=gd3bj
 -------------------------------------------------------------------
 ------------------------------
 theory_abbreviation b97d3_d3bj
 ------------------------------
 Symbolic Z-matrix:
 Charge =  0 Multiplicity = 6
 O                    -0.25905  -0.27529  -0.82406 
 C                    -1.08822  -1.21513  -0.65485 
 C                    -2.97931  -0.15276   0.4843 
 C                    -2.55875   0.968    -0.14905 
 C                    -3.0058    1.30644  -1.54168 
 Fe                    1.45539   0.13651   0.01065 
 Cl                    2.06961   2.01403  -0.90988 
 C                    -1.64675   1.9818    0.46855 
 Cl                    2.64231  -1.62394  -0.528 
 Cl                    1.13493   0.27793   2.18392 
 H                    -3.7106   -0.77121  -0.03445 
 H                    -2.19094   2.92703   0.59955 
 H                    -1.24441   1.68368   1.43565 
 H                    -0.8087    2.20161  -0.20417 
 H                    -3.47965   2.29637  -1.54443 
 H                    -2.14281   1.37628  -2.21707 
 H                    -3.72456   0.58742  -1.94286 
 C                    -2.82586  -0.4324    1.95824 
 H                    -3.61896   0.08309   2.51611 
 H                    -2.92793  -1.49862   2.17791 
 H                    -1.86881  -0.0937    2.36228 
 C                    -0.88489  -2.20949   0.45024 
 H                    -1.7664   -2.82912   0.61814 
 H                    -0.06323  -2.85776   0.11072 
 H                    -0.56112  -1.73676   1.37691 
 C                    -1.85173  -1.68066  -1.86398 
 H                    -1.19169  -2.40349  -2.36516 
 H                    -2.77761  -2.19588  -1.60499 
 H                    -2.03887  -0.86687  -2.56168 
 
                    Distance matrix (angstroms):
                    1          2          3          4          5
     1  O    0.000000
     2  C    1.264702   0.000000
     3  C    3.021032   2.450000   0.000000
     4  C    2.700004   2.680362   1.354290   0.000000
     5  C    3.249843   3.289664   2.496905   1.501266   0.000000
     6  Fe   1.950795   2.956308   4.469293   4.102464   4.866280
     7  Cl   3.266643   4.523758   5.668357   4.805699   5.163297
     8  C    2.948046   3.434289   2.516412   1.496990   2.518760
     9  Cl   3.213154   3.755001   5.898443   5.823461   6.443272
    10  Cl   3.361121   3.902589   4.472265   4.422919   5.664233
    11  H    3.575285   2.731089   1.089204   2.089198   2.661788
    12  H    4.001714   4.466209   3.181185   2.129203   2.806275
    13  H    3.148775   3.577387   2.699531   2.179673   3.479840
    14  H    2.611775   3.457651   3.275457   2.141852   2.723514
    15  H    4.183852   4.340613   3.219368   2.135348   1.097499
    16  H    2.866479   3.204387   3.214818   2.148575   1.098079
    17  H    3.742426   3.443609   2.644683   2.172944   1.092951
    18  C    3.788714   3.234230   1.508059   2.544235   3.912204
    19  H    4.751233   4.259697   2.143140   3.001703   4.282313
    20  H    4.198959   3.389599   2.163857   3.411043   4.659366
    21  H    3.574501   3.312096   2.182542   2.812467   4.300460
    22  C    2.399302   1.500434   2.935621   3.641067   4.563739
    23  H    3.297592   2.164575   2.941420   3.954048   4.827396
    24  H    2.753421   2.082049   3.995007   4.575096   5.360007
    25  H    2.659210   2.162858   3.025462   3.692528   4.873973
    26  C    2.364986   1.503885   3.019992   3.233617   3.218468
    27  H    2.788197   2.085198   4.047313   4.259916   4.211016
    28  H    3.262159   2.172249   2.929185   3.489664   3.510310
    29  H    2.556765   2.158937   3.266856   3.075350   2.588171
                    6          7          8          9         10
     6  Fe   0.000000
     7  Cl   2.179387   0.000000
     8  C    3.638411   3.963884   0.000000
     9  Cl   2.190448   3.702515   5.691256   0.000000
    10  Cl   2.201316   3.668685   3.685566   3.639194   0.000000
    11  H    5.245328   6.475706   3.477296   6.428853   5.431482
    12  H    4.629209   4.611315   1.098532   6.733717   4.537554
    13  H    3.422473   4.073495   1.089052   5.468347   2.863096
    14  H    3.071950   2.969483   1.096903   5.162272   3.630592
    15  H    5.606950   5.592549   2.740542   7.340317   6.266500
    16  H    4.409852   4.456448   2.797364   5.895049   5.596302
    17  H    5.554403   6.055958   3.475123   6.886865   6.382843
    18  C    4.737702   6.178727   3.072110   6.123877   4.030299
    19  H    5.659441   6.915620   3.418668   7.168263   4.769467
    20  H    5.155977   6.844593   4.083705   6.193955   4.434291
    21  H    4.078416   5.537207   2.818370   5.571849   3.031895
    22  C    3.342729   5.330766   4.260007   3.706873   3.643151
    23  H    4.420846   6.364420   4.814730   4.711978   4.530237
    24  H    3.358844   5.415249   5.104594   3.041412   3.945405
    25  H    3.072799   5.120402   3.978865   3.728715   2.754414
    26  C    4.213474   5.471556   4.346995   4.688752   5.398304
    27  H    4.370701   5.680521   5.240964   4.322310   5.770372
    28  H    5.095937   6.457708   4.799104   5.555403   5.981929
    29  H    4.453476   5.282761   4.177433   5.159688   5.822731
                   11         12         13         14         15
    11  H    0.000000
    12  H    4.048251   0.000000
    13  H    3.777538   1.772259   0.000000
    14  H    4.157828   1.755795   1.774011   0.000000
    15  H    3.426873   2.579759   3.775256   2.989861   0.000000
    16  H    3.439987   3.215658   3.774114   2.552012   1.756738
    17  H    2.342672   3.780158   4.332117   3.759108   1.771787
    18  C    2.206434   3.678988   2.692932   3.960173   4.488022
    19  H    2.691388   3.714902   3.060688   4.448112   4.626668
    20  H    2.456869   4.756125   3.675894   4.884374   5.344355
    21  H    3.097659   3.512231   2.099425   3.602628   4.854850
    22  C    3.207523   5.302066   4.032006   4.460025   5.569042
    23  H    2.905302   5.771814   4.615858   5.186674   5.820875
    24  H    4.204530   6.183033   4.875992   5.123676   6.401287
    25  H    3.583772   5.001152   3.488515   4.251096   5.772185
    26  C    2.762196   5.235926   4.751341   4.349129   4.309180
    27  H    3.800191   6.180810   5.581565   5.101317   5.291219
    28  H    2.316625   5.607884   5.162090   5.017647   4.547175
    29  H    3.031625   4.940666   4.807817   4.060383   3.621702
                   16         17         18         19         20
    16  H    0.000000
    17  H    1.788691   0.000000
    18  C    4.601197   4.131130   0.000000
    19  H    5.123898   4.488642   1.098170   0.000000
    20  H    5.310104   4.686883   1.093382   1.758891   0.000000
    21  H    4.817287   4.737286   1.092657   1.765769   1.769044
    22  C    4.642693   4.649013   3.033057   4.122971   2.768425
    23  H    5.085810   4.697431   2.943218   3.938935   2.356319
    24  H    5.260260   5.430634   4.114333   5.203623   3.785101
    25  H    5.010925   5.141009   2.677368   3.736310   2.509995
    26  C    3.091004   2.942437   4.137202   5.041743   4.186672
    27  H    3.900411   3.941992   5.024678   5.991785   4.946992
    28  H    3.679390   2.959326   3.976021   4.783830   3.849555
    29  H    2.271847   2.310728   4.608441   5.402135   4.863454
                   21         22         23         24         25
    21  H    0.000000
    22  C    3.016717   0.000000
    23  H    3.245769   1.090498   0.000000
    24  H    3.996205   1.100294   1.777378   0.000000
    25  H    2.319626   1.089504   1.794898   1.762883   0.000000
    26  C    4.514424   2.563209   2.736272   2.912686   3.488865
    27  H    5.304927   2.838697   3.067823   2.758581   3.852944
    28  H    4.580860   2.794017   2.523068   3.278662   3.743704
    29  H    4.987187   3.493695   3.746454   3.874081   4.295681
                   26         27         28         29
    26  C    0.000000
    27  H    1.099681   0.000000
    28  H    1.090771   1.770904   0.000000
    29  H    1.088144   1.765650   1.796454   0.000000
 Framework group  C1[X(C8H16Cl3FeO)]
 Deg. of freedom    81
                         Standard orientation:                         
 ---------------------------------------------------------------------
 Center     Atomic      Atomic             Coordinates (Angstroms)
 Number     Number       Type             X           Y           Z
 ---------------------------------------------------------------------
      1          8           0       -0.259047   -0.275285   -0.824060
      2          6           0       -1.088220   -1.215131   -0.654849
      3          6           0       -2.979309   -0.152762    0.484297
      4          6           0       -2.558751    0.967997   -0.149053
      5          6           0       -3.005802    1.306436   -1.541678
      6         26           0        1.455390    0.136506    0.010647
      7         17           0        2.069607    2.014029   -0.909881
      8          6           0       -1.646746    1.981801    0.468546
      9         17           0        2.642305   -1.623937   -0.527995
     10         17           0        1.134929    0.277927    2.183916
     11          1           0       -3.710602   -0.771213   -0.034447
     12          1           0       -2.190942    2.927032    0.599548
     13          1           0       -1.244412    1.683683    1.435649
     14          1           0       -0.808695    2.201608   -0.204174
     15          1           0       -3.479648    2.296369   -1.544434
     16          1           0       -2.142812    1.376280   -2.217065
     17          1           0       -3.724560    0.587420   -1.942858
     18          6           0       -2.825855   -0.432404    1.958235
     19          1           0       -3.618964    0.083085    2.516111
     20          1           0       -2.927926   -1.498617    2.177906
     21          1           0       -1.868814   -0.093695    2.362275
     22          6           0       -0.884890   -2.209488    0.450236
     23          1           0       -1.766396   -2.829117    0.618144
     24          1           0       -0.063229   -2.857757    0.110724
     25          1           0       -0.561121   -1.736756    1.376906
     26          6           0       -1.851726   -1.680664   -1.863984
     27          1           0       -1.191688   -2.403487   -2.365157
     28          1           0       -2.777609   -2.195877   -1.604991
     29          1           0       -2.038866   -0.866871   -2.561678
 ---------------------------------------------------------------------
 Rotational constants (GHZ):           0.5733210           0.3312941           0.3119279
   427 basis functions,  1056 primitive gaussians,   461 cartesian basis functions
    77 alpha electrons       72 beta electrons
       nuclear repulsion energy      1635.5284228326 Hartrees.
 NAtoms=   29 NActive=   29 NUniq=   29 SFac= 1.00D+00 NAtFMM=   60 NAOKFM=F Big=F
 Nuclear repulsion after empirical dispersion term =     1635.4266866801 Hartrees.
 Initial guess from the checkpoint file:  "checkpoint.chk"
 B after Tr=     0.000000    0.000000    0.000000
         Rot=    1.000000    0.000000    0.000000    0.000000 Ang=   0.00 deg.
 Initial guess <Sx>= 0.0000 <Sy>= 0.0000 <Sz>= 2.5000 <S**2>= 8.7616 S= 2.5019
 SCF Done:  E(UB97D3) =  -3034.63359343     A.U. after   16 cycles
            NFock= 16  Conv=0.87D-08     -V/T= 2.0019
 <Sx>= 0.0000 <Sy>= 0.0000 <Sz>= 2.5000 <S**2>= 8.7597 S= 2.5016
 <L.S>= 0.000000000000E+00
 Annihilation of the first spin contaminant:
 S**2 before annihilation     8.7597,   after     8.7500
 1\1\GINC-HOLY7C04208\SP\UB97D3\Jul-CC-pVDZ\C8H16Cl3Fe1O1(6)\EKWAN\11-F
 eb-2020\0\\#t pop=none jul-cc-pvdz guess=read ub97d3 empiricaldispersi
 on=gd3bj\\theory_abbreviation b97d3_d3bj\\0,6\O,0,-0.259047,-0.275285,
 -0.82406\C,0,-1.08822,-1.215131,-0.654849\C,0,-2.979309,-0.152762,0.48
 4297\C,0,-2.558751,0.967997,-0.149053\C,0,-3.005802,1.306436,-1.541678
 \Fe,0,1.45539,0.136506,0.010647\Cl,0,2.069607,2.014029,-0.909881\C,0,-
 1.646746,1.981801,0.468546\Cl,0,2.642305,-1.623937,-0.527995\Cl,0,1.13
 4929,0.277927,2.183916\H,0,-3.710602,-0.771213,-0.034447\H,0,-2.190942
 ,2.927032,0.599548\H,0,-1.244412,1.683683,1.435649\H,0,-0.808695,2.201
 608,-0.204174\H,0,-3.479648,2.296369,-1.544434\H,0,-2.142812,1.37628,-
 2.217065\H,0,-3.72456,0.58742,-1.942858\C,0,-2.825855,-0.432404,1.9582
 35\H,0,-3.618964,0.083085,2.516111\H,0,-2.927926,-1.498617,2.177906\H,
 0,-1.868814,-0.093695,2.362275\C,0,-0.88489,-2.209488,0.450236\H,0,-1.
 766396,-2.829117,0.618144\H,0,-0.063229,-2.857757,0.110724\H,0,-0.5611
 21,-1.736756,1.376906\C,0,-1.851726,-1.680664,-1.863984\H,0,-1.191688,
 -2.403487,-2.365157\H,0,-2.777609,-2.195877,-1.604991\H,0,-2.038866,-0
 .866871,-2.561678\\Version=ES64L-G16RevA.03\HF=-3034.6335934\S2=8.7597
 11\S2-1=0.\S2A=8.75003\RMSD=8.704e-09\PG=C01 [X(C8H16Cl3Fe1O1)]\\@


 A HARD FALL SHOULD MEAN A HIGH BOUNCE 
 IF ONE IS MADE OF THE RIGHT MATERIAL.

                -- THE CHEMIST ANALYST, MARCH 1950
 Job cpu time:       0 days  0 hours 50 minutes 36.8 seconds.
 Elapsed time:       0 days  0 hours 12 minutes 41.5 seconds.
 File lengths (MBytes):  RWF=    174 Int=      0 D2E=      0 Chk=     13 Scr=      1
 Normal termination of Gaussian 16 at Tue Feb 11 23:31:05 2020.
