 Entering Gaussian System, Link 0=g16
 Input=simple-grid-210-210-b3lyp_d3bj-631gd-gas-singlepoint-DFT-juldz2-gas.gjf
 Output=simple-grid-210-210-b3lyp_d3bj-631gd-gas-singlepoint-DFT-juldz2-gas.out
 Initial command:
 /n/sw/g16_nehalem/g16/l1.exe "/scratch/Gau-48855.inp" -scrdir="/scratch/"
 Entering Link 1 = /n/sw/g16_nehalem/g16/l1.exe PID=     48877.
  
 Copyright (c) 1988,1990,1992,1993,1995,1998,2003,2009,2016,
            Gaussian, Inc.  All Rights Reserved.
  
 This is part of the Gaussian(R) 16 program.  It is based on
 the Gaussian(R) 09 system (copyright 2009, Gaussian, Inc.),
 the Gaussian(R) 03 system (copyright 2003, Gaussian, Inc.),
 the Gaussian(R) 98 system (copyright 1998, Gaussian, Inc.),
 the Gaussian(R) 94 system (copyright 1995, Gaussian, Inc.),
 the Gaussian 92(TM) system (copyright 1992, Gaussian, Inc.),
 the Gaussian 90(TM) system (copyright 1990, Gaussian, Inc.),
 the Gaussian 88(TM) system (copyright 1988, Gaussian, Inc.),
 the Gaussian 86(TM) system (copyright 1986, Carnegie Mellon
 University), and the Gaussian 82(TM) system (copyright 1983,
 Carnegie Mellon University). Gaussian is a federally registered
 trademark of Gaussian, Inc.
  
 This software contains proprietary and confidential information,
 including trade secrets, belonging to Gaussian, Inc.
  
 This software is provided under written license and may be
 used, copied, transmitted, or stored only in accord with that
 written license.
  
 The following legend is applicable only to US Government
 contracts under FAR:
  
                    RESTRICTED RIGHTS LEGEND
  
 Use, reproduction and disclosure by the US Government is
 subject to restrictions as set forth in subparagraphs (a)
 and (c) of the Commercial Computer Software - Restricted
 Rights clause in FAR 52.227-19.
  
 Gaussian, Inc.
 340 Quinnipiac St., Bldg. 40, Wallingford CT 06492
  
  
 ---------------------------------------------------------------
 Warning -- This program may not be used in any manner that
 competes with the business of Gaussian, Inc. or will provide
 assistance to any competitor of Gaussian, Inc.  The licensee
 of this program is prohibited from giving any competitor of
 Gaussian, Inc. access to this program.  By using this program,
 the user acknowledges that Gaussian, Inc. is engaged in the
 business of creating and licensing software in the field of
 computational chemistry and represents and warrants to the
 licensee that it is not a competitor of Gaussian, Inc. and that
 it will not use this program in any manner prohibited above.
 ---------------------------------------------------------------
  

 Cite this work as:
 Gaussian 16, Revision A.03,
 M. J. Frisch, G. W. Trucks, H. B. Schlegel, G. E. Scuseria, 
 M. A. Robb, J. R. Cheeseman, G. Scalmani, V. Barone, 
 G. A. Petersson, H. Nakatsuji, X. Li, M. Caricato, A. V. Marenich, 
 J. Bloino, B. G. Janesko, R. Gomperts, B. Mennucci, H. P. Hratchian, 
 J. V. Ortiz, A. F. Izmaylov, J. L. Sonnenberg, D. Williams-Young, 
 F. Ding, F. Lipparini, F. Egidi, J. Goings, B. Peng, A. Petrone, 
 T. Henderson, D. Ranasinghe, V. G. Zakrzewski, J. Gao, N. Rega, 
 G. Zheng, W. Liang, M. Hada, M. Ehara, K. Toyota, R. Fukuda, 
 J. Hasegawa, M. Ishida, T. Nakajima, Y. Honda, O. Kitao, H. Nakai, 
 T. Vreven, K. Throssell, J. A. Montgomery, Jr., J. E. Peralta, 
 F. Ogliaro, M. J. Bearpark, J. J. Heyd, E. N. Brothers, K. N. Kudin, 
 V. N. Staroverov, T. A. Keith, R. Kobayashi, J. Normand, 
 K. Raghavachari, A. P. Rendell, J. C. Burant, S. S. Iyengar, 
 J. Tomasi, M. Cossi, J. M. Millam, M. Klene, C. Adamo, R. Cammi, 
 J. W. Ochterski, R. L. Martin, K. Morokuma, O. Farkas, 
 J. B. Foresman, and D. J. Fox, Gaussian, Inc., Wallingford CT, 2016.
 
 ******************************************
 Gaussian 16:  ES64L-G16RevA.03 25-Dec-2016
                11-Feb-2020 
 ******************************************
 %chk=checkpoint.chk
 %mem=3GB
 %nprocshared=4
 Will use up to    4 processors via shared memory.
 --------------------------------
 #t pop=none jul-cc-pvdz upbe1pbe
 --------------------------------
 ------------------------
 theory_abbreviation pbe0
 ------------------------
 Symbolic Z-matrix:
 Charge =  0 Multiplicity = 6
 O                    -0.3772   -0.0643   -0.46436 
 C                    -1.27299  -1.05091  -0.42576 
 C                    -3.06237   0.01503  -0.15767 
 C                    -2.13848   1.05809  -0.24509 
 C                    -1.90615   1.75767  -1.54423 
 Fe                    1.43067   0.04977   0.05566 
 Cl                    2.01619   1.99165  -0.80212 
 C                    -1.60302   1.73919   0.97287 
 Cl                    2.35532  -1.76126  -0.79253 
 Cl                    1.43767   0.04379   2.26638 
 H                    -3.57833  -0.23634  -1.0818 
 H                    -2.38234   2.43458   1.31949 
 H                    -1.38839   1.05086   1.79111 
 H                    -0.70182   2.31169   0.74877 
 H                    -2.54438   2.65454  -1.53072 
 H                    -0.86846   2.08003  -1.64938 
 H                    -2.2049    1.15663  -2.40548 
 C                    -3.78404  -0.38136   1.10539 
 H                    -4.6875    0.2305    1.22861 
 H                    -4.10829  -1.42582   1.06333 
 H                    -3.17679  -0.25242   2.00382 
 C                    -1.22581  -1.94896   0.77751 
 H                    -2.07844  -2.62834   0.82754 
 H                    -0.3114   -2.54999   0.66414 
 H                    -1.1219   -1.38568   1.70549 
 C                    -1.52839  -1.72076  -1.74932 
 H                    -0.61184  -2.28209  -1.98154 
 H                    -2.37143  -2.4146   -1.70874 
 H                    -1.67214  -0.9919   -2.54859 
 
                    Distance matrix (angstroms):
                    1          2          3          4          5
     1  O    0.000000
     2  C    1.333165   0.000000
     3  C    2.703796   2.099999   0.000000
     4  C    2.099991   2.286834   1.396135   0.000000
     5  C    2.612157   3.088687   2.509219   1.493702   0.000000
     6  Fe   1.884627   2.958547   4.498237   3.721023   4.075651
     7  Cl   3.173213   4.496383   5.487632   4.294543   3.998776
     8  C    2.611681   3.138434   2.525983   1.494678   2.535358
     9  Cl   3.233268   3.715335   5.736691   5.333169   5.577458
    10  Cl   3.280610   3.974119   5.111483   4.486111   5.351568
    11  H    3.264671   2.531509   1.087850   2.109217   2.643120
    12  H    3.667029   4.052799   2.915250   2.098117   2.980910
    13  H    2.711694   3.057005   2.770004   2.169981   3.448501
    14  H    2.687453   3.607331   3.415921   2.150181   2.648621
    15  H    3.636744   4.070355   3.020037   2.089561   1.100867
    16  H    2.498752   3.385810   3.361949   2.151595   1.091689
    17  H    2.932420   3.108219   2.662925   2.163653   1.091896
    18  C    3.764468   3.016308   1.507731   2.569758   3.888748
    19  H    4.640233   4.004729   2.146915   3.058459   4.213877
    20  H    4.255425   3.224421   2.158894   3.429564   4.667264
    21  H    3.736982   3.188242   2.180973   2.802338   4.271252
    22  C    2.411296   1.502185   2.846886   3.304699   4.426332
    23  H    3.337295   2.169743   2.987662   3.839775   4.989188
    24  H    2.730658   2.088000   3.850000   4.145255   5.096665
    25  H    2.647433   2.162663   3.032946   3.287886   4.588718
    26  C    2.391699   1.505240   2.810585   3.218217   3.504887
    27  H    2.697315   2.091266   3.822088   4.062354   4.264521
    28  H    3.324056   2.170779   2.964171   3.775726   4.201350
    29  H    2.623228   2.160845   2.943323   3.118660   2.936596
                    6          7          8          9         10
     6  Fe   0.000000
     7  Cl   2.202159   0.000000
     8  C    3.591477   4.038936   0.000000
     9  Cl   2.203230   3.768210   5.571199   0.000000
    10  Cl   2.210739   3.680288   3.713943   3.668402   0.000000
    11  H    5.144487   6.028331   3.467894   6.133291   6.037308
    12  H    4.671574   4.903512   1.100473   6.671662   4.604887
    13  H    3.458484   4.381908   1.090587   5.347768   3.037554
    14  H    3.184997   3.145671   1.090936   5.320774   3.467560
    15  H    5.010239   4.665737   2.827018   6.637118   6.090222
    16  H    3.509290   3.007797   2.744443   5.087483   4.979730
    17  H    4.527658   4.591900   3.480645   5.649009   6.027686
    18  C    5.336757   6.550752   3.044851   6.572515   5.366089
    19  H    6.232211   7.222527   3.443189   7.592984   6.215268
    20  H    5.820039   7.257288   4.037560   6.733126   5.862153
    21  H    5.011521   6.314757   2.739730   6.379686   4.631413
    22  C    3.401895   5.341740   3.712539   3.914683   3.644443
    23  H    4.481284   6.384828   4.395732   4.799446   4.644736
    24  H    3.188069   5.309803   4.490060   3.139326   3.514838
    25  H    3.361262   5.248052   3.245459   4.297935   2.984862
    26  C    3.892141   5.219502   4.403087   4.000039   5.294997
    27  H    3.709398   5.153876   5.087412   3.238687   5.258811
    28  H    4.862321   6.283958   5.003550   4.858853   6.029472
    29  H    4.182657   5.055239   4.456945   4.460508   5.824736
                   11         12         13         14         15
    11  H    0.000000
    12  H    3.785553   0.000000
    13  H    3.834888   1.767777   0.000000
    14  H    4.256498   1.779034   1.774137   0.000000
    15  H    3.102866   2.863273   3.865579   2.951045   0.000000
    16  H    3.609867   3.351372   3.628570   2.415066   1.775630
    17  H    2.361952   3.942078   4.276593   3.680035   1.767532
    18  C    2.201630   3.152790   2.874120   4.108498   4.207436
    19  H    2.605037   3.190607   3.445792   4.521861   4.252391
    20  H    2.509441   4.236419   3.749865   5.066756   5.081757
    21  H    3.111677   2.884343   2.223096   3.778268   4.619884
    22  C    3.453178   4.565824   3.170613   4.292853   5.315901
    23  H    3.408357   5.095831   3.865377   5.128858   5.804077
    24  H    4.367390   5.437293   3.923784   4.878063   6.073775
    25  H    3.888961   4.041293   2.452563   3.842177   5.368416
    26  C    2.617503   5.235804   4.498461   4.815012   4.497033
    27  H    3.714118   6.023160   5.093582   5.344677   5.320556
    28  H    2.567970   5.717065   5.022429   5.582543   5.075213
    29  H    2.521090   5.216048   4.804835   4.767369   3.885018
                   16         17         18         19         20
    16  H    0.000000
    17  H    1.791763   0.000000
    18  C    4.706146   4.145518   0.000000
    19  H    5.127246   4.497514   1.098086   0.000000
    20  H    5.490565   4.724890   1.094451   1.762445   0.000000
    21  H    4.910660   4.729893   1.092032   1.765329   1.768923
    22  C    4.717021   4.553541   3.018182   4.115439   2.943478
    23  H    5.456000   4.979399   2.834641   3.891143   2.371061
    24  H    5.205744   5.171744   4.117872   5.215359   3.979884
    25  H    4.830170   4.953413   2.907875   3.943718   3.054916
    26  C    3.858957   3.027809   3.877024   4.759773   3.828031
    27  H    4.382275   3.813449   4.817137   5.764477   4.714826
    28  H    4.739637   3.642373   3.748190   4.581355   3.417418
    29  H    3.300186   2.218219   4.264329   4.985371   4.378252
                   21         22         23         24         25
    21  H    0.000000
    22  C    2.861542   0.000000
    23  H    2.869665   1.091342   0.000000
    24  H    3.909476   1.100104   1.776309   0.000000
    25  H    2.365552   1.090528   1.797212   1.759813   0.000000
    26  C    4.354222   2.555084   2.786832   2.827270   3.494741
    27  H    5.155738   2.846100   3.187750   2.676133   3.828572
    28  H    4.371125   2.776813   2.562083   3.145256   3.778493
    29  H    4.851313   3.489717   3.773767   3.821117   4.307561
                   26         27         28         29
    26  C    0.000000
    27  H    1.099584   0.000000
    28  H    1.092594   1.785529   0.000000
    29  H    1.091219   1.763629   1.794001   0.000000
 Framework group  C1[X(C8H16Cl3FeO)]
 Deg. of freedom    81
                         Standard orientation:                         
 ---------------------------------------------------------------------
 Center     Atomic      Atomic             Coordinates (Angstroms)
 Number     Number       Type             X           Y           Z
 ---------------------------------------------------------------------
      1          8           0       -0.377198   -0.064300   -0.464364
      2          6           0       -1.272985   -1.050912   -0.425755
      3          6           0       -3.062372    0.015025   -0.157671
      4          6           0       -2.138484    1.058088   -0.245091
      5          6           0       -1.906152    1.757665   -1.544229
      6         26           0        1.430669    0.049768    0.055659
      7         17           0        2.016187    1.991645   -0.802122
      8          6           0       -1.603020    1.739192    0.972874
      9         17           0        2.355320   -1.761261   -0.792525
     10         17           0        1.437674    0.043788    2.266379
     11          1           0       -3.578330   -0.236343   -1.081803
     12          1           0       -2.382338    2.434580    1.319485
     13          1           0       -1.388394    1.050862    1.791114
     14          1           0       -0.701820    2.311692    0.748767
     15          1           0       -2.544384    2.654540   -1.530724
     16          1           0       -0.868459    2.080032   -1.649380
     17          1           0       -2.204897    1.156634   -2.405478
     18          6           0       -3.784038   -0.381355    1.105394
     19          1           0       -4.687498    0.230503    1.228612
     20          1           0       -4.108293   -1.425822    1.063325
     21          1           0       -3.176793   -0.252420    2.003816
     22          6           0       -1.225813   -1.948964    0.777506
     23          1           0       -2.078442   -2.628337    0.827542
     24          1           0       -0.311401   -2.549986    0.664143
     25          1           0       -1.121904   -1.385676    1.705493
     26          6           0       -1.528393   -1.720764   -1.749315
     27          1           0       -0.611844   -2.282095   -1.981543
     28          1           0       -2.371428   -2.414600   -1.708744
     29          1           0       -1.672140   -0.991896   -2.548594
 ---------------------------------------------------------------------
 Rotational constants (GHZ):           0.5898630           0.3447403           0.3198585
   427 basis functions,  1056 primitive gaussians,   461 cartesian basis functions
    77 alpha electrons       72 beta electrons
       nuclear repulsion energy      1657.8748469138 Hartrees.
 NAtoms=   29 NActive=   29 NUniq=   29 SFac= 1.00D+00 NAtFMM=   60 NAOKFM=F Big=F
 ExpMin= 1.40D-02 ExpMax= 4.32D+06 ExpMxC= 4.91D+03 IAcc=3 IRadAn=         5 AccDes= 0.00D+00
 Harris functional with IExCor= 1009 and IRadAn=       5 diagonalized for initial guess.
 HarFok:  IExCor= 1009 AccDes= 0.00D+00 IRadAn=         5 IDoV= 1 UseB2=F ITyADJ=14
 ICtDFT=  3500011 ScaDFX=  1.000000  1.000000  1.000000  1.000000
 FoFCou: FMM=F IPFlag=           0 FMFlag=      100000 FMFlg1=           0
         NFxFlg=           0 DoJE=T BraDBF=F KetDBF=T FulRan=T
         wScrn=  0.000000 ICntrl=       500 IOpCl=  0 I1Cent=   200000004 NGrid=           0
         NMat0=    1 NMatS0=      1 NMatT0=    0 NMatD0=    1 NMtDS0=    0 NMtDT0=    0
 Petite list used in FoFCou.
 Initial guess <Sx>= 0.0000 <Sy>= 0.0000 <Sz>= 2.5000 <S**2>= 8.7500 S= 2.5000
 EnCoef did   100 forward-backward iterations
 SCF Done:  E(UPBE1PBE) =  -3033.09241470     A.U. after   20 cycles
            NFock= 20  Conv=0.94D-08     -V/T= 2.0021
 <Sx>= 0.0000 <Sy>= 0.0000 <Sz>= 2.5000 <S**2>= 8.7627 S= 2.5021
 <L.S>= 0.000000000000E+00
 Annihilation of the first spin contaminant:
 S**2 before annihilation     8.7627,   after     8.7501
 1\1\GINC-HOLY7C08609\SP\UPBE1PBE\Jul-CC-pVDZ\C8H16Cl3Fe1O1(6)\EKWAN\11
 -Feb-2020\0\\#t pop=none jul-cc-pvdz upbe1pbe\\theory_abbreviation pbe
 0\\0,6\O,0,-0.377198,-0.0643,-0.464364\C,0,-1.272985,-1.050912,-0.4257
 55\C,0,-3.062372,0.015025,-0.157671\C,0,-2.138484,1.058088,-0.245091\C
 ,0,-1.906152,1.757665,-1.544229\Fe,0,1.430669,0.049768,0.055659\Cl,0,2
 .016187,1.991645,-0.802122\C,0,-1.60302,1.739192,0.972874\Cl,0,2.35532
 ,-1.761261,-0.792525\Cl,0,1.437674,0.043788,2.266379\H,0,-3.57833,-0.2
 36343,-1.081803\H,0,-2.382338,2.43458,1.319485\H,0,-1.388394,1.050862,
 1.791114\H,0,-0.70182,2.311692,0.748767\H,0,-2.544384,2.65454,-1.53072
 4\H,0,-0.868459,2.080032,-1.64938\H,0,-2.204897,1.156634,-2.405478\C,0
 ,-3.784038,-0.381355,1.105394\H,0,-4.687498,0.230503,1.228612\H,0,-4.1
 08293,-1.425822,1.063325\H,0,-3.176793,-0.25242,2.003816\C,0,-1.225813
 ,-1.948964,0.777506\H,0,-2.078442,-2.628337,0.827542\H,0,-0.311401,-2.
 549986,0.664143\H,0,-1.121904,-1.385676,1.705493\C,0,-1.528393,-1.7207
 64,-1.749315\H,0,-0.611844,-2.282095,-1.981543\H,0,-2.371428,-2.4146,-
 1.708744\H,0,-1.67214,-0.991896,-2.548594\\Version=ES64L-G16RevA.03\HF
 =-3033.0924147\S2=8.76269\S2-1=0.\S2A=8.75005\RMSD=9.365e-09\PG=C01 [X
 (C8H16Cl3Fe1O1)]\\@


 You can't act like a skunk without someone's getting wind of it.
 -- Lorene Workman
 Job cpu time:       0 days  1 hours 29 minutes 20.9 seconds.
 Elapsed time:       0 days  0 hours 22 minutes 39.3 seconds.
 File lengths (MBytes):  RWF=    173 Int=      0 D2E=      0 Chk=     13 Scr=      1
 Normal termination of Gaussian 16 at Tue Feb 11 14:00:26 2020.
 Initial command:
 /n/sw/g16_nehalem/g16/l1.exe "/scratch/Gau-48855.inp" -scrdir="/scratch/"
 Entering Link 1 = /n/sw/g16_nehalem/g16/l1.exe PID=     50696.
  
 Copyright (c) 1988,1990,1992,1993,1995,1998,2003,2009,2016,
            Gaussian, Inc.  All Rights Reserved.
  
 This is part of the Gaussian(R) 16 program.  It is based on
 the Gaussian(R) 09 system (copyright 2009, Gaussian, Inc.),
 the Gaussian(R) 03 system (copyright 2003, Gaussian, Inc.),
 the Gaussian(R) 98 system (copyright 1998, Gaussian, Inc.),
 the Gaussian(R) 94 system (copyright 1995, Gaussian, Inc.),
 the Gaussian 92(TM) system (copyright 1992, Gaussian, Inc.),
 the Gaussian 90(TM) system (copyright 1990, Gaussian, Inc.),
 the Gaussian 88(TM) system (copyright 1988, Gaussian, Inc.),
 the Gaussian 86(TM) system (copyright 1986, Carnegie Mellon
 University), and the Gaussian 82(TM) system (copyright 1983,
 Carnegie Mellon University). Gaussian is a federally registered
 trademark of Gaussian, Inc.
  
 This software contains proprietary and confidential information,
 including trade secrets, belonging to Gaussian, Inc.
  
 This software is provided under written license and may be
 used, copied, transmitted, or stored only in accord with that
 written license.
  
 The following legend is applicable only to US Government
 contracts under FAR:
  
                    RESTRICTED RIGHTS LEGEND
  
 Use, reproduction and disclosure by the US Government is
 subject to restrictions as set forth in subparagraphs (a)
 and (c) of the Commercial Computer Software - Restricted
 Rights clause in FAR 52.227-19.
  
 Gaussian, Inc.
 340 Quinnipiac St., Bldg. 40, Wallingford CT 06492
  
  
 ---------------------------------------------------------------
 Warning -- This program may not be used in any manner that
 competes with the business of Gaussian, Inc. or will provide
 assistance to any competitor of Gaussian, Inc.  The licensee
 of this program is prohibited from giving any competitor of
 Gaussian, Inc. access to this program.  By using this program,
 the user acknowledges that Gaussian, Inc. is engaged in the
 business of creating and licensing software in the field of
 computational chemistry and represents and warrants to the
 licensee that it is not a competitor of Gaussian, Inc. and that
 it will not use this program in any manner prohibited above.
 ---------------------------------------------------------------
  

 Cite this work as:
 Gaussian 16, Revision A.03,
 M. J. Frisch, G. W. Trucks, H. B. Schlegel, G. E. Scuseria, 
 M. A. Robb, J. R. Cheeseman, G. Scalmani, V. Barone, 
 G. A. Petersson, H. Nakatsuji, X. Li, M. Caricato, A. V. Marenich, 
 J. Bloino, B. G. Janesko, R. Gomperts, B. Mennucci, H. P. Hratchian, 
 J. V. Ortiz, A. F. Izmaylov, J. L. Sonnenberg, D. Williams-Young, 
 F. Ding, F. Lipparini, F. Egidi, J. Goings, B. Peng, A. Petrone, 
 T. Henderson, D. Ranasinghe, V. G. Zakrzewski, J. Gao, N. Rega, 
 G. Zheng, W. Liang, M. Hada, M. Ehara, K. Toyota, R. Fukuda, 
 J. Hasegawa, M. Ishida, T. Nakajima, Y. Honda, O. Kitao, H. Nakai, 
 T. Vreven, K. Throssell, J. A. Montgomery, Jr., J. E. Peralta, 
 F. Ogliaro, M. J. Bearpark, J. J. Heyd, E. N. Brothers, K. N. Kudin, 
 V. N. Staroverov, T. A. Keith, R. Kobayashi, J. Normand, 
 K. Raghavachari, A. P. Rendell, J. C. Burant, S. S. Iyengar, 
 J. Tomasi, M. Cossi, J. M. Millam, M. Klene, C. Adamo, R. Cammi, 
 J. W. Ochterski, R. L. Martin, K. Morokuma, O. Farkas, 
 J. B. Foresman, and D. J. Fox, Gaussian, Inc., Wallingford CT, 2016.
 
 ******************************************
 Gaussian 16:  ES64L-G16RevA.03 25-Dec-2016
                11-Feb-2020 
 ******************************************
 %chk=checkpoint.chk
 %mem=3GB
 %nprocshared=4
 Will use up to    4 processors via shared memory.
 ---------------------------------------------------------------------
 #t pop=none jul-cc-pvdz guess=read upbe1pbe empiricaldispersion=gd3bj
 ---------------------------------------------------------------------
 -----------------------------
 theory_abbreviation pbe0_d3bj
 -----------------------------
 Symbolic Z-matrix:
 Charge =  0 Multiplicity = 6
 O                    -0.3772   -0.0643   -0.46436 
 C                    -1.27299  -1.05091  -0.42576 
 C                    -3.06237   0.01503  -0.15767 
 C                    -2.13848   1.05809  -0.24509 
 C                    -1.90615   1.75767  -1.54423 
 Fe                    1.43067   0.04977   0.05566 
 Cl                    2.01619   1.99165  -0.80212 
 C                    -1.60302   1.73919   0.97287 
 Cl                    2.35532  -1.76126  -0.79253 
 Cl                    1.43767   0.04379   2.26638 
 H                    -3.57833  -0.23634  -1.0818 
 H                    -2.38234   2.43458   1.31949 
 H                    -1.38839   1.05086   1.79111 
 H                    -0.70182   2.31169   0.74877 
 H                    -2.54438   2.65454  -1.53072 
 H                    -0.86846   2.08003  -1.64938 
 H                    -2.2049    1.15663  -2.40548 
 C                    -3.78404  -0.38136   1.10539 
 H                    -4.6875    0.2305    1.22861 
 H                    -4.10829  -1.42582   1.06333 
 H                    -3.17679  -0.25242   2.00382 
 C                    -1.22581  -1.94896   0.77751 
 H                    -2.07844  -2.62834   0.82754 
 H                    -0.3114   -2.54999   0.66414 
 H                    -1.1219   -1.38568   1.70549 
 C                    -1.52839  -1.72076  -1.74932 
 H                    -0.61184  -2.28209  -1.98154 
 H                    -2.37143  -2.4146   -1.70874 
 H                    -1.67214  -0.9919   -2.54859 
 
                    Distance matrix (angstroms):
                    1          2          3          4          5
     1  O    0.000000
     2  C    1.333165   0.000000
     3  C    2.703796   2.099999   0.000000
     4  C    2.099991   2.286834   1.396135   0.000000
     5  C    2.612157   3.088687   2.509219   1.493702   0.000000
     6  Fe   1.884627   2.958547   4.498237   3.721023   4.075651
     7  Cl   3.173213   4.496383   5.487632   4.294543   3.998776
     8  C    2.611681   3.138434   2.525983   1.494678   2.535358
     9  Cl   3.233268   3.715335   5.736691   5.333169   5.577458
    10  Cl   3.280610   3.974119   5.111483   4.486111   5.351568
    11  H    3.264671   2.531509   1.087850   2.109217   2.643120
    12  H    3.667029   4.052799   2.915250   2.098117   2.980910
    13  H    2.711694   3.057005   2.770004   2.169981   3.448501
    14  H    2.687453   3.607331   3.415921   2.150181   2.648621
    15  H    3.636744   4.070355   3.020037   2.089561   1.100867
    16  H    2.498752   3.385810   3.361949   2.151595   1.091689
    17  H    2.932420   3.108219   2.662925   2.163653   1.091896
    18  C    3.764468   3.016308   1.507731   2.569758   3.888748
    19  H    4.640233   4.004729   2.146915   3.058459   4.213877
    20  H    4.255425   3.224421   2.158894   3.429564   4.667264
    21  H    3.736982   3.188242   2.180973   2.802338   4.271252
    22  C    2.411296   1.502185   2.846886   3.304699   4.426332
    23  H    3.337295   2.169743   2.987662   3.839775   4.989188
    24  H    2.730658   2.088000   3.850000   4.145255   5.096665
    25  H    2.647433   2.162663   3.032946   3.287886   4.588718
    26  C    2.391699   1.505240   2.810585   3.218217   3.504887
    27  H    2.697315   2.091266   3.822088   4.062354   4.264521
    28  H    3.324056   2.170779   2.964171   3.775726   4.201350
    29  H    2.623228   2.160845   2.943323   3.118660   2.936596
                    6          7          8          9         10
     6  Fe   0.000000
     7  Cl   2.202159   0.000000
     8  C    3.591477   4.038936   0.000000
     9  Cl   2.203230   3.768210   5.571199   0.000000
    10  Cl   2.210739   3.680288   3.713943   3.668402   0.000000
    11  H    5.144487   6.028331   3.467894   6.133291   6.037308
    12  H    4.671574   4.903512   1.100473   6.671662   4.604887
    13  H    3.458484   4.381908   1.090587   5.347768   3.037554
    14  H    3.184997   3.145671   1.090936   5.320774   3.467560
    15  H    5.010239   4.665737   2.827018   6.637118   6.090222
    16  H    3.509290   3.007797   2.744443   5.087483   4.979730
    17  H    4.527658   4.591900   3.480645   5.649009   6.027686
    18  C    5.336757   6.550752   3.044851   6.572515   5.366089
    19  H    6.232211   7.222527   3.443189   7.592984   6.215268
    20  H    5.820039   7.257288   4.037560   6.733126   5.862153
    21  H    5.011521   6.314757   2.739730   6.379686   4.631413
    22  C    3.401895   5.341740   3.712539   3.914683   3.644443
    23  H    4.481284   6.384828   4.395732   4.799446   4.644736
    24  H    3.188069   5.309803   4.490060   3.139326   3.514838
    25  H    3.361262   5.248052   3.245459   4.297935   2.984862
    26  C    3.892141   5.219502   4.403087   4.000039   5.294997
    27  H    3.709398   5.153876   5.087412   3.238687   5.258811
    28  H    4.862321   6.283958   5.003550   4.858853   6.029472
    29  H    4.182657   5.055239   4.456945   4.460508   5.824736
                   11         12         13         14         15
    11  H    0.000000
    12  H    3.785553   0.000000
    13  H    3.834888   1.767777   0.000000
    14  H    4.256498   1.779034   1.774137   0.000000
    15  H    3.102866   2.863273   3.865579   2.951045   0.000000
    16  H    3.609867   3.351372   3.628570   2.415066   1.775630
    17  H    2.361952   3.942078   4.276593   3.680035   1.767532
    18  C    2.201630   3.152790   2.874120   4.108498   4.207436
    19  H    2.605037   3.190607   3.445792   4.521861   4.252391
    20  H    2.509441   4.236419   3.749865   5.066756   5.081757
    21  H    3.111677   2.884343   2.223096   3.778268   4.619884
    22  C    3.453178   4.565824   3.170613   4.292853   5.315901
    23  H    3.408357   5.095831   3.865377   5.128858   5.804077
    24  H    4.367390   5.437293   3.923784   4.878063   6.073775
    25  H    3.888961   4.041293   2.452563   3.842177   5.368416
    26  C    2.617503   5.235804   4.498461   4.815012   4.497033
    27  H    3.714118   6.023160   5.093582   5.344677   5.320556
    28  H    2.567970   5.717065   5.022429   5.582543   5.075213
    29  H    2.521090   5.216048   4.804835   4.767369   3.885018
                   16         17         18         19         20
    16  H    0.000000
    17  H    1.791763   0.000000
    18  C    4.706146   4.145518   0.000000
    19  H    5.127246   4.497514   1.098086   0.000000
    20  H    5.490565   4.724890   1.094451   1.762445   0.000000
    21  H    4.910660   4.729893   1.092032   1.765329   1.768923
    22  C    4.717021   4.553541   3.018182   4.115439   2.943478
    23  H    5.456000   4.979399   2.834641   3.891143   2.371061
    24  H    5.205744   5.171744   4.117872   5.215359   3.979884
    25  H    4.830170   4.953413   2.907875   3.943718   3.054916
    26  C    3.858957   3.027809   3.877024   4.759773   3.828031
    27  H    4.382275   3.813449   4.817137   5.764477   4.714826
    28  H    4.739637   3.642373   3.748190   4.581355   3.417418
    29  H    3.300186   2.218219   4.264329   4.985371   4.378252
                   21         22         23         24         25
    21  H    0.000000
    22  C    2.861542   0.000000
    23  H    2.869665   1.091342   0.000000
    24  H    3.909476   1.100104   1.776309   0.000000
    25  H    2.365552   1.090528   1.797212   1.759813   0.000000
    26  C    4.354222   2.555084   2.786832   2.827270   3.494741
    27  H    5.155738   2.846100   3.187750   2.676133   3.828572
    28  H    4.371125   2.776813   2.562083   3.145256   3.778493
    29  H    4.851313   3.489717   3.773767   3.821117   4.307561
                   26         27         28         29
    26  C    0.000000
    27  H    1.099584   0.000000
    28  H    1.092594   1.785529   0.000000
    29  H    1.091219   1.763629   1.794001   0.000000
 Framework group  C1[X(C8H16Cl3FeO)]
 Deg. of freedom    81
                         Standard orientation:                         
 ---------------------------------------------------------------------
 Center     Atomic      Atomic             Coordinates (Angstroms)
 Number     Number       Type             X           Y           Z
 ---------------------------------------------------------------------
      1          8           0       -0.377198   -0.064300   -0.464364
      2          6           0       -1.272985   -1.050912   -0.425755
      3          6           0       -3.062372    0.015025   -0.157671
      4          6           0       -2.138484    1.058088   -0.245091
      5          6           0       -1.906152    1.757665   -1.544229
      6         26           0        1.430669    0.049768    0.055659
      7         17           0        2.016187    1.991645   -0.802122
      8          6           0       -1.603020    1.739192    0.972874
      9         17           0        2.355320   -1.761261   -0.792525
     10         17           0        1.437674    0.043788    2.266379
     11          1           0       -3.578330   -0.236343   -1.081803
     12          1           0       -2.382338    2.434580    1.319485
     13          1           0       -1.388394    1.050862    1.791114
     14          1           0       -0.701820    2.311692    0.748767
     15          1           0       -2.544384    2.654540   -1.530724
     16          1           0       -0.868459    2.080032   -1.649380
     17          1           0       -2.204897    1.156634   -2.405478
     18          6           0       -3.784038   -0.381355    1.105394
     19          1           0       -4.687498    0.230503    1.228612
     20          1           0       -4.108293   -1.425822    1.063325
     21          1           0       -3.176793   -0.252420    2.003816
     22          6           0       -1.225813   -1.948964    0.777506
     23          1           0       -2.078442   -2.628337    0.827542
     24          1           0       -0.311401   -2.549986    0.664143
     25          1           0       -1.121904   -1.385676    1.705493
     26          6           0       -1.528393   -1.720764   -1.749315
     27          1           0       -0.611844   -2.282095   -1.981543
     28          1           0       -2.371428   -2.414600   -1.708744
     29          1           0       -1.672140   -0.991896   -2.548594
 ---------------------------------------------------------------------
 Rotational constants (GHZ):           0.5898630           0.3447403           0.3198585
   427 basis functions,  1056 primitive gaussians,   461 cartesian basis functions
    77 alpha electrons       72 beta electrons
       nuclear repulsion energy      1657.8748469138 Hartrees.
 NAtoms=   29 NActive=   29 NUniq=   29 SFac= 1.00D+00 NAtFMM=   60 NAOKFM=F Big=F
 Nuclear repulsion after empirical dispersion term =     1657.8369772462 Hartrees.
 Initial guess from the checkpoint file:  "checkpoint.chk"
 B after Tr=     0.000000    0.000000    0.000000
         Rot=    1.000000    0.000000    0.000000    0.000000 Ang=   0.00 deg.
 Initial guess <Sx>= 0.0000 <Sy>= 0.0000 <Sz>= 2.5000 <S**2>= 8.7627 S= 2.5021
 SCF Done:  E(UPBE1PBE) =  -3033.13028436     A.U. after    1 cycles
            NFock=  1  Conv=0.31D-08     -V/T= 2.0021
 <Sx>= 0.0000 <Sy>= 0.0000 <Sz>= 2.5000 <S**2>= 8.7627 S= 2.5021
 <L.S>= 0.000000000000E+00
 Annihilation of the first spin contaminant:
 S**2 before annihilation     8.7627,   after     8.7501
 1\1\GINC-HOLY7C08609\SP\UPBE1PBE\Jul-CC-pVDZ\C8H16Cl3Fe1O1(6)\EKWAN\11
 -Feb-2020\0\\#t pop=none jul-cc-pvdz guess=read upbe1pbe empiricaldisp
 ersion=gd3bj\\theory_abbreviation pbe0_d3bj\\0,6\O,0,-0.377198,-0.0643
 ,-0.464364\C,0,-1.272985,-1.050912,-0.425755\C,0,-3.062372,0.015025,-0
 .157671\C,0,-2.138484,1.058088,-0.245091\C,0,-1.906152,1.757665,-1.544
 229\Fe,0,1.430669,0.049768,0.055659\Cl,0,2.016187,1.991645,-0.802122\C
 ,0,-1.60302,1.739192,0.972874\Cl,0,2.35532,-1.761261,-0.792525\Cl,0,1.
 437674,0.043788,2.266379\H,0,-3.57833,-0.236343,-1.081803\H,0,-2.38233
 8,2.43458,1.319485\H,0,-1.388394,1.050862,1.791114\H,0,-0.70182,2.3116
 92,0.748767\H,0,-2.544384,2.65454,-1.530724\H,0,-0.868459,2.080032,-1.
 64938\H,0,-2.204897,1.156634,-2.405478\C,0,-3.784038,-0.381355,1.10539
 4\H,0,-4.687498,0.230503,1.228612\H,0,-4.108293,-1.425822,1.063325\H,0
 ,-3.176793,-0.25242,2.003816\C,0,-1.225813,-1.948964,0.777506\H,0,-2.0
 78442,-2.628337,0.827542\H,0,-0.311401,-2.549986,0.664143\H,0,-1.12190
 4,-1.385676,1.705493\C,0,-1.528393,-1.720764,-1.749315\H,0,-0.611844,-
 2.282095,-1.981543\H,0,-2.371428,-2.4146,-1.708744\H,0,-1.67214,-0.991
 896,-2.548594\\Version=ES64L-G16RevA.03\HF=-3033.1302844\S2=8.76269\S2
 -1=0.\S2A=8.75005\RMSD=3.091e-09\PG=C01 [X(C8H16Cl3Fe1O1)]\\@


 ANYONE WHO IS NOT SHOCKED BY QUANTUM THEORY HAS
 NOT UNDERSTOOD IT. -- NIELS BOHR(1885-1962)
 Job cpu time:       0 days  0 hours  4 minutes 44.7 seconds.
 Elapsed time:       0 days  0 hours  1 minutes 11.8 seconds.
 File lengths (MBytes):  RWF=    170 Int=      0 D2E=      0 Chk=     13 Scr=      1
 Normal termination of Gaussian 16 at Tue Feb 11 14:01:38 2020.
 Initial command:
 /n/sw/g16_nehalem/g16/l1.exe "/scratch/Gau-48855.inp" -scrdir="/scratch/"
 Entering Link 1 = /n/sw/g16_nehalem/g16/l1.exe PID=     51120.
  
 Copyright (c) 1988,1990,1992,1993,1995,1998,2003,2009,2016,
            Gaussian, Inc.  All Rights Reserved.
  
 This is part of the Gaussian(R) 16 program.  It is based on
 the Gaussian(R) 09 system (copyright 2009, Gaussian, Inc.),
 the Gaussian(R) 03 system (copyright 2003, Gaussian, Inc.),
 the Gaussian(R) 98 system (copyright 1998, Gaussian, Inc.),
 the Gaussian(R) 94 system (copyright 1995, Gaussian, Inc.),
 the Gaussian 92(TM) system (copyright 1992, Gaussian, Inc.),
 the Gaussian 90(TM) system (copyright 1990, Gaussian, Inc.),
 the Gaussian 88(TM) system (copyright 1988, Gaussian, Inc.),
 the Gaussian 86(TM) system (copyright 1986, Carnegie Mellon
 University), and the Gaussian 82(TM) system (copyright 1983,
 Carnegie Mellon University). Gaussian is a federally registered
 trademark of Gaussian, Inc.
  
 This software contains proprietary and confidential information,
 including trade secrets, belonging to Gaussian, Inc.
  
 This software is provided under written license and may be
 used, copied, transmitted, or stored only in accord with that
 written license.
  
 The following legend is applicable only to US Government
 contracts under FAR:
  
                    RESTRICTED RIGHTS LEGEND
  
 Use, reproduction and disclosure by the US Government is
 subject to restrictions as set forth in subparagraphs (a)
 and (c) of the Commercial Computer Software - Restricted
 Rights clause in FAR 52.227-19.
  
 Gaussian, Inc.
 340 Quinnipiac St., Bldg. 40, Wallingford CT 06492
  
  
 ---------------------------------------------------------------
 Warning -- This program may not be used in any manner that
 competes with the business of Gaussian, Inc. or will provide
 assistance to any competitor of Gaussian, Inc.  The licensee
 of this program is prohibited from giving any competitor of
 Gaussian, Inc. access to this program.  By using this program,
 the user acknowledges that Gaussian, Inc. is engaged in the
 business of creating and licensing software in the field of
 computational chemistry and represents and warrants to the
 licensee that it is not a competitor of Gaussian, Inc. and that
 it will not use this program in any manner prohibited above.
 ---------------------------------------------------------------
  

 Cite this work as:
 Gaussian 16, Revision A.03,
 M. J. Frisch, G. W. Trucks, H. B. Schlegel, G. E. Scuseria, 
 M. A. Robb, J. R. Cheeseman, G. Scalmani, V. Barone, 
 G. A. Petersson, H. Nakatsuji, X. Li, M. Caricato, A. V. Marenich, 
 J. Bloino, B. G. Janesko, R. Gomperts, B. Mennucci, H. P. Hratchian, 
 J. V. Ortiz, A. F. Izmaylov, J. L. Sonnenberg, D. Williams-Young, 
 F. Ding, F. Lipparini, F. Egidi, J. Goings, B. Peng, A. Petrone, 
 T. Henderson, D. Ranasinghe, V. G. Zakrzewski, J. Gao, N. Rega, 
 G. Zheng, W. Liang, M. Hada, M. Ehara, K. Toyota, R. Fukuda, 
 J. Hasegawa, M. Ishida, T. Nakajima, Y. Honda, O. Kitao, H. Nakai, 
 T. Vreven, K. Throssell, J. A. Montgomery, Jr., J. E. Peralta, 
 F. Ogliaro, M. J. Bearpark, J. J. Heyd, E. N. Brothers, K. N. Kudin, 
 V. N. Staroverov, T. A. Keith, R. Kobayashi, J. Normand, 
 K. Raghavachari, A. P. Rendell, J. C. Burant, S. S. Iyengar, 
 J. Tomasi, M. Cossi, J. M. Millam, M. Klene, C. Adamo, R. Cammi, 
 J. W. Ochterski, R. L. Martin, K. Morokuma, O. Farkas, 
 J. B. Foresman, and D. J. Fox, Gaussian, Inc., Wallingford CT, 2016.
 
 ******************************************
 Gaussian 16:  ES64L-G16RevA.03 25-Dec-2016
                11-Feb-2020 
 ******************************************
 %chk=checkpoint.chk
 %mem=3GB
 %nprocshared=4
 Will use up to    4 processors via shared memory.
 -----------------------------------------
 #t pop=none jul-cc-pvdz guess=read ub3lyp
 -----------------------------------------
 -------------------------
 theory_abbreviation b3lyp
 -------------------------
 Symbolic Z-matrix:
 Charge =  0 Multiplicity = 6
 O                    -0.3772   -0.0643   -0.46436 
 C                    -1.27299  -1.05091  -0.42576 
 C                    -3.06237   0.01503  -0.15767 
 C                    -2.13848   1.05809  -0.24509 
 C                    -1.90615   1.75767  -1.54423 
 Fe                    1.43067   0.04977   0.05566 
 Cl                    2.01619   1.99165  -0.80212 
 C                    -1.60302   1.73919   0.97287 
 Cl                    2.35532  -1.76126  -0.79253 
 Cl                    1.43767   0.04379   2.26638 
 H                    -3.57833  -0.23634  -1.0818 
 H                    -2.38234   2.43458   1.31949 
 H                    -1.38839   1.05086   1.79111 
 H                    -0.70182   2.31169   0.74877 
 H                    -2.54438   2.65454  -1.53072 
 H                    -0.86846   2.08003  -1.64938 
 H                    -2.2049    1.15663  -2.40548 
 C                    -3.78404  -0.38136   1.10539 
 H                    -4.6875    0.2305    1.22861 
 H                    -4.10829  -1.42582   1.06333 
 H                    -3.17679  -0.25242   2.00382 
 C                    -1.22581  -1.94896   0.77751 
 H                    -2.07844  -2.62834   0.82754 
 H                    -0.3114   -2.54999   0.66414 
 H                    -1.1219   -1.38568   1.70549 
 C                    -1.52839  -1.72076  -1.74932 
 H                    -0.61184  -2.28209  -1.98154 
 H                    -2.37143  -2.4146   -1.70874 
 H                    -1.67214  -0.9919   -2.54859 
 
                    Distance matrix (angstroms):
                    1          2          3          4          5
     1  O    0.000000
     2  C    1.333165   0.000000
     3  C    2.703796   2.099999   0.000000
     4  C    2.099991   2.286834   1.396135   0.000000
     5  C    2.612157   3.088687   2.509219   1.493702   0.000000
     6  Fe   1.884627   2.958547   4.498237   3.721023   4.075651
     7  Cl   3.173213   4.496383   5.487632   4.294543   3.998776
     8  C    2.611681   3.138434   2.525983   1.494678   2.535358
     9  Cl   3.233268   3.715335   5.736691   5.333169   5.577458
    10  Cl   3.280610   3.974119   5.111483   4.486111   5.351568
    11  H    3.264671   2.531509   1.087850   2.109217   2.643120
    12  H    3.667029   4.052799   2.915250   2.098117   2.980910
    13  H    2.711694   3.057005   2.770004   2.169981   3.448501
    14  H    2.687453   3.607331   3.415921   2.150181   2.648621
    15  H    3.636744   4.070355   3.020037   2.089561   1.100867
    16  H    2.498752   3.385810   3.361949   2.151595   1.091689
    17  H    2.932420   3.108219   2.662925   2.163653   1.091896
    18  C    3.764468   3.016308   1.507731   2.569758   3.888748
    19  H    4.640233   4.004729   2.146915   3.058459   4.213877
    20  H    4.255425   3.224421   2.158894   3.429564   4.667264
    21  H    3.736982   3.188242   2.180973   2.802338   4.271252
    22  C    2.411296   1.502185   2.846886   3.304699   4.426332
    23  H    3.337295   2.169743   2.987662   3.839775   4.989188
    24  H    2.730658   2.088000   3.850000   4.145255   5.096665
    25  H    2.647433   2.162663   3.032946   3.287886   4.588718
    26  C    2.391699   1.505240   2.810585   3.218217   3.504887
    27  H    2.697315   2.091266   3.822088   4.062354   4.264521
    28  H    3.324056   2.170779   2.964171   3.775726   4.201350
    29  H    2.623228   2.160845   2.943323   3.118660   2.936596
                    6          7          8          9         10
     6  Fe   0.000000
     7  Cl   2.202159   0.000000
     8  C    3.591477   4.038936   0.000000
     9  Cl   2.203230   3.768210   5.571199   0.000000
    10  Cl   2.210739   3.680288   3.713943   3.668402   0.000000
    11  H    5.144487   6.028331   3.467894   6.133291   6.037308
    12  H    4.671574   4.903512   1.100473   6.671662   4.604887
    13  H    3.458484   4.381908   1.090587   5.347768   3.037554
    14  H    3.184997   3.145671   1.090936   5.320774   3.467560
    15  H    5.010239   4.665737   2.827018   6.637118   6.090222
    16  H    3.509290   3.007797   2.744443   5.087483   4.979730
    17  H    4.527658   4.591900   3.480645   5.649009   6.027686
    18  C    5.336757   6.550752   3.044851   6.572515   5.366089
    19  H    6.232211   7.222527   3.443189   7.592984   6.215268
    20  H    5.820039   7.257288   4.037560   6.733126   5.862153
    21  H    5.011521   6.314757   2.739730   6.379686   4.631413
    22  C    3.401895   5.341740   3.712539   3.914683   3.644443
    23  H    4.481284   6.384828   4.395732   4.799446   4.644736
    24  H    3.188069   5.309803   4.490060   3.139326   3.514838
    25  H    3.361262   5.248052   3.245459   4.297935   2.984862
    26  C    3.892141   5.219502   4.403087   4.000039   5.294997
    27  H    3.709398   5.153876   5.087412   3.238687   5.258811
    28  H    4.862321   6.283958   5.003550   4.858853   6.029472
    29  H    4.182657   5.055239   4.456945   4.460508   5.824736
                   11         12         13         14         15
    11  H    0.000000
    12  H    3.785553   0.000000
    13  H    3.834888   1.767777   0.000000
    14  H    4.256498   1.779034   1.774137   0.000000
    15  H    3.102866   2.863273   3.865579   2.951045   0.000000
    16  H    3.609867   3.351372   3.628570   2.415066   1.775630
    17  H    2.361952   3.942078   4.276593   3.680035   1.767532
    18  C    2.201630   3.152790   2.874120   4.108498   4.207436
    19  H    2.605037   3.190607   3.445792   4.521861   4.252391
    20  H    2.509441   4.236419   3.749865   5.066756   5.081757
    21  H    3.111677   2.884343   2.223096   3.778268   4.619884
    22  C    3.453178   4.565824   3.170613   4.292853   5.315901
    23  H    3.408357   5.095831   3.865377   5.128858   5.804077
    24  H    4.367390   5.437293   3.923784   4.878063   6.073775
    25  H    3.888961   4.041293   2.452563   3.842177   5.368416
    26  C    2.617503   5.235804   4.498461   4.815012   4.497033
    27  H    3.714118   6.023160   5.093582   5.344677   5.320556
    28  H    2.567970   5.717065   5.022429   5.582543   5.075213
    29  H    2.521090   5.216048   4.804835   4.767369   3.885018
                   16         17         18         19         20
    16  H    0.000000
    17  H    1.791763   0.000000
    18  C    4.706146   4.145518   0.000000
    19  H    5.127246   4.497514   1.098086   0.000000
    20  H    5.490565   4.724890   1.094451   1.762445   0.000000
    21  H    4.910660   4.729893   1.092032   1.765329   1.768923
    22  C    4.717021   4.553541   3.018182   4.115439   2.943478
    23  H    5.456000   4.979399   2.834641   3.891143   2.371061
    24  H    5.205744   5.171744   4.117872   5.215359   3.979884
    25  H    4.830170   4.953413   2.907875   3.943718   3.054916
    26  C    3.858957   3.027809   3.877024   4.759773   3.828031
    27  H    4.382275   3.813449   4.817137   5.764477   4.714826
    28  H    4.739637   3.642373   3.748190   4.581355   3.417418
    29  H    3.300186   2.218219   4.264329   4.985371   4.378252
                   21         22         23         24         25
    21  H    0.000000
    22  C    2.861542   0.000000
    23  H    2.869665   1.091342   0.000000
    24  H    3.909476   1.100104   1.776309   0.000000
    25  H    2.365552   1.090528   1.797212   1.759813   0.000000
    26  C    4.354222   2.555084   2.786832   2.827270   3.494741
    27  H    5.155738   2.846100   3.187750   2.676133   3.828572
    28  H    4.371125   2.776813   2.562083   3.145256   3.778493
    29  H    4.851313   3.489717   3.773767   3.821117   4.307561
                   26         27         28         29
    26  C    0.000000
    27  H    1.099584   0.000000
    28  H    1.092594   1.785529   0.000000
    29  H    1.091219   1.763629   1.794001   0.000000
 Framework group  C1[X(C8H16Cl3FeO)]
 Deg. of freedom    81
                         Standard orientation:                         
 ---------------------------------------------------------------------
 Center     Atomic      Atomic             Coordinates (Angstroms)
 Number     Number       Type             X           Y           Z
 ---------------------------------------------------------------------
      1          8           0       -0.377198   -0.064300   -0.464364
      2          6           0       -1.272985   -1.050912   -0.425755
      3          6           0       -3.062372    0.015025   -0.157671
      4          6           0       -2.138484    1.058088   -0.245091
      5          6           0       -1.906152    1.757665   -1.544229
      6         26           0        1.430669    0.049768    0.055659
      7         17           0        2.016187    1.991645   -0.802122
      8          6           0       -1.603020    1.739192    0.972874
      9         17           0        2.355320   -1.761261   -0.792525
     10         17           0        1.437674    0.043788    2.266379
     11          1           0       -3.578330   -0.236343   -1.081803
     12          1           0       -2.382338    2.434580    1.319485
     13          1           0       -1.388394    1.050862    1.791114
     14          1           0       -0.701820    2.311692    0.748767
     15          1           0       -2.544384    2.654540   -1.530724
     16          1           0       -0.868459    2.080032   -1.649380
     17          1           0       -2.204897    1.156634   -2.405478
     18          6           0       -3.784038   -0.381355    1.105394
     19          1           0       -4.687498    0.230503    1.228612
     20          1           0       -4.108293   -1.425822    1.063325
     21          1           0       -3.176793   -0.252420    2.003816
     22          6           0       -1.225813   -1.948964    0.777506
     23          1           0       -2.078442   -2.628337    0.827542
     24          1           0       -0.311401   -2.549986    0.664143
     25          1           0       -1.121904   -1.385676    1.705493
     26          6           0       -1.528393   -1.720764   -1.749315
     27          1           0       -0.611844   -2.282095   -1.981543
     28          1           0       -2.371428   -2.414600   -1.708744
     29          1           0       -1.672140   -0.991896   -2.548594
 ---------------------------------------------------------------------
 Rotational constants (GHZ):           0.5898630           0.3447403           0.3198585
   427 basis functions,  1056 primitive gaussians,   461 cartesian basis functions
    77 alpha electrons       72 beta electrons
       nuclear repulsion energy      1657.8748469138 Hartrees.
 NAtoms=   29 NActive=   29 NUniq=   29 SFac= 1.00D+00 NAtFMM=   60 NAOKFM=F Big=F
 Initial guess from the checkpoint file:  "checkpoint.chk"
 B after Tr=     0.000000    0.000000    0.000000
         Rot=    1.000000    0.000000    0.000000    0.000000 Ang=   0.00 deg.
 Initial guess <Sx>= 0.0000 <Sy>= 0.0000 <Sz>= 2.5000 <S**2>= 8.7627 S= 2.5021
 SCF Done:  E(UB3LYP) =  -3034.30536853     A.U. after   15 cycles
            NFock= 15  Conv=0.59D-08     -V/T= 2.0024
 <Sx>= 0.0000 <Sy>= 0.0000 <Sz>= 2.5000 <S**2>= 8.7619 S= 2.5020
 <L.S>= 0.000000000000E+00
 Annihilation of the first spin contaminant:
 S**2 before annihilation     8.7619,   after     8.7500
 1\1\GINC-HOLY7C08609\SP\UB3LYP\Jul-CC-pVDZ\C8H16Cl3Fe1O1(6)\EKWAN\11-F
 eb-2020\0\\#t pop=none jul-cc-pvdz guess=read ub3lyp\\theory_abbreviat
 ion b3lyp\\0,6\O,0,-0.377198,-0.0643,-0.464364\C,0,-1.272985,-1.050912
 ,-0.425755\C,0,-3.062372,0.015025,-0.157671\C,0,-2.138484,1.058088,-0.
 245091\C,0,-1.906152,1.757665,-1.544229\Fe,0,1.430669,0.049768,0.05565
 9\Cl,0,2.016187,1.991645,-0.802122\C,0,-1.60302,1.739192,0.972874\Cl,0
 ,2.35532,-1.761261,-0.792525\Cl,0,1.437674,0.043788,2.266379\H,0,-3.57
 833,-0.236343,-1.081803\H,0,-2.382338,2.43458,1.319485\H,0,-1.388394,1
 .050862,1.791114\H,0,-0.70182,2.311692,0.748767\H,0,-2.544384,2.65454,
 -1.530724\H,0,-0.868459,2.080032,-1.64938\H,0,-2.204897,1.156634,-2.40
 5478\C,0,-3.784038,-0.381355,1.105394\H,0,-4.687498,0.230503,1.228612\
 H,0,-4.108293,-1.425822,1.063325\H,0,-3.176793,-0.25242,2.003816\C,0,-
 1.225813,-1.948964,0.777506\H,0,-2.078442,-2.628337,0.827542\H,0,-0.31
 1401,-2.549986,0.664143\H,0,-1.121904,-1.385676,1.705493\C,0,-1.528393
 ,-1.720764,-1.749315\H,0,-0.611844,-2.282095,-1.981543\H,0,-2.371428,-
 2.4146,-1.708744\H,0,-1.67214,-0.991896,-2.548594\\Version=ES64L-G16Re
 vA.03\HF=-3034.3053685\S2=8.761884\S2-1=0.\S2A=8.750044\RMSD=5.924e-09
 \PG=C01 [X(C8H16Cl3Fe1O1)]\\@


 SACRED COWS MAKE GREAT HAMBURGERS -- ROBERT REISNER
 Job cpu time:       0 days  1 hours  4 minutes 52.9 seconds.
 Elapsed time:       0 days  0 hours 16 minutes 16.1 seconds.
 File lengths (MBytes):  RWF=    174 Int=      0 D2E=      0 Chk=     13 Scr=      1
 Normal termination of Gaussian 16 at Tue Feb 11 14:17:55 2020.
 Initial command:
 /n/sw/g16_nehalem/g16/l1.exe "/scratch/Gau-48855.inp" -scrdir="/scratch/"
 Entering Link 1 = /n/sw/g16_nehalem/g16/l1.exe PID=     52624.
  
 Copyright (c) 1988,1990,1992,1993,1995,1998,2003,2009,2016,
            Gaussian, Inc.  All Rights Reserved.
  
 This is part of the Gaussian(R) 16 program.  It is based on
 the Gaussian(R) 09 system (copyright 2009, Gaussian, Inc.),
 the Gaussian(R) 03 system (copyright 2003, Gaussian, Inc.),
 the Gaussian(R) 98 system (copyright 1998, Gaussian, Inc.),
 the Gaussian(R) 94 system (copyright 1995, Gaussian, Inc.),
 the Gaussian 92(TM) system (copyright 1992, Gaussian, Inc.),
 the Gaussian 90(TM) system (copyright 1990, Gaussian, Inc.),
 the Gaussian 88(TM) system (copyright 1988, Gaussian, Inc.),
 the Gaussian 86(TM) system (copyright 1986, Carnegie Mellon
 University), and the Gaussian 82(TM) system (copyright 1983,
 Carnegie Mellon University). Gaussian is a federally registered
 trademark of Gaussian, Inc.
  
 This software contains proprietary and confidential information,
 including trade secrets, belonging to Gaussian, Inc.
  
 This software is provided under written license and may be
 used, copied, transmitted, or stored only in accord with that
 written license.
  
 The following legend is applicable only to US Government
 contracts under FAR:
  
                    RESTRICTED RIGHTS LEGEND
  
 Use, reproduction and disclosure by the US Government is
 subject to restrictions as set forth in subparagraphs (a)
 and (c) of the Commercial Computer Software - Restricted
 Rights clause in FAR 52.227-19.
  
 Gaussian, Inc.
 340 Quinnipiac St., Bldg. 40, Wallingford CT 06492
  
  
 ---------------------------------------------------------------
 Warning -- This program may not be used in any manner that
 competes with the business of Gaussian, Inc. or will provide
 assistance to any competitor of Gaussian, Inc.  The licensee
 of this program is prohibited from giving any competitor of
 Gaussian, Inc. access to this program.  By using this program,
 the user acknowledges that Gaussian, Inc. is engaged in the
 business of creating and licensing software in the field of
 computational chemistry and represents and warrants to the
 licensee that it is not a competitor of Gaussian, Inc. and that
 it will not use this program in any manner prohibited above.
 ---------------------------------------------------------------
  

 Cite this work as:
 Gaussian 16, Revision A.03,
 M. J. Frisch, G. W. Trucks, H. B. Schlegel, G. E. Scuseria, 
 M. A. Robb, J. R. Cheeseman, G. Scalmani, V. Barone, 
 G. A. Petersson, H. Nakatsuji, X. Li, M. Caricato, A. V. Marenich, 
 J. Bloino, B. G. Janesko, R. Gomperts, B. Mennucci, H. P. Hratchian, 
 J. V. Ortiz, A. F. Izmaylov, J. L. Sonnenberg, D. Williams-Young, 
 F. Ding, F. Lipparini, F. Egidi, J. Goings, B. Peng, A. Petrone, 
 T. Henderson, D. Ranasinghe, V. G. Zakrzewski, J. Gao, N. Rega, 
 G. Zheng, W. Liang, M. Hada, M. Ehara, K. Toyota, R. Fukuda, 
 J. Hasegawa, M. Ishida, T. Nakajima, Y. Honda, O. Kitao, H. Nakai, 
 T. Vreven, K. Throssell, J. A. Montgomery, Jr., J. E. Peralta, 
 F. Ogliaro, M. J. Bearpark, J. J. Heyd, E. N. Brothers, K. N. Kudin, 
 V. N. Staroverov, T. A. Keith, R. Kobayashi, J. Normand, 
 K. Raghavachari, A. P. Rendell, J. C. Burant, S. S. Iyengar, 
 J. Tomasi, M. Cossi, J. M. Millam, M. Klene, C. Adamo, R. Cammi, 
 J. W. Ochterski, R. L. Martin, K. Morokuma, O. Farkas, 
 J. B. Foresman, and D. J. Fox, Gaussian, Inc., Wallingford CT, 2016.
 
 ******************************************
 Gaussian 16:  ES64L-G16RevA.03 25-Dec-2016
                11-Feb-2020 
 ******************************************
 %chk=checkpoint.chk
 %mem=3GB
 %nprocshared=4
 Will use up to    4 processors via shared memory.
 -------------------------------------------------------------------
 #t pop=none jul-cc-pvdz guess=read ub3lyp empiricaldispersion=gd3bj
 -------------------------------------------------------------------
 ------------------------------
 theory_abbreviation b3lyp_d3bj
 ------------------------------
 Symbolic Z-matrix:
 Charge =  0 Multiplicity = 6
 O                    -0.3772   -0.0643   -0.46436 
 C                    -1.27299  -1.05091  -0.42576 
 C                    -3.06237   0.01503  -0.15767 
 C                    -2.13848   1.05809  -0.24509 
 C                    -1.90615   1.75767  -1.54423 
 Fe                    1.43067   0.04977   0.05566 
 Cl                    2.01619   1.99165  -0.80212 
 C                    -1.60302   1.73919   0.97287 
 Cl                    2.35532  -1.76126  -0.79253 
 Cl                    1.43767   0.04379   2.26638 
 H                    -3.57833  -0.23634  -1.0818 
 H                    -2.38234   2.43458   1.31949 
 H                    -1.38839   1.05086   1.79111 
 H                    -0.70182   2.31169   0.74877 
 H                    -2.54438   2.65454  -1.53072 
 H                    -0.86846   2.08003  -1.64938 
 H                    -2.2049    1.15663  -2.40548 
 C                    -3.78404  -0.38136   1.10539 
 H                    -4.6875    0.2305    1.22861 
 H                    -4.10829  -1.42582   1.06333 
 H                    -3.17679  -0.25242   2.00382 
 C                    -1.22581  -1.94896   0.77751 
 H                    -2.07844  -2.62834   0.82754 
 H                    -0.3114   -2.54999   0.66414 
 H                    -1.1219   -1.38568   1.70549 
 C                    -1.52839  -1.72076  -1.74932 
 H                    -0.61184  -2.28209  -1.98154 
 H                    -2.37143  -2.4146   -1.70874 
 H                    -1.67214  -0.9919   -2.54859 
 
                    Distance matrix (angstroms):
                    1          2          3          4          5
     1  O    0.000000
     2  C    1.333165   0.000000
     3  C    2.703796   2.099999   0.000000
     4  C    2.099991   2.286834   1.396135   0.000000
     5  C    2.612157   3.088687   2.509219   1.493702   0.000000
     6  Fe   1.884627   2.958547   4.498237   3.721023   4.075651
     7  Cl   3.173213   4.496383   5.487632   4.294543   3.998776
     8  C    2.611681   3.138434   2.525983   1.494678   2.535358
     9  Cl   3.233268   3.715335   5.736691   5.333169   5.577458
    10  Cl   3.280610   3.974119   5.111483   4.486111   5.351568
    11  H    3.264671   2.531509   1.087850   2.109217   2.643120
    12  H    3.667029   4.052799   2.915250   2.098117   2.980910
    13  H    2.711694   3.057005   2.770004   2.169981   3.448501
    14  H    2.687453   3.607331   3.415921   2.150181   2.648621
    15  H    3.636744   4.070355   3.020037   2.089561   1.100867
    16  H    2.498752   3.385810   3.361949   2.151595   1.091689
    17  H    2.932420   3.108219   2.662925   2.163653   1.091896
    18  C    3.764468   3.016308   1.507731   2.569758   3.888748
    19  H    4.640233   4.004729   2.146915   3.058459   4.213877
    20  H    4.255425   3.224421   2.158894   3.429564   4.667264
    21  H    3.736982   3.188242   2.180973   2.802338   4.271252
    22  C    2.411296   1.502185   2.846886   3.304699   4.426332
    23  H    3.337295   2.169743   2.987662   3.839775   4.989188
    24  H    2.730658   2.088000   3.850000   4.145255   5.096665
    25  H    2.647433   2.162663   3.032946   3.287886   4.588718
    26  C    2.391699   1.505240   2.810585   3.218217   3.504887
    27  H    2.697315   2.091266   3.822088   4.062354   4.264521
    28  H    3.324056   2.170779   2.964171   3.775726   4.201350
    29  H    2.623228   2.160845   2.943323   3.118660   2.936596
                    6          7          8          9         10
     6  Fe   0.000000
     7  Cl   2.202159   0.000000
     8  C    3.591477   4.038936   0.000000
     9  Cl   2.203230   3.768210   5.571199   0.000000
    10  Cl   2.210739   3.680288   3.713943   3.668402   0.000000
    11  H    5.144487   6.028331   3.467894   6.133291   6.037308
    12  H    4.671574   4.903512   1.100473   6.671662   4.604887
    13  H    3.458484   4.381908   1.090587   5.347768   3.037554
    14  H    3.184997   3.145671   1.090936   5.320774   3.467560
    15  H    5.010239   4.665737   2.827018   6.637118   6.090222
    16  H    3.509290   3.007797   2.744443   5.087483   4.979730
    17  H    4.527658   4.591900   3.480645   5.649009   6.027686
    18  C    5.336757   6.550752   3.044851   6.572515   5.366089
    19  H    6.232211   7.222527   3.443189   7.592984   6.215268
    20  H    5.820039   7.257288   4.037560   6.733126   5.862153
    21  H    5.011521   6.314757   2.739730   6.379686   4.631413
    22  C    3.401895   5.341740   3.712539   3.914683   3.644443
    23  H    4.481284   6.384828   4.395732   4.799446   4.644736
    24  H    3.188069   5.309803   4.490060   3.139326   3.514838
    25  H    3.361262   5.248052   3.245459   4.297935   2.984862
    26  C    3.892141   5.219502   4.403087   4.000039   5.294997
    27  H    3.709398   5.153876   5.087412   3.238687   5.258811
    28  H    4.862321   6.283958   5.003550   4.858853   6.029472
    29  H    4.182657   5.055239   4.456945   4.460508   5.824736
                   11         12         13         14         15
    11  H    0.000000
    12  H    3.785553   0.000000
    13  H    3.834888   1.767777   0.000000
    14  H    4.256498   1.779034   1.774137   0.000000
    15  H    3.102866   2.863273   3.865579   2.951045   0.000000
    16  H    3.609867   3.351372   3.628570   2.415066   1.775630
    17  H    2.361952   3.942078   4.276593   3.680035   1.767532
    18  C    2.201630   3.152790   2.874120   4.108498   4.207436
    19  H    2.605037   3.190607   3.445792   4.521861   4.252391
    20  H    2.509441   4.236419   3.749865   5.066756   5.081757
    21  H    3.111677   2.884343   2.223096   3.778268   4.619884
    22  C    3.453178   4.565824   3.170613   4.292853   5.315901
    23  H    3.408357   5.095831   3.865377   5.128858   5.804077
    24  H    4.367390   5.437293   3.923784   4.878063   6.073775
    25  H    3.888961   4.041293   2.452563   3.842177   5.368416
    26  C    2.617503   5.235804   4.498461   4.815012   4.497033
    27  H    3.714118   6.023160   5.093582   5.344677   5.320556
    28  H    2.567970   5.717065   5.022429   5.582543   5.075213
    29  H    2.521090   5.216048   4.804835   4.767369   3.885018
                   16         17         18         19         20
    16  H    0.000000
    17  H    1.791763   0.000000
    18  C    4.706146   4.145518   0.000000
    19  H    5.127246   4.497514   1.098086   0.000000
    20  H    5.490565   4.724890   1.094451   1.762445   0.000000
    21  H    4.910660   4.729893   1.092032   1.765329   1.768923
    22  C    4.717021   4.553541   3.018182   4.115439   2.943478
    23  H    5.456000   4.979399   2.834641   3.891143   2.371061
    24  H    5.205744   5.171744   4.117872   5.215359   3.979884
    25  H    4.830170   4.953413   2.907875   3.943718   3.054916
    26  C    3.858957   3.027809   3.877024   4.759773   3.828031
    27  H    4.382275   3.813449   4.817137   5.764477   4.714826
    28  H    4.739637   3.642373   3.748190   4.581355   3.417418
    29  H    3.300186   2.218219   4.264329   4.985371   4.378252
                   21         22         23         24         25
    21  H    0.000000
    22  C    2.861542   0.000000
    23  H    2.869665   1.091342   0.000000
    24  H    3.909476   1.100104   1.776309   0.000000
    25  H    2.365552   1.090528   1.797212   1.759813   0.000000
    26  C    4.354222   2.555084   2.786832   2.827270   3.494741
    27  H    5.155738   2.846100   3.187750   2.676133   3.828572
    28  H    4.371125   2.776813   2.562083   3.145256   3.778493
    29  H    4.851313   3.489717   3.773767   3.821117   4.307561
                   26         27         28         29
    26  C    0.000000
    27  H    1.099584   0.000000
    28  H    1.092594   1.785529   0.000000
    29  H    1.091219   1.763629   1.794001   0.000000
 Framework group  C1[X(C8H16Cl3FeO)]
 Deg. of freedom    81
                         Standard orientation:                         
 ---------------------------------------------------------------------
 Center     Atomic      Atomic             Coordinates (Angstroms)
 Number     Number       Type             X           Y           Z
 ---------------------------------------------------------------------
      1          8           0       -0.377198   -0.064300   -0.464364
      2          6           0       -1.272985   -1.050912   -0.425755
      3          6           0       -3.062372    0.015025   -0.157671
      4          6           0       -2.138484    1.058088   -0.245091
      5          6           0       -1.906152    1.757665   -1.544229
      6         26           0        1.430669    0.049768    0.055659
      7         17           0        2.016187    1.991645   -0.802122
      8          6           0       -1.603020    1.739192    0.972874
      9         17           0        2.355320   -1.761261   -0.792525
     10         17           0        1.437674    0.043788    2.266379
     11          1           0       -3.578330   -0.236343   -1.081803
     12          1           0       -2.382338    2.434580    1.319485
     13          1           0       -1.388394    1.050862    1.791114
     14          1           0       -0.701820    2.311692    0.748767
     15          1           0       -2.544384    2.654540   -1.530724
     16          1           0       -0.868459    2.080032   -1.649380
     17          1           0       -2.204897    1.156634   -2.405478
     18          6           0       -3.784038   -0.381355    1.105394
     19          1           0       -4.687498    0.230503    1.228612
     20          1           0       -4.108293   -1.425822    1.063325
     21          1           0       -3.176793   -0.252420    2.003816
     22          6           0       -1.225813   -1.948964    0.777506
     23          1           0       -2.078442   -2.628337    0.827542
     24          1           0       -0.311401   -2.549986    0.664143
     25          1           0       -1.121904   -1.385676    1.705493
     26          6           0       -1.528393   -1.720764   -1.749315
     27          1           0       -0.611844   -2.282095   -1.981543
     28          1           0       -2.371428   -2.414600   -1.708744
     29          1           0       -1.672140   -0.991896   -2.548594
 ---------------------------------------------------------------------
 Rotational constants (GHZ):           0.5898630           0.3447403           0.3198585
   427 basis functions,  1056 primitive gaussians,   461 cartesian basis functions
    77 alpha electrons       72 beta electrons
       nuclear repulsion energy      1657.8748469138 Hartrees.
 NAtoms=   29 NActive=   29 NUniq=   29 SFac= 1.00D+00 NAtFMM=   60 NAOKFM=F Big=F
 Nuclear repulsion after empirical dispersion term =     1657.8042590114 Hartrees.
 Initial guess from the checkpoint file:  "checkpoint.chk"
 B after Tr=     0.000000    0.000000    0.000000
         Rot=    1.000000    0.000000    0.000000    0.000000 Ang=   0.00 deg.
 Initial guess <Sx>= 0.0000 <Sy>= 0.0000 <Sz>= 2.5000 <S**2>= 8.7619 S= 2.5020
 SCF Done:  E(UB3LYP) =  -3034.37595644     A.U. after    1 cycles
            NFock=  1  Conv=0.19D-08     -V/T= 2.0024
 <Sx>= 0.0000 <Sy>= 0.0000 <Sz>= 2.5000 <S**2>= 8.7619 S= 2.5020
 <L.S>= 0.000000000000E+00
 Annihilation of the first spin contaminant:
 S**2 before annihilation     8.7619,   after     8.7500
 1\1\GINC-HOLY7C08609\SP\UB3LYP\Jul-CC-pVDZ\C8H16Cl3Fe1O1(6)\EKWAN\11-F
 eb-2020\0\\#t pop=none jul-cc-pvdz guess=read ub3lyp empiricaldispersi
 on=gd3bj\\theory_abbreviation b3lyp_d3bj\\0,6\O,0,-0.377198,-0.0643,-0
 .464364\C,0,-1.272985,-1.050912,-0.425755\C,0,-3.062372,0.015025,-0.15
 7671\C,0,-2.138484,1.058088,-0.245091\C,0,-1.906152,1.757665,-1.544229
 \Fe,0,1.430669,0.049768,0.055659\Cl,0,2.016187,1.991645,-0.802122\C,0,
 -1.60302,1.739192,0.972874\Cl,0,2.35532,-1.761261,-0.792525\Cl,0,1.437
 674,0.043788,2.266379\H,0,-3.57833,-0.236343,-1.081803\H,0,-2.382338,2
 .43458,1.319485\H,0,-1.388394,1.050862,1.791114\H,0,-0.70182,2.311692,
 0.748767\H,0,-2.544384,2.65454,-1.530724\H,0,-0.868459,2.080032,-1.649
 38\H,0,-2.204897,1.156634,-2.405478\C,0,-3.784038,-0.381355,1.105394\H
 ,0,-4.687498,0.230503,1.228612\H,0,-4.108293,-1.425822,1.063325\H,0,-3
 .176793,-0.25242,2.003816\C,0,-1.225813,-1.948964,0.777506\H,0,-2.0784
 42,-2.628337,0.827542\H,0,-0.311401,-2.549986,0.664143\H,0,-1.121904,-
 1.385676,1.705493\C,0,-1.528393,-1.720764,-1.749315\H,0,-0.611844,-2.2
 82095,-1.981543\H,0,-2.371428,-2.4146,-1.708744\H,0,-1.67214,-0.991896
 ,-2.548594\\Version=ES64L-G16RevA.03\HF=-3034.3759564\S2=8.761884\S2-1
 =0.\S2A=8.750044\RMSD=1.902e-09\PG=C01 [X(C8H16Cl3Fe1O1)]\\@


 WE MIGHT AS WELL ATTEMPT TO INTRODUCE A NEW PLANET 
 INTO THE SOLAR SYSTEM, OR TO ANNIHILATE ONE ALREADYIN EXISTENCE, 
 AS TO CREATE OR DESTROY A PARTICLE OF HYDROGEN.
 ALL THE CHANGES WE CAN PRODUCE CONSIST IN SEPARATING PARTICLES
 THAT ARE IN A STATE OF ... COMBINATION, AND JOINING 
 THOSE THAT WERE PREVIOUSLY AT A DISTANCE.

                                    -- JOHN DALTON, 1810
 Job cpu time:       0 days  0 hours  4 minutes 43.3 seconds.
 Elapsed time:       0 days  0 hours  1 minutes 11.3 seconds.
 File lengths (MBytes):  RWF=    170 Int=      0 D2E=      0 Chk=     13 Scr=      1
 Normal termination of Gaussian 16 at Tue Feb 11 14:19:07 2020.
 Initial command:
 /n/sw/g16_nehalem/g16/l1.exe "/scratch/Gau-48855.inp" -scrdir="/scratch/"
 Entering Link 1 = /n/sw/g16_nehalem/g16/l1.exe PID=     52961.
  
 Copyright (c) 1988,1990,1992,1993,1995,1998,2003,2009,2016,
            Gaussian, Inc.  All Rights Reserved.
  
 This is part of the Gaussian(R) 16 program.  It is based on
 the Gaussian(R) 09 system (copyright 2009, Gaussian, Inc.),
 the Gaussian(R) 03 system (copyright 2003, Gaussian, Inc.),
 the Gaussian(R) 98 system (copyright 1998, Gaussian, Inc.),
 the Gaussian(R) 94 system (copyright 1995, Gaussian, Inc.),
 the Gaussian 92(TM) system (copyright 1992, Gaussian, Inc.),
 the Gaussian 90(TM) system (copyright 1990, Gaussian, Inc.),
 the Gaussian 88(TM) system (copyright 1988, Gaussian, Inc.),
 the Gaussian 86(TM) system (copyright 1986, Carnegie Mellon
 University), and the Gaussian 82(TM) system (copyright 1983,
 Carnegie Mellon University). Gaussian is a federally registered
 trademark of Gaussian, Inc.
  
 This software contains proprietary and confidential information,
 including trade secrets, belonging to Gaussian, Inc.
  
 This software is provided under written license and may be
 used, copied, transmitted, or stored only in accord with that
 written license.
  
 The following legend is applicable only to US Government
 contracts under FAR:
  
                    RESTRICTED RIGHTS LEGEND
  
 Use, reproduction and disclosure by the US Government is
 subject to restrictions as set forth in subparagraphs (a)
 and (c) of the Commercial Computer Software - Restricted
 Rights clause in FAR 52.227-19.
  
 Gaussian, Inc.
 340 Quinnipiac St., Bldg. 40, Wallingford CT 06492
  
  
 ---------------------------------------------------------------
 Warning -- This program may not be used in any manner that
 competes with the business of Gaussian, Inc. or will provide
 assistance to any competitor of Gaussian, Inc.  The licensee
 of this program is prohibited from giving any competitor of
 Gaussian, Inc. access to this program.  By using this program,
 the user acknowledges that Gaussian, Inc. is engaged in the
 business of creating and licensing software in the field of
 computational chemistry and represents and warrants to the
 licensee that it is not a competitor of Gaussian, Inc. and that
 it will not use this program in any manner prohibited above.
 ---------------------------------------------------------------
  

 Cite this work as:
 Gaussian 16, Revision A.03,
 M. J. Frisch, G. W. Trucks, H. B. Schlegel, G. E. Scuseria, 
 M. A. Robb, J. R. Cheeseman, G. Scalmani, V. Barone, 
 G. A. Petersson, H. Nakatsuji, X. Li, M. Caricato, A. V. Marenich, 
 J. Bloino, B. G. Janesko, R. Gomperts, B. Mennucci, H. P. Hratchian, 
 J. V. Ortiz, A. F. Izmaylov, J. L. Sonnenberg, D. Williams-Young, 
 F. Ding, F. Lipparini, F. Egidi, J. Goings, B. Peng, A. Petrone, 
 T. Henderson, D. Ranasinghe, V. G. Zakrzewski, J. Gao, N. Rega, 
 G. Zheng, W. Liang, M. Hada, M. Ehara, K. Toyota, R. Fukuda, 
 J. Hasegawa, M. Ishida, T. Nakajima, Y. Honda, O. Kitao, H. Nakai, 
 T. Vreven, K. Throssell, J. A. Montgomery, Jr., J. E. Peralta, 
 F. Ogliaro, M. J. Bearpark, J. J. Heyd, E. N. Brothers, K. N. Kudin, 
 V. N. Staroverov, T. A. Keith, R. Kobayashi, J. Normand, 
 K. Raghavachari, A. P. Rendell, J. C. Burant, S. S. Iyengar, 
 J. Tomasi, M. Cossi, J. M. Millam, M. Klene, C. Adamo, R. Cammi, 
 J. W. Ochterski, R. L. Martin, K. Morokuma, O. Farkas, 
 J. B. Foresman, and D. J. Fox, Gaussian, Inc., Wallingford CT, 2016.
 
 ******************************************
 Gaussian 16:  ES64L-G16RevA.03 25-Dec-2016
                11-Feb-2020 
 ******************************************
 %chk=checkpoint.chk
 %mem=3GB
 %nprocshared=4
 Will use up to    4 processors via shared memory.
 ----------------------------------------
 #t pop=none jul-cc-pvdz guess=read ub97d
 ----------------------------------------
 ------------------------
 theory_abbreviation b97d
 ------------------------
 Symbolic Z-matrix:
 Charge =  0 Multiplicity = 6
 O                    -0.3772   -0.0643   -0.46436 
 C                    -1.27299  -1.05091  -0.42576 
 C                    -3.06237   0.01503  -0.15767 
 C                    -2.13848   1.05809  -0.24509 
 C                    -1.90615   1.75767  -1.54423 
 Fe                    1.43067   0.04977   0.05566 
 Cl                    2.01619   1.99165  -0.80212 
 C                    -1.60302   1.73919   0.97287 
 Cl                    2.35532  -1.76126  -0.79253 
 Cl                    1.43767   0.04379   2.26638 
 H                    -3.57833  -0.23634  -1.0818 
 H                    -2.38234   2.43458   1.31949 
 H                    -1.38839   1.05086   1.79111 
 H                    -0.70182   2.31169   0.74877 
 H                    -2.54438   2.65454  -1.53072 
 H                    -0.86846   2.08003  -1.64938 
 H                    -2.2049    1.15663  -2.40548 
 C                    -3.78404  -0.38136   1.10539 
 H                    -4.6875    0.2305    1.22861 
 H                    -4.10829  -1.42582   1.06333 
 H                    -3.17679  -0.25242   2.00382 
 C                    -1.22581  -1.94896   0.77751 
 H                    -2.07844  -2.62834   0.82754 
 H                    -0.3114   -2.54999   0.66414 
 H                    -1.1219   -1.38568   1.70549 
 C                    -1.52839  -1.72076  -1.74932 
 H                    -0.61184  -2.28209  -1.98154 
 H                    -2.37143  -2.4146   -1.70874 
 H                    -1.67214  -0.9919   -2.54859 
 
                    Distance matrix (angstroms):
                    1          2          3          4          5
     1  O    0.000000
     2  C    1.333165   0.000000
     3  C    2.703796   2.099999   0.000000
     4  C    2.099991   2.286834   1.396135   0.000000
     5  C    2.612157   3.088687   2.509219   1.493702   0.000000
     6  Fe   1.884627   2.958547   4.498237   3.721023   4.075651
     7  Cl   3.173213   4.496383   5.487632   4.294543   3.998776
     8  C    2.611681   3.138434   2.525983   1.494678   2.535358
     9  Cl   3.233268   3.715335   5.736691   5.333169   5.577458
    10  Cl   3.280610   3.974119   5.111483   4.486111   5.351568
    11  H    3.264671   2.531509   1.087850   2.109217   2.643120
    12  H    3.667029   4.052799   2.915250   2.098117   2.980910
    13  H    2.711694   3.057005   2.770004   2.169981   3.448501
    14  H    2.687453   3.607331   3.415921   2.150181   2.648621
    15  H    3.636744   4.070355   3.020037   2.089561   1.100867
    16  H    2.498752   3.385810   3.361949   2.151595   1.091689
    17  H    2.932420   3.108219   2.662925   2.163653   1.091896
    18  C    3.764468   3.016308   1.507731   2.569758   3.888748
    19  H    4.640233   4.004729   2.146915   3.058459   4.213877
    20  H    4.255425   3.224421   2.158894   3.429564   4.667264
    21  H    3.736982   3.188242   2.180973   2.802338   4.271252
    22  C    2.411296   1.502185   2.846886   3.304699   4.426332
    23  H    3.337295   2.169743   2.987662   3.839775   4.989188
    24  H    2.730658   2.088000   3.850000   4.145255   5.096665
    25  H    2.647433   2.162663   3.032946   3.287886   4.588718
    26  C    2.391699   1.505240   2.810585   3.218217   3.504887
    27  H    2.697315   2.091266   3.822088   4.062354   4.264521
    28  H    3.324056   2.170779   2.964171   3.775726   4.201350
    29  H    2.623228   2.160845   2.943323   3.118660   2.936596
                    6          7          8          9         10
     6  Fe   0.000000
     7  Cl   2.202159   0.000000
     8  C    3.591477   4.038936   0.000000
     9  Cl   2.203230   3.768210   5.571199   0.000000
    10  Cl   2.210739   3.680288   3.713943   3.668402   0.000000
    11  H    5.144487   6.028331   3.467894   6.133291   6.037308
    12  H    4.671574   4.903512   1.100473   6.671662   4.604887
    13  H    3.458484   4.381908   1.090587   5.347768   3.037554
    14  H    3.184997   3.145671   1.090936   5.320774   3.467560
    15  H    5.010239   4.665737   2.827018   6.637118   6.090222
    16  H    3.509290   3.007797   2.744443   5.087483   4.979730
    17  H    4.527658   4.591900   3.480645   5.649009   6.027686
    18  C    5.336757   6.550752   3.044851   6.572515   5.366089
    19  H    6.232211   7.222527   3.443189   7.592984   6.215268
    20  H    5.820039   7.257288   4.037560   6.733126   5.862153
    21  H    5.011521   6.314757   2.739730   6.379686   4.631413
    22  C    3.401895   5.341740   3.712539   3.914683   3.644443
    23  H    4.481284   6.384828   4.395732   4.799446   4.644736
    24  H    3.188069   5.309803   4.490060   3.139326   3.514838
    25  H    3.361262   5.248052   3.245459   4.297935   2.984862
    26  C    3.892141   5.219502   4.403087   4.000039   5.294997
    27  H    3.709398   5.153876   5.087412   3.238687   5.258811
    28  H    4.862321   6.283958   5.003550   4.858853   6.029472
    29  H    4.182657   5.055239   4.456945   4.460508   5.824736
                   11         12         13         14         15
    11  H    0.000000
    12  H    3.785553   0.000000
    13  H    3.834888   1.767777   0.000000
    14  H    4.256498   1.779034   1.774137   0.000000
    15  H    3.102866   2.863273   3.865579   2.951045   0.000000
    16  H    3.609867   3.351372   3.628570   2.415066   1.775630
    17  H    2.361952   3.942078   4.276593   3.680035   1.767532
    18  C    2.201630   3.152790   2.874120   4.108498   4.207436
    19  H    2.605037   3.190607   3.445792   4.521861   4.252391
    20  H    2.509441   4.236419   3.749865   5.066756   5.081757
    21  H    3.111677   2.884343   2.223096   3.778268   4.619884
    22  C    3.453178   4.565824   3.170613   4.292853   5.315901
    23  H    3.408357   5.095831   3.865377   5.128858   5.804077
    24  H    4.367390   5.437293   3.923784   4.878063   6.073775
    25  H    3.888961   4.041293   2.452563   3.842177   5.368416
    26  C    2.617503   5.235804   4.498461   4.815012   4.497033
    27  H    3.714118   6.023160   5.093582   5.344677   5.320556
    28  H    2.567970   5.717065   5.022429   5.582543   5.075213
    29  H    2.521090   5.216048   4.804835   4.767369   3.885018
                   16         17         18         19         20
    16  H    0.000000
    17  H    1.791763   0.000000
    18  C    4.706146   4.145518   0.000000
    19  H    5.127246   4.497514   1.098086   0.000000
    20  H    5.490565   4.724890   1.094451   1.762445   0.000000
    21  H    4.910660   4.729893   1.092032   1.765329   1.768923
    22  C    4.717021   4.553541   3.018182   4.115439   2.943478
    23  H    5.456000   4.979399   2.834641   3.891143   2.371061
    24  H    5.205744   5.171744   4.117872   5.215359   3.979884
[...]
 Rotational constants (GHZ):           0.5898630           0.3447403           0.3198585
   427 basis functions,  1056 primitive gaussians,   461 cartesian basis functions
    77 alpha electrons       72 beta electrons
       nuclear repulsion energy      1657.8748469138 Hartrees.
 NAtoms=   29 NActive=   29 NUniq=   29 SFac= 1.00D+00 NAtFMM=   60 NAOKFM=F Big=F
 Nuclear repulsion after empirical dispersion term =     1657.8724127978 Hartrees.
 Initial guess from the checkpoint file:  "checkpoint.chk"
 B after Tr=     0.000000    0.000000    0.000000
         Rot=    1.000000    0.000000    0.000000    0.000000 Ang=   0.00 deg.
 Initial guess <Sx>= 0.0000 <Sy>= 0.0000 <Sz>= 2.5000 <S**2>= 8.7616 S= 2.5019
 SCF Done:  E(UM06L) =  -3034.17237876     A.U. after   17 cycles
            NFock= 17  Conv=0.71D-08     -V/T= 2.0020
 <Sx>= 0.0000 <Sy>= 0.0000 <Sz>= 2.5000 <S**2>= 8.7618 S= 2.5020
 <L.S>= 0.000000000000E+00
 Annihilation of the first spin contaminant:
 S**2 before annihilation     8.7618,   after     8.7500
 1\1\GINC-HOLY7C08609\SP\UM06L\Jul-CC-pVDZ\C8H16Cl3Fe1O1(6)\EKWAN\11-Fe
 b-2020\0\\#t pop=none jul-cc-pvdz guess=read um06l empiricaldispersion
 =gd3\\theory_abbreviation m06l_d3\\0,6\O,0,-0.377198,-0.0643,-0.464364
 \C,0,-1.272985,-1.050912,-0.425755\C,0,-3.062372,0.015025,-0.157671\C,
 0,-2.138484,1.058088,-0.245091\C,0,-1.906152,1.757665,-1.544229\Fe,0,1
 .430669,0.049768,0.055659\Cl,0,2.016187,1.991645,-0.802122\C,0,-1.6030
 2,1.739192,0.972874\Cl,0,2.35532,-1.761261,-0.792525\Cl,0,1.437674,0.0
 43788,2.266379\H,0,-3.57833,-0.236343,-1.081803\H,0,-2.382338,2.43458,
 1.319485\H,0,-1.388394,1.050862,1.791114\H,0,-0.70182,2.311692,0.74876
 7\H,0,-2.544384,2.65454,-1.530724\H,0,-0.868459,2.080032,-1.64938\H,0,
 -2.204897,1.156634,-2.405478\C,0,-3.784038,-0.381355,1.105394\H,0,-4.6
 87498,0.230503,1.228612\H,0,-4.108293,-1.425822,1.063325\H,0,-3.176793
 ,-0.25242,2.003816\C,0,-1.225813,-1.948964,0.777506\H,0,-2.078442,-2.6
 28337,0.827542\H,0,-0.311401,-2.549986,0.664143\H,0,-1.121904,-1.38567
 6,1.705493\C,0,-1.528393,-1.720764,-1.749315\H,0,-0.611844,-2.282095,-
 1.981543\H,0,-2.371428,-2.4146,-1.708744\H,0,-1.67214,-0.991896,-2.548
 594\\Version=ES64L-G16RevA.03\HF=-3034.1723788\S2=8.761802\S2-1=0.\S2A
 =8.750045\RMSD=7.139e-09\PG=C01 [X(C8H16Cl3Fe1O1)]\\@


 ASKING DUMB QUESTIONS IS EASIER THAN CORECTING DUMB MISTAKES.
 Job cpu time:       0 days  1 hours 17 minutes  7.1 seconds.
 Elapsed time:       0 days  0 hours 19 minutes 20.1 seconds.
 File lengths (MBytes):  RWF=    174 Int=      0 D2E=      0 Chk=     13 Scr=      1
 Normal termination of Gaussian 16 at Tue Feb 11 23:44:12 2020.
 Initial command:
 /n/sw/g16_nehalem/g16/l1.exe "/scratch/Gau-48855.inp" -scrdir="/scratch/"
 Entering Link 1 = /n/sw/g16_nehalem/g16/l1.exe PID=    105539.
  
 Copyright (c) 1988,1990,1992,1993,1995,1998,2003,2009,2016,
            Gaussian, Inc.  All Rights Reserved.
  
 This is part of the Gaussian(R) 16 program.  It is based on
 the Gaussian(R) 09 system (copyright 2009, Gaussian, Inc.),
 the Gaussian(R) 03 system (copyright 2003, Gaussian, Inc.),
 the Gaussian(R) 98 system (copyright 1998, Gaussian, Inc.),
 the Gaussian(R) 94 system (copyright 1995, Gaussian, Inc.),
 the Gaussian 92(TM) system (copyright 1992, Gaussian, Inc.),
 the Gaussian 90(TM) system (copyright 1990, Gaussian, Inc.),
 the Gaussian 88(TM) system (copyright 1988, Gaussian, Inc.),
 the Gaussian 86(TM) system (copyright 1986, Carnegie Mellon
 University), and the Gaussian 82(TM) system (copyright 1983,
 Carnegie Mellon University). Gaussian is a federally registered
 trademark of Gaussian, Inc.
  
 This software contains proprietary and confidential information,
 including trade secrets, belonging to Gaussian, Inc.
  
 This software is provided under written license and may be
 used, copied, transmitted, or stored only in accord with that
 written license.
  
 The following legend is applicable only to US Government
 contracts under FAR:
  
                    RESTRICTED RIGHTS LEGEND
  
 Use, reproduction and disclosure by the US Government is
 subject to restrictions as set forth in subparagraphs (a)
 and (c) of the Commercial Computer Software - Restricted
 Rights clause in FAR 52.227-19.
  
 Gaussian, Inc.
 340 Quinnipiac St., Bldg. 40, Wallingford CT 06492
  
  
 ---------------------------------------------------------------
 Warning -- This program may not be used in any manner that
 competes with the business of Gaussian, Inc. or will provide
 assistance to any competitor of Gaussian, Inc.  The licensee
 of this program is prohibited from giving any competitor of
 Gaussian, Inc. access to this program.  By using this program,
 the user acknowledges that Gaussian, Inc. is engaged in the
 business of creating and licensing software in the field of
 computational chemistry and represents and warrants to the
 licensee that it is not a competitor of Gaussian, Inc. and that
 it will not use this program in any manner prohibited above.
 ---------------------------------------------------------------
  

 Cite this work as:
 Gaussian 16, Revision A.03,
 M. J. Frisch, G. W. Trucks, H. B. Schlegel, G. E. Scuseria, 
 M. A. Robb, J. R. Cheeseman, G. Scalmani, V. Barone, 
 G. A. Petersson, H. Nakatsuji, X. Li, M. Caricato, A. V. Marenich, 
 J. Bloino, B. G. Janesko, R. Gomperts, B. Mennucci, H. P. Hratchian, 
 J. V. Ortiz, A. F. Izmaylov, J. L. Sonnenberg, D. Williams-Young, 
 F. Ding, F. Lipparini, F. Egidi, J. Goings, B. Peng, A. Petrone, 
 T. Henderson, D. Ranasinghe, V. G. Zakrzewski, J. Gao, N. Rega, 
 G. Zheng, W. Liang, M. Hada, M. Ehara, K. Toyota, R. Fukuda, 
 J. Hasegawa, M. Ishida, T. Nakajima, Y. Honda, O. Kitao, H. Nakai, 
 T. Vreven, K. Throssell, J. A. Montgomery, Jr., J. E. Peralta, 
 F. Ogliaro, M. J. Bearpark, J. J. Heyd, E. N. Brothers, K. N. Kudin, 
 V. N. Staroverov, T. A. Keith, R. Kobayashi, J. Normand, 
 K. Raghavachari, A. P. Rendell, J. C. Burant, S. S. Iyengar, 
 J. Tomasi, M. Cossi, J. M. Millam, M. Klene, C. Adamo, R. Cammi, 
 J. W. Ochterski, R. L. Martin, K. Morokuma, O. Farkas, 
 J. B. Foresman, and D. J. Fox, Gaussian, Inc., Wallingford CT, 2016.
 
 ******************************************
 Gaussian 16:  ES64L-G16RevA.03 25-Dec-2016
                11-Feb-2020 
 ******************************************
 %chk=checkpoint.chk
 %mem=3GB
 %nprocshared=4
 Will use up to    4 processors via shared memory.
 -------------------------------------------------------------------
 #t pop=none jul-cc-pvdz guess=read ub97d3 empiricaldispersion=gd3bj
 -------------------------------------------------------------------
 ------------------------------
 theory_abbreviation b97d3_d3bj
 ------------------------------
 Symbolic Z-matrix:
 Charge =  0 Multiplicity = 6
 O                    -0.3772   -0.0643   -0.46436 
 C                    -1.27299  -1.05091  -0.42576 
 C                    -3.06237   0.01503  -0.15767 
 C                    -2.13848   1.05809  -0.24509 
 C                    -1.90615   1.75767  -1.54423 
 Fe                    1.43067   0.04977   0.05566 
 Cl                    2.01619   1.99165  -0.80212 
 C                    -1.60302   1.73919   0.97287 
 Cl                    2.35532  -1.76126  -0.79253 
 Cl                    1.43767   0.04379   2.26638 
 H                    -3.57833  -0.23634  -1.0818 
 H                    -2.38234   2.43458   1.31949 
 H                    -1.38839   1.05086   1.79111 
 H                    -0.70182   2.31169   0.74877 
 H                    -2.54438   2.65454  -1.53072 
 H                    -0.86846   2.08003  -1.64938 
 H                    -2.2049    1.15663  -2.40548 
 C                    -3.78404  -0.38136   1.10539 
 H                    -4.6875    0.2305    1.22861 
 H                    -4.10829  -1.42582   1.06333 
 H                    -3.17679  -0.25242   2.00382 
 C                    -1.22581  -1.94896   0.77751 
 H                    -2.07844  -2.62834   0.82754 
 H                    -0.3114   -2.54999   0.66414 
 H                    -1.1219   -1.38568   1.70549 
 C                    -1.52839  -1.72076  -1.74932 
 H                    -0.61184  -2.28209  -1.98154 
 H                    -2.37143  -2.4146   -1.70874 
 H                    -1.67214  -0.9919   -2.54859 
 
                    Distance matrix (angstroms):
                    1          2          3          4          5
     1  O    0.000000
     2  C    1.333165   0.000000
     3  C    2.703796   2.099999   0.000000
     4  C    2.099991   2.286834   1.396135   0.000000
     5  C    2.612157   3.088687   2.509219   1.493702   0.000000
     6  Fe   1.884627   2.958547   4.498237   3.721023   4.075651
     7  Cl   3.173213   4.496383   5.487632   4.294543   3.998776
     8  C    2.611681   3.138434   2.525983   1.494678   2.535358
     9  Cl   3.233268   3.715335   5.736691   5.333169   5.577458
    10  Cl   3.280610   3.974119   5.111483   4.486111   5.351568
    11  H    3.264671   2.531509   1.087850   2.109217   2.643120
    12  H    3.667029   4.052799   2.915250   2.098117   2.980910
    13  H    2.711694   3.057005   2.770004   2.169981   3.448501
    14  H    2.687453   3.607331   3.415921   2.150181   2.648621
    15  H    3.636744   4.070355   3.020037   2.089561   1.100867
    16  H    2.498752   3.385810   3.361949   2.151595   1.091689
    17  H    2.932420   3.108219   2.662925   2.163653   1.091896
    18  C    3.764468   3.016308   1.507731   2.569758   3.888748
    19  H    4.640233   4.004729   2.146915   3.058459   4.213877
    20  H    4.255425   3.224421   2.158894   3.429564   4.667264
    21  H    3.736982   3.188242   2.180973   2.802338   4.271252
    22  C    2.411296   1.502185   2.846886   3.304699   4.426332
    23  H    3.337295   2.169743   2.987662   3.839775   4.989188
    24  H    2.730658   2.088000   3.850000   4.145255   5.096665
    25  H    2.647433   2.162663   3.032946   3.287886   4.588718
    26  C    2.391699   1.505240   2.810585   3.218217   3.504887
    27  H    2.697315   2.091266   3.822088   4.062354   4.264521
    28  H    3.324056   2.170779   2.964171   3.775726   4.201350
    29  H    2.623228   2.160845   2.943323   3.118660   2.936596
                    6          7          8          9         10
     6  Fe   0.000000
     7  Cl   2.202159   0.000000
     8  C    3.591477   4.038936   0.000000
     9  Cl   2.203230   3.768210   5.571199   0.000000
    10  Cl   2.210739   3.680288   3.713943   3.668402   0.000000
    11  H    5.144487   6.028331   3.467894   6.133291   6.037308
    12  H    4.671574   4.903512   1.100473   6.671662   4.604887
    13  H    3.458484   4.381908   1.090587   5.347768   3.037554
    14  H    3.184997   3.145671   1.090936   5.320774   3.467560
    15  H    5.010239   4.665737   2.827018   6.637118   6.090222
    16  H    3.509290   3.007797   2.744443   5.087483   4.979730
    17  H    4.527658   4.591900   3.480645   5.649009   6.027686
    18  C    5.336757   6.550752   3.044851   6.572515   5.366089
    19  H    6.232211   7.222527   3.443189   7.592984   6.215268
    20  H    5.820039   7.257288   4.037560   6.733126   5.862153
    21  H    5.011521   6.314757   2.739730   6.379686   4.631413
    22  C    3.401895   5.341740   3.712539   3.914683   3.644443
    23  H    4.481284   6.384828   4.395732   4.799446   4.644736
    24  H    3.188069   5.309803   4.490060   3.139326   3.514838
    25  H    3.361262   5.248052   3.245459   4.297935   2.984862
    26  C    3.892141   5.219502   4.403087   4.000039   5.294997
    27  H    3.709398   5.153876   5.087412   3.238687   5.258811
    28  H    4.862321   6.283958   5.003550   4.858853   6.029472
    29  H    4.182657   5.055239   4.456945   4.460508   5.824736
                   11         12         13         14         15
    11  H    0.000000
    12  H    3.785553   0.000000
    13  H    3.834888   1.767777   0.000000
    14  H    4.256498   1.779034   1.774137   0.000000
    15  H    3.102866   2.863273   3.865579   2.951045   0.000000
    16  H    3.609867   3.351372   3.628570   2.415066   1.775630
    17  H    2.361952   3.942078   4.276593   3.680035   1.767532
    18  C    2.201630   3.152790   2.874120   4.108498   4.207436
    19  H    2.605037   3.190607   3.445792   4.521861   4.252391
    20  H    2.509441   4.236419   3.749865   5.066756   5.081757
    21  H    3.111677   2.884343   2.223096   3.778268   4.619884
    22  C    3.453178   4.565824   3.170613   4.292853   5.315901
    23  H    3.408357   5.095831   3.865377   5.128858   5.804077
    24  H    4.367390   5.437293   3.923784   4.878063   6.073775
    25  H    3.888961   4.041293   2.452563   3.842177   5.368416
    26  C    2.617503   5.235804   4.498461   4.815012   4.497033
    27  H    3.714118   6.023160   5.093582   5.344677   5.320556
    28  H    2.567970   5.717065   5.022429   5.582543   5.075213
    29  H    2.521090   5.216048   4.804835   4.767369   3.885018
                   16         17         18         19         20
    16  H    0.000000
    17  H    1.791763   0.000000
    18  C    4.706146   4.145518   0.000000
    19  H    5.127246   4.497514   1.098086   0.000000
    20  H    5.490565   4.724890   1.094451   1.762445   0.000000
    21  H    4.910660   4.729893   1.092032   1.765329   1.768923
    22  C    4.717021   4.553541   3.018182   4.115439   2.943478
    23  H    5.456000   4.979399   2.834641   3.891143   2.371061
    24  H    5.205744   5.171744   4.117872   5.215359   3.979884
    25  H    4.830170   4.953413   2.907875   3.943718   3.054916
    26  C    3.858957   3.027809   3.877024   4.759773   3.828031
    27  H    4.382275   3.813449   4.817137   5.764477   4.714826
    28  H    4.739637   3.642373   3.748190   4.581355   3.417418
    29  H    3.300186   2.218219   4.264329   4.985371   4.378252
                   21         22         23         24         25
    21  H    0.000000
    22  C    2.861542   0.000000
    23  H    2.869665   1.091342   0.000000
    24  H    3.909476   1.100104   1.776309   0.000000
    25  H    2.365552   1.090528   1.797212   1.759813   0.000000
    26  C    4.354222   2.555084   2.786832   2.827270   3.494741
    27  H    5.155738   2.846100   3.187750   2.676133   3.828572
    28  H    4.371125   2.776813   2.562083   3.145256   3.778493
    29  H    4.851313   3.489717   3.773767   3.821117   4.307561
                   26         27         28         29
    26  C    0.000000
    27  H    1.099584   0.000000
    28  H    1.092594   1.785529   0.000000
    29  H    1.091219   1.763629   1.794001   0.000000
 Framework group  C1[X(C8H16Cl3FeO)]
 Deg. of freedom    81
                         Standard orientation:                         
 ---------------------------------------------------------------------
 Center     Atomic      Atomic             Coordinates (Angstroms)
 Number     Number       Type             X           Y           Z
 ---------------------------------------------------------------------
      1          8           0       -0.377198   -0.064300   -0.464364
      2          6           0       -1.272985   -1.050912   -0.425755
      3          6           0       -3.062372    0.015025   -0.157671
      4          6           0       -2.138484    1.058088   -0.245091
      5          6           0       -1.906152    1.757665   -1.544229
      6         26           0        1.430669    0.049768    0.055659
      7         17           0        2.016187    1.991645   -0.802122
      8          6           0       -1.603020    1.739192    0.972874
      9         17           0        2.355320   -1.761261   -0.792525
     10         17           0        1.437674    0.043788    2.266379
     11          1           0       -3.578330   -0.236343   -1.081803
     12          1           0       -2.382338    2.434580    1.319485
     13          1           0       -1.388394    1.050862    1.791114
     14          1           0       -0.701820    2.311692    0.748767
     15          1           0       -2.544384    2.654540   -1.530724
     16          1           0       -0.868459    2.080032   -1.649380
     17          1           0       -2.204897    1.156634   -2.405478
     18          6           0       -3.784038   -0.381355    1.105394
     19          1           0       -4.687498    0.230503    1.228612
     20          1           0       -4.108293   -1.425822    1.063325
     21          1           0       -3.176793   -0.252420    2.003816
     22          6           0       -1.225813   -1.948964    0.777506
     23          1           0       -2.078442   -2.628337    0.827542
     24          1           0       -0.311401   -2.549986    0.664143
     25          1           0       -1.121904   -1.385676    1.705493
     26          6           0       -1.528393   -1.720764   -1.749315
     27          1           0       -0.611844   -2.282095   -1.981543
     28          1           0       -2.371428   -2.414600   -1.708744
     29          1           0       -1.672140   -0.991896   -2.548594
 ---------------------------------------------------------------------
 Rotational constants (GHZ):           0.5898630           0.3447403           0.3198585
   427 basis functions,  1056 primitive gaussians,   461 cartesian basis functions
    77 alpha electrons       72 beta electrons
       nuclear repulsion energy      1657.8748469138 Hartrees.
 NAtoms=   29 NActive=   29 NUniq=   29 SFac= 1.00D+00 NAtFMM=   60 NAOKFM=F Big=F
 Nuclear repulsion after empirical dispersion term =     1657.7713495825 Hartrees.
 Initial guess from the checkpoint file:  "checkpoint.chk"
 B after Tr=     0.000000    0.000000    0.000000
         Rot=    1.000000    0.000000    0.000000    0.000000 Ang=   0.00 deg.
 Initial guess <Sx>= 0.0000 <Sy>= 0.0000 <Sz>= 2.5000 <S**2>= 8.7618 S= 2.5020
 EnCoef did     2 forward-backward iterations
 SCF Done:  E(UB97D3) =  -3034.59577008     A.U. after   16 cycles
            NFock= 16  Conv=0.89D-08     -V/T= 2.0019
 <Sx>= 0.0000 <Sy>= 0.0000 <Sz>= 2.5000 <S**2>= 8.7596 S= 2.5016
 <L.S>= 0.000000000000E+00
 Annihilation of the first spin contaminant:
 S**2 before annihilation     8.7596,   after     8.7500
 1\1\GINC-HOLY7C08609\SP\UB97D3\Jul-CC-pVDZ\C8H16Cl3Fe1O1(6)\EKWAN\11-F
 eb-2020\0\\#t pop=none jul-cc-pvdz guess=read ub97d3 empiricaldispersi
 on=gd3bj\\theory_abbreviation b97d3_d3bj\\0,6\O,0,-0.377198,-0.0643,-0
 .464364\C,0,-1.272985,-1.050912,-0.425755\C,0,-3.062372,0.015025,-0.15
 7671\C,0,-2.138484,1.058088,-0.245091\C,0,-1.906152,1.757665,-1.544229
 \Fe,0,1.430669,0.049768,0.055659\Cl,0,2.016187,1.991645,-0.802122\C,0,
 -1.60302,1.739192,0.972874\Cl,0,2.35532,-1.761261,-0.792525\Cl,0,1.437
 674,0.043788,2.266379\H,0,-3.57833,-0.236343,-1.081803\H,0,-2.382338,2
 .43458,1.319485\H,0,-1.388394,1.050862,1.791114\H,0,-0.70182,2.311692,
 0.748767\H,0,-2.544384,2.65454,-1.530724\H,0,-0.868459,2.080032,-1.649
 38\H,0,-2.204897,1.156634,-2.405478\C,0,-3.784038,-0.381355,1.105394\H
 ,0,-4.687498,0.230503,1.228612\H,0,-4.108293,-1.425822,1.063325\H,0,-3
 .176793,-0.25242,2.003816\C,0,-1.225813,-1.948964,0.777506\H,0,-2.0784
 42,-2.628337,0.827542\H,0,-0.311401,-2.549986,0.664143\H,0,-1.121904,-
 1.385676,1.705493\C,0,-1.528393,-1.720764,-1.749315\H,0,-0.611844,-2.2
 82095,-1.981543\H,0,-2.371428,-2.4146,-1.708744\H,0,-1.67214,-0.991896
 ,-2.548594\\Version=ES64L-G16RevA.03\HF=-3034.5957701\S2=8.759556\S2-1
 =0.\S2A=8.750029\RMSD=8.904e-09\PG=C01 [X(C8H16Cl3Fe1O1)]\\@


 THE DIFFICULTY IN SCIENCE IS OFTEN NOT SO MUCH HOW
 TO MAKE A DISCOVERY BUT RATHER TO KNOW ONE HAS MADE IT.

                                                   -- J. D. BERNAL
 Job cpu time:       0 days  0 hours 51 minutes 42.8 seconds.
 Elapsed time:       0 days  0 hours 12 minutes 58.0 seconds.
 File lengths (MBytes):  RWF=    174 Int=      0 D2E=      0 Chk=     13 Scr=      1
 Normal termination of Gaussian 16 at Tue Feb 11 23:57:10 2020.
