 Entering Gaussian System, Link 0=g16
 Input=simple-grid-255-250-b3lyp_d3bj-631gd-gas-singlepoint-DFT-juldz2-gas.gjf
 Output=simple-grid-255-250-b3lyp_d3bj-631gd-gas-singlepoint-DFT-juldz2-gas.out
 Initial command:
 /n/sw/g16_nehalem/g16/l1.exe "/scratch/Gau-185469.inp" -scrdir="/scratch/"
 Entering Link 1 = /n/sw/g16_nehalem/g16/l1.exe PID=    185472.
  
 Copyright (c) 1988,1990,1992,1993,1995,1998,2003,2009,2016,
            Gaussian, Inc.  All Rights Reserved.
  
 This is part of the Gaussian(R) 16 program.  It is based on
 the Gaussian(R) 09 system (copyright 2009, Gaussian, Inc.),
 the Gaussian(R) 03 system (copyright 2003, Gaussian, Inc.),
 the Gaussian(R) 98 system (copyright 1998, Gaussian, Inc.),
 the Gaussian(R) 94 system (copyright 1995, Gaussian, Inc.),
 the Gaussian 92(TM) system (copyright 1992, Gaussian, Inc.),
 the Gaussian 90(TM) system (copyright 1990, Gaussian, Inc.),
 the Gaussian 88(TM) system (copyright 1988, Gaussian, Inc.),
 the Gaussian 86(TM) system (copyright 1986, Carnegie Mellon
 University), and the Gaussian 82(TM) system (copyright 1983,
 Carnegie Mellon University). Gaussian is a federally registered
 trademark of Gaussian, Inc.
  
 This software contains proprietary and confidential information,
 including trade secrets, belonging to Gaussian, Inc.
  
 This software is provided under written license and may be
 used, copied, transmitted, or stored only in accord with that
 written license.
  
 The following legend is applicable only to US Government
 contracts under FAR:
  
                    RESTRICTED RIGHTS LEGEND
  
 Use, reproduction and disclosure by the US Government is
 subject to restrictions as set forth in subparagraphs (a)
 and (c) of the Commercial Computer Software - Restricted
 Rights clause in FAR 52.227-19.
  
 Gaussian, Inc.
 340 Quinnipiac St., Bldg. 40, Wallingford CT 06492
  
  
 ---------------------------------------------------------------
 Warning -- This program may not be used in any manner that
 competes with the business of Gaussian, Inc. or will provide
 assistance to any competitor of Gaussian, Inc.  The licensee
 of this program is prohibited from giving any competitor of
 Gaussian, Inc. access to this program.  By using this program,
 the user acknowledges that Gaussian, Inc. is engaged in the
 business of creating and licensing software in the field of
 computational chemistry and represents and warrants to the
 licensee that it is not a competitor of Gaussian, Inc. and that
 it will not use this program in any manner prohibited above.
 ---------------------------------------------------------------
  

 Cite this work as:
 Gaussian 16, Revision A.03,
 M. J. Frisch, G. W. Trucks, H. B. Schlegel, G. E. Scuseria, 
 M. A. Robb, J. R. Cheeseman, G. Scalmani, V. Barone, 
 G. A. Petersson, H. Nakatsuji, X. Li, M. Caricato, A. V. Marenich, 
 J. Bloino, B. G. Janesko, R. Gomperts, B. Mennucci, H. P. Hratchian, 
 J. V. Ortiz, A. F. Izmaylov, J. L. Sonnenberg, D. Williams-Young, 
 F. Ding, F. Lipparini, F. Egidi, J. Goings, B. Peng, A. Petrone, 
 T. Henderson, D. Ranasinghe, V. G. Zakrzewski, J. Gao, N. Rega, 
 G. Zheng, W. Liang, M. Hada, M. Ehara, K. Toyota, R. Fukuda, 
 J. Hasegawa, M. Ishida, T. Nakajima, Y. Honda, O. Kitao, H. Nakai, 
 T. Vreven, K. Throssell, J. A. Montgomery, Jr., J. E. Peralta, 
 F. Ogliaro, M. J. Bearpark, J. J. Heyd, E. N. Brothers, K. N. Kudin, 
 V. N. Staroverov, T. A. Keith, R. Kobayashi, J. Normand, 
 K. Raghavachari, A. P. Rendell, J. C. Burant, S. S. Iyengar, 
 J. Tomasi, M. Cossi, J. M. Millam, M. Klene, C. Adamo, R. Cammi, 
 J. W. Ochterski, R. L. Martin, K. Morokuma, O. Farkas, 
 J. B. Foresman, and D. J. Fox, Gaussian, Inc., Wallingford CT, 2016.
 
 ******************************************
 Gaussian 16:  ES64L-G16RevA.03 25-Dec-2016
                11-Feb-2020 
 ******************************************
 %chk=checkpoint.chk
 %mem=3GB
 %nprocshared=4
 Will use up to    4 processors via shared memory.
 --------------------------------
 #t pop=none jul-cc-pvdz upbe1pbe
 --------------------------------
 ------------------------
 theory_abbreviation pbe0
 ------------------------
 Symbolic Z-matrix:
 Charge =  0 Multiplicity = 6
 O                    -0.2969   -0.20736  -0.7103 
 C                    -1.10528  -1.16889  -0.60156 
 C                    -3.21927   0.02832   0.17318 
 C                    -2.4084    1.037    -0.21723 
 C                    -2.42345   1.55488  -1.62677 
 Fe                    1.47229   0.09895   0.05527 
 Cl                    2.10465   1.9826   -0.83995 
 C                    -1.56094   1.8336    0.73198 
 Cl                    2.51509  -1.70428  -0.63229 
 Cl                    1.31043   0.14982   2.24424 
 H                    -3.87037  -0.40941  -0.5826 
 H                    -2.12867   2.71717   1.05564 
 H                    -1.26693   1.2847    1.62733 
 H                    -0.6575    2.20503   0.2396 
 H                    -2.70736   2.6153   -1.61844 
 H                    -1.42235   1.50302  -2.07005 
 H                    -3.13579   1.02314  -2.26383 
 C                    -3.50234  -0.39705   1.58763 
 H                    -4.41763   0.09275   1.94733 
 H                    -3.67641  -1.47584   1.6618 
 H                    -2.70084  -0.13285   2.28194 
 C                    -1.04951  -2.06807   0.59359 
 H                    -1.9453   -2.68067   0.69566 
 H                    -0.1909   -2.73581   0.42426 
 H                    -0.84882  -1.51152   1.50948 
 C                    -1.75249  -1.6839   -1.85239 
 H                    -1.02698  -2.38672  -2.2891 
 H                    -2.67559  -2.22935  -1.652 
 H                    -1.91562  -0.88654  -2.57622 
 
                    Distance matrix (angstroms):
                    1          2          3          4          5
     1  O    0.000000
     2  C    1.260892   0.000000
     3  C    3.062077   2.549998   0.000000
     4  C    2.499995   2.590712   1.351798   0.000000
     5  C    2.909919   3.194931   2.490689   1.501743   0.000000
     6  Fe   1.951912   2.946644   4.693572   4.001744   4.486179
     7  Cl   3.252713   4.504702   5.761053   4.652908   4.615812
     8  C    2.800621   3.316765   2.514236   1.501261   2.526922
     9  Cl   3.186557   3.659868   6.044298   5.650455   6.000026
    10  Cl   3.382363   3.958939   4.982193   4.547049   5.558850
    11  H    3.581451   2.867559   1.089374   2.088760   2.653727
    12  H    3.876440   4.346853   3.032835   2.126366   2.938218
    13  H    2.937974   3.318760   2.739463   2.183278   3.464058
    14  H    2.617621   3.505906   3.362309   2.153750   2.650399
    15  H    3.821313   4.233302   3.188174   2.131623   1.097801
    16  H    2.457832   3.065309   3.230442   2.149982   1.096085
    17  H    3.462201   3.419225   2.633562   2.172061   1.093623
    18  C    3.948577   3.336788   1.503903   2.551605   3.912335
    19  H    4.912579   4.365801   2.141918   3.100628   4.346116
    20  H    4.319372   3.439145   2.165054   3.384219   4.644336
    21  H    3.839003   3.454524   2.177523   2.774869   4.266541
    22  C    2.393490   1.496666   3.046216   3.485031   4.465812
    23  H    3.288038   2.161914   3.038847   3.856016   4.854089
    24  H    2.773362   2.084136   4.107856   4.422999   5.253671
    25  H    2.633035   2.153984   3.126629   3.450904   4.660292
    26  C    2.367128   1.499567   3.030852   3.241488   3.315236
    27  H    2.788413   2.082553   4.086728   4.233533   4.233796
    28  H    3.260892   2.166537   2.953628   3.577563   3.792700
    29  H    2.561871   2.153055   3.177365   3.083447   2.668311
                    6          7          8          9         10
     6  Fe   0.000000
     7  Cl   2.179316   0.000000
     8  C    3.559129   3.991200   0.000000
     9  Cl   2.193587   3.715463   5.567031   0.000000
    10  Cl   2.195531   3.674520   3.656065   3.628123   0.000000
    11  H    5.404562   6.441172   3.477454   6.515612   5.928274
    12  H    4.563191   4.696149   1.098987   6.630448   4.453261
    13  H    3.373528   4.235810   1.090587   5.323866   2.882941
    14  H    3.000922   2.973949   1.093887   5.109619   3.480693
    15  H    5.157787   4.915458   2.729437   6.848739   6.094386
    16  H    3.855814   3.766007   2.824866   5.278003   5.283210
    17  H    5.240868   5.514537   3.480215   6.483294   6.391730
    18  C    5.228865   6.556990   3.078469   6.545707   4.888041
    19  H    6.186360   7.340335   3.559258   7.612247   5.736036
    20  H    5.618718   7.186108   4.036357   6.606790   5.277364
    21  H    4.735690   6.108517   2.751121   6.178025   4.021394
    22  C    3.368269   5.330257   3.937477   3.787016   3.634962
    23  H    4.451548   6.364447   4.530748   4.755188   4.583611
    24  H    3.307303   5.397329   4.780298   3.082648   3.727356
    25  H    3.177404   5.143117   3.507339   3.992523   2.821750
    26  C    4.149331   5.417172   4.369038   4.438614   5.433818
    27  H    4.233320   5.567591   5.217581   3.969508   5.696372
    28  H    5.053779   6.422661   4.840804   5.315888   6.060486
    29  H    4.401573   5.235370   4.297575   4.907005   5.892216
                   11         12         13         14         15
    11  H    0.000000
    12  H    3.936094   0.000000
    13  H    3.812040   1.766752   0.000000
    14  H    4.223005   1.758562   1.773189   0.000000
    15  H    3.402121   2.737872   3.792144   2.796882   0.000000
    16  H    3.444224   3.426800   3.707076   2.532248   1.758514
    17  H    2.327728   3.860427   4.324597   3.715631   1.770613
    18  C    2.201247   3.445050   2.797656   4.084244   4.470474
    19  H    2.636701   3.594726   3.383788   4.638598   4.690736
    20  H    2.492437   4.510464   3.664330   4.968421   5.332588
    21  H    3.106424   3.154969   2.119913   3.716452   4.771304
    22  C    3.477330   4.927128   3.515239   4.305612   5.438336
    23  H    3.240135   5.412938   4.129442   5.073105   5.829503
    24  H    4.468155   5.821397   4.332405   4.966257   6.256166
    25  H    3.836820   4.441374   2.829755   3.932160   5.501698
    26  C    2.778865   5.288438   4.599650   4.549634   4.410175
    27  H    3.860924   6.200863   5.373572   5.254995   5.319181
    28  H    2.425548   5.665553   5.008676   5.226328   4.844869
    29  H    2.832524   5.120790   4.775443   4.366860   3.715790
                   16         17         18         19         20
    16  H    0.000000
    17  H    1.789892   0.000000
    18  C    4.616840   4.121287   0.000000
    19  H    5.205755   4.499175   1.098658   0.000000
    20  H    5.280256   4.684841   1.095256   1.758238   0.000000
    21  H    4.821866   4.710572   1.092828   1.763586   1.771984
    22  C    4.470644   4.698186   3.129976   4.224446   2.896963
    23  H    5.042407   4.888150   2.904286   3.920578   2.319868
    24  H    5.070082   5.479768   4.217683   5.309025   3.907406
    25  H    4.714806   5.088471   2.879110   3.937227   2.831910
    26  C    3.211360   3.067708   4.068372   4.969636   4.011769
    27  H    3.915915   4.009342   5.011501   5.965865   4.843425
    28  H    3.959287   3.341370   3.812611   4.624066   3.542697
    29  H    2.491893   2.287633   4.482728   5.261321   4.626925
                   21         22         23         24         25
    21  H    0.000000
    22  C    3.053269   0.000000
    23  H    3.094913   1.090015   0.000000
    24  H    4.065241   1.100805   1.776122   0.000000
    25  H    2.434619   1.090355   1.797630   1.763372   0.000000
    26  C    4.516390   2.573831   2.742861   2.954354   3.485472
    27  H    5.364335   2.900337   3.136636   2.860626   3.902169
    28  H    4.457782   2.777204   2.499710   3.277355   3.721203
    29  H    4.978581   3.491967   3.731614   3.923938   4.268673
                   26         27         28         29
    26  C    0.000000
    27  H    1.100470   0.000000
    28  H    1.090771   1.774421   0.000000
    29  H    1.089181   1.767102   1.798570   0.000000
 Framework group  C1[X(C8H16Cl3FeO)]
 Deg. of freedom    81
                         Standard orientation:                         
 ---------------------------------------------------------------------
 Center     Atomic      Atomic             Coordinates (Angstroms)
 Number     Number       Type             X           Y           Z
 ---------------------------------------------------------------------
      1          8           0       -0.296901   -0.207357   -0.710299
      2          6           0       -1.105278   -1.168892   -0.601558
      3          6           0       -3.219270    0.028318    0.173179
      4          6           0       -2.408403    1.036997   -0.217230
      5          6           0       -2.423454    1.554881   -1.626770
      6         26           0        1.472289    0.098954    0.055272
      7         17           0        2.104646    1.982599   -0.839951
      8          6           0       -1.560937    1.833602    0.731983
      9         17           0        2.515088   -1.704280   -0.632290
     10         17           0        1.310432    0.149815    2.244238
     11          1           0       -3.870367   -0.409406   -0.582603
     12          1           0       -2.128670    2.717174    1.055636
     13          1           0       -1.266934    1.284697    1.627329
     14          1           0       -0.657503    2.205026    0.239602
     15          1           0       -2.707356    2.615304   -1.618441
     16          1           0       -1.422346    1.503022   -2.070048
     17          1           0       -3.135785    1.023138   -2.263830
     18          6           0       -3.502337   -0.397051    1.587625
     19          1           0       -4.417630    0.092749    1.947325
     20          1           0       -3.676409   -1.475839    1.661800
     21          1           0       -2.700838   -0.132850    2.281937
     22          6           0       -1.049510   -2.068066    0.593593
     23          1           0       -1.945297   -2.680667    0.695660
     24          1           0       -0.190900   -2.735813    0.424255
     25          1           0       -0.848823   -1.511516    1.509481
     26          6           0       -1.752491   -1.683899   -1.852391
     27          1           0       -1.026982   -2.386720   -2.289098
     28          1           0       -2.675592   -2.229345   -1.652004
     29          1           0       -1.915618   -0.886540   -2.576216
 ---------------------------------------------------------------------
 Rotational constants (GHZ):           0.5808346           0.3274556           0.3086214
   427 basis functions,  1056 primitive gaussians,   461 cartesian basis functions
    77 alpha electrons       72 beta electrons
       nuclear repulsion energy      1635.9894776950 Hartrees.
 NAtoms=   29 NActive=   29 NUniq=   29 SFac= 1.00D+00 NAtFMM=   60 NAOKFM=F Big=F
 ExpMin= 1.40D-02 ExpMax= 4.32D+06 ExpMxC= 4.91D+03 IAcc=3 IRadAn=         5 AccDes= 0.00D+00
 Harris functional with IExCor= 1009 and IRadAn=       5 diagonalized for initial guess.
 HarFok:  IExCor= 1009 AccDes= 0.00D+00 IRadAn=         5 IDoV= 1 UseB2=F ITyADJ=14
 ICtDFT=  3500011 ScaDFX=  1.000000  1.000000  1.000000  1.000000
 FoFCou: FMM=F IPFlag=           0 FMFlag=      100000 FMFlg1=           0
         NFxFlg=           0 DoJE=T BraDBF=F KetDBF=T FulRan=T
         wScrn=  0.000000 ICntrl=       500 IOpCl=  0 I1Cent=   200000004 NGrid=           0
         NMat0=    1 NMatS0=      1 NMatT0=    0 NMatD0=    1 NMtDS0=    0 NMtDT0=    0
 Petite list used in FoFCou.
 Initial guess <Sx>= 0.0000 <Sy>= 0.0000 <Sz>= 2.5000 <S**2>= 8.7500 S= 2.5000
 EnCoef did   100 forward-backward iterations
 SCF Done:  E(UPBE1PBE) =  -3033.12420817     A.U. after   19 cycles
            NFock= 19  Conv=0.72D-08     -V/T= 2.0021
 <Sx>= 0.0000 <Sy>= 0.0000 <Sz>= 2.5000 <S**2>= 8.7629 S= 2.5021
 <L.S>= 0.000000000000E+00
 Annihilation of the first spin contaminant:
 S**2 before annihilation     8.7629,   after     8.7501
 1\1\GINC-HOLY7C04509\SP\UPBE1PBE\Jul-CC-pVDZ\C8H16Cl3Fe1O1(6)\EKWAN\11
 -Feb-2020\0\\#t pop=none jul-cc-pvdz upbe1pbe\\theory_abbreviation pbe
 0\\0,6\O,0,-0.296901,-0.207357,-0.710299\C,0,-1.105278,-1.168892,-0.60
 1558\C,0,-3.21927,0.028318,0.173179\C,0,-2.408403,1.036997,-0.21723\C,
 0,-2.423454,1.554881,-1.62677\Fe,0,1.472289,0.098954,0.055272\Cl,0,2.1
 04646,1.982599,-0.839951\C,0,-1.560937,1.833602,0.731983\Cl,0,2.515088
 ,-1.70428,-0.63229\Cl,0,1.310432,0.149815,2.244238\H,0,-3.870367,-0.40
 9406,-0.582603\H,0,-2.12867,2.717174,1.055636\H,0,-1.266934,1.284697,1
 .627329\H,0,-0.657503,2.205026,0.239602\H,0,-2.707356,2.615304,-1.6184
 41\H,0,-1.422346,1.503022,-2.070048\H,0,-3.135785,1.023138,-2.26383\C,
 0,-3.502337,-0.397051,1.587625\H,0,-4.41763,0.092749,1.947325\H,0,-3.6
 76409,-1.475839,1.6618\H,0,-2.700838,-0.13285,2.281937\C,0,-1.04951,-2
 .068066,0.593593\H,0,-1.945297,-2.680667,0.69566\H,0,-0.1909,-2.735813
 ,0.424255\H,0,-0.848823,-1.511516,1.509481\C,0,-1.752491,-1.683899,-1.
 852391\H,0,-1.026982,-2.38672,-2.289098\H,0,-2.675592,-2.229345,-1.652
 004\H,0,-1.915618,-0.88654,-2.576216\\Version=ES64L-G16RevA.03\HF=-303
 3.1242082\S2=8.762852\S2-1=0.\S2A=8.750051\RMSD=7.224e-09\PG=C01 [X(C8
 H16Cl3Fe1O1)]\\@


 Make no judgements where you have no compassion.
                               -- Anne McCaffrey
 Job cpu time:       0 days  1 hours 26 minutes 47.2 seconds.
 Elapsed time:       0 days  0 hours 21 minutes 46.2 seconds.
 File lengths (MBytes):  RWF=    173 Int=      0 D2E=      0 Chk=     13 Scr=      1
 Normal termination of Gaussian 16 at Tue Feb 11 14:47:08 2020.
 Initial command:
 /n/sw/g16_nehalem/g16/l1.exe "/scratch/Gau-185469.inp" -scrdir="/scratch/"
 Entering Link 1 = /n/sw/g16_nehalem/g16/l1.exe PID=    187735.
  
 Copyright (c) 1988,1990,1992,1993,1995,1998,2003,2009,2016,
            Gaussian, Inc.  All Rights Reserved.
  
 This is part of the Gaussian(R) 16 program.  It is based on
 the Gaussian(R) 09 system (copyright 2009, Gaussian, Inc.),
 the Gaussian(R) 03 system (copyright 2003, Gaussian, Inc.),
 the Gaussian(R) 98 system (copyright 1998, Gaussian, Inc.),
 the Gaussian(R) 94 system (copyright 1995, Gaussian, Inc.),
 the Gaussian 92(TM) system (copyright 1992, Gaussian, Inc.),
 the Gaussian 90(TM) system (copyright 1990, Gaussian, Inc.),
 the Gaussian 88(TM) system (copyright 1988, Gaussian, Inc.),
 the Gaussian 86(TM) system (copyright 1986, Carnegie Mellon
 University), and the Gaussian 82(TM) system (copyright 1983,
 Carnegie Mellon University). Gaussian is a federally registered
 trademark of Gaussian, Inc.
  
 This software contains proprietary and confidential information,
 including trade secrets, belonging to Gaussian, Inc.
  
 This software is provided under written license and may be
 used, copied, transmitted, or stored only in accord with that
 written license.
  
 The following legend is applicable only to US Government
 contracts under FAR:
  
                    RESTRICTED RIGHTS LEGEND
  
 Use, reproduction and disclosure by the US Government is
 subject to restrictions as set forth in subparagraphs (a)
 and (c) of the Commercial Computer Software - Restricted
 Rights clause in FAR 52.227-19.
  
 Gaussian, Inc.
 340 Quinnipiac St., Bldg. 40, Wallingford CT 06492
  
  
 ---------------------------------------------------------------
 Warning -- This program may not be used in any manner that
 competes with the business of Gaussian, Inc. or will provide
 assistance to any competitor of Gaussian, Inc.  The licensee
 of this program is prohibited from giving any competitor of
 Gaussian, Inc. access to this program.  By using this program,
 the user acknowledges that Gaussian, Inc. is engaged in the
 business of creating and licensing software in the field of
 computational chemistry and represents and warrants to the
 licensee that it is not a competitor of Gaussian, Inc. and that
 it will not use this program in any manner prohibited above.
 ---------------------------------------------------------------
  

 Cite this work as:
 Gaussian 16, Revision A.03,
 M. J. Frisch, G. W. Trucks, H. B. Schlegel, G. E. Scuseria, 
 M. A. Robb, J. R. Cheeseman, G. Scalmani, V. Barone, 
 G. A. Petersson, H. Nakatsuji, X. Li, M. Caricato, A. V. Marenich, 
 J. Bloino, B. G. Janesko, R. Gomperts, B. Mennucci, H. P. Hratchian, 
 J. V. Ortiz, A. F. Izmaylov, J. L. Sonnenberg, D. Williams-Young, 
 F. Ding, F. Lipparini, F. Egidi, J. Goings, B. Peng, A. Petrone, 
 T. Henderson, D. Ranasinghe, V. G. Zakrzewski, J. Gao, N. Rega, 
 G. Zheng, W. Liang, M. Hada, M. Ehara, K. Toyota, R. Fukuda, 
 J. Hasegawa, M. Ishida, T. Nakajima, Y. Honda, O. Kitao, H. Nakai, 
 T. Vreven, K. Throssell, J. A. Montgomery, Jr., J. E. Peralta, 
 F. Ogliaro, M. J. Bearpark, J. J. Heyd, E. N. Brothers, K. N. Kudin, 
 V. N. Staroverov, T. A. Keith, R. Kobayashi, J. Normand, 
 K. Raghavachari, A. P. Rendell, J. C. Burant, S. S. Iyengar, 
 J. Tomasi, M. Cossi, J. M. Millam, M. Klene, C. Adamo, R. Cammi, 
 J. W. Ochterski, R. L. Martin, K. Morokuma, O. Farkas, 
 J. B. Foresman, and D. J. Fox, Gaussian, Inc., Wallingford CT, 2016.
 
 ******************************************
 Gaussian 16:  ES64L-G16RevA.03 25-Dec-2016
                11-Feb-2020 
 ******************************************
 %chk=checkpoint.chk
 %mem=3GB
 %nprocshared=4
 Will use up to    4 processors via shared memory.
 ---------------------------------------------------------------------
 #t pop=none jul-cc-pvdz guess=read upbe1pbe empiricaldispersion=gd3bj
 ---------------------------------------------------------------------
 -----------------------------
 theory_abbreviation pbe0_d3bj
 -----------------------------
 Symbolic Z-matrix:
 Charge =  0 Multiplicity = 6
 O                    -0.2969   -0.20736  -0.7103 
 C                    -1.10528  -1.16889  -0.60156 
 C                    -3.21927   0.02832   0.17318 
 C                    -2.4084    1.037    -0.21723 
 C                    -2.42345   1.55488  -1.62677 
 Fe                    1.47229   0.09895   0.05527 
 Cl                    2.10465   1.9826   -0.83995 
 C                    -1.56094   1.8336    0.73198 
 Cl                    2.51509  -1.70428  -0.63229 
 Cl                    1.31043   0.14982   2.24424 
 H                    -3.87037  -0.40941  -0.5826 
 H                    -2.12867   2.71717   1.05564 
 H                    -1.26693   1.2847    1.62733 
 H                    -0.6575    2.20503   0.2396 
 H                    -2.70736   2.6153   -1.61844 
 H                    -1.42235   1.50302  -2.07005 
 H                    -3.13579   1.02314  -2.26383 
 C                    -3.50234  -0.39705   1.58763 
 H                    -4.41763   0.09275   1.94733 
 H                    -3.67641  -1.47584   1.6618 
 H                    -2.70084  -0.13285   2.28194 
 C                    -1.04951  -2.06807   0.59359 
 H                    -1.9453   -2.68067   0.69566 
 H                    -0.1909   -2.73581   0.42426 
 H                    -0.84882  -1.51152   1.50948 
 C                    -1.75249  -1.6839   -1.85239 
 H                    -1.02698  -2.38672  -2.2891 
 H                    -2.67559  -2.22935  -1.652 
 H                    -1.91562  -0.88654  -2.57622 
 
                    Distance matrix (angstroms):
                    1          2          3          4          5
     1  O    0.000000
     2  C    1.260892   0.000000
     3  C    3.062077   2.549998   0.000000
     4  C    2.499995   2.590712   1.351798   0.000000
     5  C    2.909919   3.194931   2.490689   1.501743   0.000000
     6  Fe   1.951912   2.946644   4.693572   4.001744   4.486179
     7  Cl   3.252713   4.504702   5.761053   4.652908   4.615812
     8  C    2.800621   3.316765   2.514236   1.501261   2.526922
     9  Cl   3.186557   3.659868   6.044298   5.650455   6.000026
    10  Cl   3.382363   3.958939   4.982193   4.547049   5.558850
    11  H    3.581451   2.867559   1.089374   2.088760   2.653727
    12  H    3.876440   4.346853   3.032835   2.126366   2.938218
    13  H    2.937974   3.318760   2.739463   2.183278   3.464058
    14  H    2.617621   3.505906   3.362309   2.153750   2.650399
    15  H    3.821313   4.233302   3.188174   2.131623   1.097801
    16  H    2.457832   3.065309   3.230442   2.149982   1.096085
    17  H    3.462201   3.419225   2.633562   2.172061   1.093623
    18  C    3.948577   3.336788   1.503903   2.551605   3.912335
    19  H    4.912579   4.365801   2.141918   3.100628   4.346116
    20  H    4.319372   3.439145   2.165054   3.384219   4.644336
    21  H    3.839003   3.454524   2.177523   2.774869   4.266541
    22  C    2.393490   1.496666   3.046216   3.485031   4.465812
    23  H    3.288038   2.161914   3.038847   3.856016   4.854089
    24  H    2.773362   2.084136   4.107856   4.422999   5.253671
    25  H    2.633035   2.153984   3.126629   3.450904   4.660292
    26  C    2.367128   1.499567   3.030852   3.241488   3.315236
    27  H    2.788413   2.082553   4.086728   4.233533   4.233796
    28  H    3.260892   2.166537   2.953628   3.577563   3.792700
    29  H    2.561871   2.153055   3.177365   3.083447   2.668311
                    6          7          8          9         10
     6  Fe   0.000000
     7  Cl   2.179316   0.000000
     8  C    3.559129   3.991200   0.000000
     9  Cl   2.193587   3.715463   5.567031   0.000000
    10  Cl   2.195531   3.674520   3.656065   3.628123   0.000000
    11  H    5.404562   6.441172   3.477454   6.515612   5.928274
    12  H    4.563191   4.696149   1.098987   6.630448   4.453261
    13  H    3.373528   4.235810   1.090587   5.323866   2.882941
    14  H    3.000922   2.973949   1.093887   5.109619   3.480693
    15  H    5.157787   4.915458   2.729437   6.848739   6.094386
    16  H    3.855814   3.766007   2.824866   5.278003   5.283210
    17  H    5.240868   5.514537   3.480215   6.483294   6.391730
    18  C    5.228865   6.556990   3.078469   6.545707   4.888041
    19  H    6.186360   7.340335   3.559258   7.612247   5.736036
    20  H    5.618718   7.186108   4.036357   6.606790   5.277364
    21  H    4.735690   6.108517   2.751121   6.178025   4.021394
    22  C    3.368269   5.330257   3.937477   3.787016   3.634962
    23  H    4.451548   6.364447   4.530748   4.755188   4.583611
    24  H    3.307303   5.397329   4.780298   3.082648   3.727356
    25  H    3.177404   5.143117   3.507339   3.992523   2.821750
    26  C    4.149331   5.417172   4.369038   4.438614   5.433818
    27  H    4.233320   5.567591   5.217581   3.969508   5.696372
    28  H    5.053779   6.422661   4.840804   5.315888   6.060486
    29  H    4.401573   5.235370   4.297575   4.907005   5.892216
                   11         12         13         14         15
    11  H    0.000000
    12  H    3.936094   0.000000
    13  H    3.812040   1.766752   0.000000
    14  H    4.223005   1.758562   1.773189   0.000000
    15  H    3.402121   2.737872   3.792144   2.796882   0.000000
    16  H    3.444224   3.426800   3.707076   2.532248   1.758514
    17  H    2.327728   3.860427   4.324597   3.715631   1.770613
    18  C    2.201247   3.445050   2.797656   4.084244   4.470474
    19  H    2.636701   3.594726   3.383788   4.638598   4.690736
    20  H    2.492437   4.510464   3.664330   4.968421   5.332588
    21  H    3.106424   3.154969   2.119913   3.716452   4.771304
    22  C    3.477330   4.927128   3.515239   4.305612   5.438336
    23  H    3.240135   5.412938   4.129442   5.073105   5.829503
    24  H    4.468155   5.821397   4.332405   4.966257   6.256166
    25  H    3.836820   4.441374   2.829755   3.932160   5.501698
    26  C    2.778865   5.288438   4.599650   4.549634   4.410175
    27  H    3.860924   6.200863   5.373572   5.254995   5.319181
    28  H    2.425548   5.665553   5.008676   5.226328   4.844869
    29  H    2.832524   5.120790   4.775443   4.366860   3.715790
                   16         17         18         19         20
    16  H    0.000000
    17  H    1.789892   0.000000
    18  C    4.616840   4.121287   0.000000
    19  H    5.205755   4.499175   1.098658   0.000000
    20  H    5.280256   4.684841   1.095256   1.758238   0.000000
    21  H    4.821866   4.710572   1.092828   1.763586   1.771984
    22  C    4.470644   4.698186   3.129976   4.224446   2.896963
    23  H    5.042407   4.888150   2.904286   3.920578   2.319868
    24  H    5.070082   5.479768   4.217683   5.309025   3.907406
    25  H    4.714806   5.088471   2.879110   3.937227   2.831910
    26  C    3.211360   3.067708   4.068372   4.969636   4.011769
    27  H    3.915915   4.009342   5.011501   5.965865   4.843425
    28  H    3.959287   3.341370   3.812611   4.624066   3.542697
    29  H    2.491893   2.287633   4.482728   5.261321   4.626925
                   21         22         23         24         25
    21  H    0.000000
    22  C    3.053269   0.000000
    23  H    3.094913   1.090015   0.000000
    24  H    4.065241   1.100805   1.776122   0.000000
    25  H    2.434619   1.090355   1.797630   1.763372   0.000000
    26  C    4.516390   2.573831   2.742861   2.954354   3.485472
    27  H    5.364335   2.900337   3.136636   2.860626   3.902169
    28  H    4.457782   2.777204   2.499710   3.277355   3.721203
    29  H    4.978581   3.491967   3.731614   3.923938   4.268673
                   26         27         28         29
    26  C    0.000000
    27  H    1.100470   0.000000
    28  H    1.090771   1.774421   0.000000
    29  H    1.089181   1.767102   1.798570   0.000000
 Framework group  C1[X(C8H16Cl3FeO)]
 Deg. of freedom    81
                         Standard orientation:                         
 ---------------------------------------------------------------------
 Center     Atomic      Atomic             Coordinates (Angstroms)
 Number     Number       Type             X           Y           Z
 ---------------------------------------------------------------------
      1          8           0       -0.296901   -0.207357   -0.710299
      2          6           0       -1.105278   -1.168892   -0.601558
      3          6           0       -3.219270    0.028318    0.173179
      4          6           0       -2.408403    1.036997   -0.217230
      5          6           0       -2.423454    1.554881   -1.626770
      6         26           0        1.472289    0.098954    0.055272
      7         17           0        2.104646    1.982599   -0.839951
      8          6           0       -1.560937    1.833602    0.731983
      9         17           0        2.515088   -1.704280   -0.632290
     10         17           0        1.310432    0.149815    2.244238
     11          1           0       -3.870367   -0.409406   -0.582603
     12          1           0       -2.128670    2.717174    1.055636
     13          1           0       -1.266934    1.284697    1.627329
     14          1           0       -0.657503    2.205026    0.239602
     15          1           0       -2.707356    2.615304   -1.618441
     16          1           0       -1.422346    1.503022   -2.070048
     17          1           0       -3.135785    1.023138   -2.263830
     18          6           0       -3.502337   -0.397051    1.587625
     19          1           0       -4.417630    0.092749    1.947325
     20          1           0       -3.676409   -1.475839    1.661800
     21          1           0       -2.700838   -0.132850    2.281937
     22          6           0       -1.049510   -2.068066    0.593593
     23          1           0       -1.945297   -2.680667    0.695660
     24          1           0       -0.190900   -2.735813    0.424255
     25          1           0       -0.848823   -1.511516    1.509481
     26          6           0       -1.752491   -1.683899   -1.852391
     27          1           0       -1.026982   -2.386720   -2.289098
     28          1           0       -2.675592   -2.229345   -1.652004
     29          1           0       -1.915618   -0.886540   -2.576216
 ---------------------------------------------------------------------
 Rotational constants (GHZ):           0.5808346           0.3274556           0.3086214
   427 basis functions,  1056 primitive gaussians,   461 cartesian basis functions
    77 alpha electrons       72 beta electrons
       nuclear repulsion energy      1635.9894776950 Hartrees.
 NAtoms=   29 NActive=   29 NUniq=   29 SFac= 1.00D+00 NAtFMM=   60 NAOKFM=F Big=F
 Nuclear repulsion after empirical dispersion term =     1635.9521759138 Hartrees.
 Initial guess from the checkpoint file:  "checkpoint.chk"
 B after Tr=     0.000000    0.000000    0.000000
         Rot=    1.000000    0.000000    0.000000    0.000000 Ang=   0.00 deg.
 Initial guess <Sx>= 0.0000 <Sy>= 0.0000 <Sz>= 2.5000 <S**2>= 8.7629 S= 2.5021
 SCF Done:  E(UPBE1PBE) =  -3033.16150995     A.U. after    1 cycles
            NFock=  1  Conv=0.54D-08     -V/T= 2.0021
 <Sx>= 0.0000 <Sy>= 0.0000 <Sz>= 2.5000 <S**2>= 8.7629 S= 2.5021
 <L.S>= 0.000000000000E+00
 Annihilation of the first spin contaminant:
 S**2 before annihilation     8.7629,   after     8.7501
 1\1\GINC-HOLY7C04509\SP\UPBE1PBE\Jul-CC-pVDZ\C8H16Cl3Fe1O1(6)\EKWAN\11
 -Feb-2020\0\\#t pop=none jul-cc-pvdz guess=read upbe1pbe empiricaldisp
 ersion=gd3bj\\theory_abbreviation pbe0_d3bj\\0,6\O,0,-0.296901,-0.2073
 57,-0.710299\C,0,-1.105278,-1.168892,-0.601558\C,0,-3.21927,0.028318,0
 .173179\C,0,-2.408403,1.036997,-0.21723\C,0,-2.423454,1.554881,-1.6267
 7\Fe,0,1.472289,0.098954,0.055272\Cl,0,2.104646,1.982599,-0.839951\C,0
 ,-1.560937,1.833602,0.731983\Cl,0,2.515088,-1.70428,-0.63229\Cl,0,1.31
 0432,0.149815,2.244238\H,0,-3.870367,-0.409406,-0.582603\H,0,-2.12867,
 2.717174,1.055636\H,0,-1.266934,1.284697,1.627329\H,0,-0.657503,2.2050
 26,0.239602\H,0,-2.707356,2.615304,-1.618441\H,0,-1.422346,1.503022,-2
 .070048\H,0,-3.135785,1.023138,-2.26383\C,0,-3.502337,-0.397051,1.5876
 25\H,0,-4.41763,0.092749,1.947325\H,0,-3.676409,-1.475839,1.6618\H,0,-
 2.700838,-0.13285,2.281937\C,0,-1.04951,-2.068066,0.593593\H,0,-1.9452
 97,-2.680667,0.69566\H,0,-0.1909,-2.735813,0.424255\H,0,-0.848823,-1.5
 11516,1.509481\C,0,-1.752491,-1.683899,-1.852391\H,0,-1.026982,-2.3867
 2,-2.289098\H,0,-2.675592,-2.229345,-1.652004\H,0,-1.915618,-0.88654,-
 2.576216\\Version=ES64L-G16RevA.03\HF=-3033.1615099\S2=8.762852\S2-1=0
 .\S2A=8.750051\RMSD=5.447e-09\PG=C01 [X(C8H16Cl3Fe1O1)]\\@


 THE BEST WAY TO CONVINCE A FOOL THAT HE IS WRONG 
 IS TO LET HIM HAVE HIS OWN WAY.

                                         JOSH BILLINGS
 Job cpu time:       0 days  0 hours  4 minutes 59.4 seconds.
 Elapsed time:       0 days  0 hours  1 minutes 15.4 seconds.
 File lengths (MBytes):  RWF=    170 Int=      0 D2E=      0 Chk=     13 Scr=      1
 Normal termination of Gaussian 16 at Tue Feb 11 14:48:24 2020.
 Initial command:
 /n/sw/g16_nehalem/g16/l1.exe "/scratch/Gau-185469.inp" -scrdir="/scratch/"
 Entering Link 1 = /n/sw/g16_nehalem/g16/l1.exe PID=    187870.
  
 Copyright (c) 1988,1990,1992,1993,1995,1998,2003,2009,2016,
            Gaussian, Inc.  All Rights Reserved.
  
 This is part of the Gaussian(R) 16 program.  It is based on
 the Gaussian(R) 09 system (copyright 2009, Gaussian, Inc.),
 the Gaussian(R) 03 system (copyright 2003, Gaussian, Inc.),
 the Gaussian(R) 98 system (copyright 1998, Gaussian, Inc.),
 the Gaussian(R) 94 system (copyright 1995, Gaussian, Inc.),
 the Gaussian 92(TM) system (copyright 1992, Gaussian, Inc.),
 the Gaussian 90(TM) system (copyright 1990, Gaussian, Inc.),
 the Gaussian 88(TM) system (copyright 1988, Gaussian, Inc.),
 the Gaussian 86(TM) system (copyright 1986, Carnegie Mellon
 University), and the Gaussian 82(TM) system (copyright 1983,
 Carnegie Mellon University). Gaussian is a federally registered
 trademark of Gaussian, Inc.
  
 This software contains proprietary and confidential information,
 including trade secrets, belonging to Gaussian, Inc.
  
 This software is provided under written license and may be
 used, copied, transmitted, or stored only in accord with that
 written license.
  
 The following legend is applicable only to US Government
 contracts under FAR:
  
                    RESTRICTED RIGHTS LEGEND
  
 Use, reproduction and disclosure by the US Government is
 subject to restrictions as set forth in subparagraphs (a)
 and (c) of the Commercial Computer Software - Restricted
 Rights clause in FAR 52.227-19.
  
 Gaussian, Inc.
 340 Quinnipiac St., Bldg. 40, Wallingford CT 06492
  
  
 ---------------------------------------------------------------
 Warning -- This program may not be used in any manner that
 competes with the business of Gaussian, Inc. or will provide
 assistance to any competitor of Gaussian, Inc.  The licensee
 of this program is prohibited from giving any competitor of
 Gaussian, Inc. access to this program.  By using this program,
 the user acknowledges that Gaussian, Inc. is engaged in the
 business of creating and licensing software in the field of
 computational chemistry and represents and warrants to the
 licensee that it is not a competitor of Gaussian, Inc. and that
 it will not use this program in any manner prohibited above.
 ---------------------------------------------------------------
  

 Cite this work as:
 Gaussian 16, Revision A.03,
 M. J. Frisch, G. W. Trucks, H. B. Schlegel, G. E. Scuseria, 
 M. A. Robb, J. R. Cheeseman, G. Scalmani, V. Barone, 
 G. A. Petersson, H. Nakatsuji, X. Li, M. Caricato, A. V. Marenich, 
 J. Bloino, B. G. Janesko, R. Gomperts, B. Mennucci, H. P. Hratchian, 
 J. V. Ortiz, A. F. Izmaylov, J. L. Sonnenberg, D. Williams-Young, 
 F. Ding, F. Lipparini, F. Egidi, J. Goings, B. Peng, A. Petrone, 
 T. Henderson, D. Ranasinghe, V. G. Zakrzewski, J. Gao, N. Rega, 
 G. Zheng, W. Liang, M. Hada, M. Ehara, K. Toyota, R. Fukuda, 
 J. Hasegawa, M. Ishida, T. Nakajima, Y. Honda, O. Kitao, H. Nakai, 
 T. Vreven, K. Throssell, J. A. Montgomery, Jr., J. E. Peralta, 
 F. Ogliaro, M. J. Bearpark, J. J. Heyd, E. N. Brothers, K. N. Kudin, 
 V. N. Staroverov, T. A. Keith, R. Kobayashi, J. Normand, 
 K. Raghavachari, A. P. Rendell, J. C. Burant, S. S. Iyengar, 
 J. Tomasi, M. Cossi, J. M. Millam, M. Klene, C. Adamo, R. Cammi, 
 J. W. Ochterski, R. L. Martin, K. Morokuma, O. Farkas, 
 J. B. Foresman, and D. J. Fox, Gaussian, Inc., Wallingford CT, 2016.
 
 ******************************************
 Gaussian 16:  ES64L-G16RevA.03 25-Dec-2016
                11-Feb-2020 
 ******************************************
 %chk=checkpoint.chk
 %mem=3GB
 %nprocshared=4
 Will use up to    4 processors via shared memory.
 -----------------------------------------
 #t pop=none jul-cc-pvdz guess=read ub3lyp
 -----------------------------------------
 -------------------------
 theory_abbreviation b3lyp
 -------------------------
 Symbolic Z-matrix:
 Charge =  0 Multiplicity = 6
 O                    -0.2969   -0.20736  -0.7103 
 C                    -1.10528  -1.16889  -0.60156 
 C                    -3.21927   0.02832   0.17318 
 C                    -2.4084    1.037    -0.21723 
 C                    -2.42345   1.55488  -1.62677 
 Fe                    1.47229   0.09895   0.05527 
 Cl                    2.10465   1.9826   -0.83995 
 C                    -1.56094   1.8336    0.73198 
 Cl                    2.51509  -1.70428  -0.63229 
 Cl                    1.31043   0.14982   2.24424 
 H                    -3.87037  -0.40941  -0.5826 
 H                    -2.12867   2.71717   1.05564 
 H                    -1.26693   1.2847    1.62733 
 H                    -0.6575    2.20503   0.2396 
 H                    -2.70736   2.6153   -1.61844 
 H                    -1.42235   1.50302  -2.07005 
 H                    -3.13579   1.02314  -2.26383 
 C                    -3.50234  -0.39705   1.58763 
 H                    -4.41763   0.09275   1.94733 
 H                    -3.67641  -1.47584   1.6618 
 H                    -2.70084  -0.13285   2.28194 
 C                    -1.04951  -2.06807   0.59359 
 H                    -1.9453   -2.68067   0.69566 
 H                    -0.1909   -2.73581   0.42426 
 H                    -0.84882  -1.51152   1.50948 
 C                    -1.75249  -1.6839   -1.85239 
 H                    -1.02698  -2.38672  -2.2891 
 H                    -2.67559  -2.22935  -1.652 
 H                    -1.91562  -0.88654  -2.57622 
 
                    Distance matrix (angstroms):
                    1          2          3          4          5
     1  O    0.000000
     2  C    1.260892   0.000000
     3  C    3.062077   2.549998   0.000000
     4  C    2.499995   2.590712   1.351798   0.000000
     5  C    2.909919   3.194931   2.490689   1.501743   0.000000
     6  Fe   1.951912   2.946644   4.693572   4.001744   4.486179
     7  Cl   3.252713   4.504702   5.761053   4.652908   4.615812
     8  C    2.800621   3.316765   2.514236   1.501261   2.526922
     9  Cl   3.186557   3.659868   6.044298   5.650455   6.000026
    10  Cl   3.382363   3.958939   4.982193   4.547049   5.558850
    11  H    3.581451   2.867559   1.089374   2.088760   2.653727
    12  H    3.876440   4.346853   3.032835   2.126366   2.938218
    13  H    2.937974   3.318760   2.739463   2.183278   3.464058
    14  H    2.617621   3.505906   3.362309   2.153750   2.650399
    15  H    3.821313   4.233302   3.188174   2.131623   1.097801
    16  H    2.457832   3.065309   3.230442   2.149982   1.096085
    17  H    3.462201   3.419225   2.633562   2.172061   1.093623
    18  C    3.948577   3.336788   1.503903   2.551605   3.912335
    19  H    4.912579   4.365801   2.141918   3.100628   4.346116
    20  H    4.319372   3.439145   2.165054   3.384219   4.644336
    21  H    3.839003   3.454524   2.177523   2.774869   4.266541
    22  C    2.393490   1.496666   3.046216   3.485031   4.465812
    23  H    3.288038   2.161914   3.038847   3.856016   4.854089
    24  H    2.773362   2.084136   4.107856   4.422999   5.253671
    25  H    2.633035   2.153984   3.126629   3.450904   4.660292
    26  C    2.367128   1.499567   3.030852   3.241488   3.315236
    27  H    2.788413   2.082553   4.086728   4.233533   4.233796
    28  H    3.260892   2.166537   2.953628   3.577563   3.792700
    29  H    2.561871   2.153055   3.177365   3.083447   2.668311
                    6          7          8          9         10
     6  Fe   0.000000
     7  Cl   2.179316   0.000000
     8  C    3.559129   3.991200   0.000000
     9  Cl   2.193587   3.715463   5.567031   0.000000
    10  Cl   2.195531   3.674520   3.656065   3.628123   0.000000
    11  H    5.404562   6.441172   3.477454   6.515612   5.928274
    12  H    4.563191   4.696149   1.098987   6.630448   4.453261
    13  H    3.373528   4.235810   1.090587   5.323866   2.882941
    14  H    3.000922   2.973949   1.093887   5.109619   3.480693
    15  H    5.157787   4.915458   2.729437   6.848739   6.094386
    16  H    3.855814   3.766007   2.824866   5.278003   5.283210
    17  H    5.240868   5.514537   3.480215   6.483294   6.391730
    18  C    5.228865   6.556990   3.078469   6.545707   4.888041
    19  H    6.186360   7.340335   3.559258   7.612247   5.736036
    20  H    5.618718   7.186108   4.036357   6.606790   5.277364
    21  H    4.735690   6.108517   2.751121   6.178025   4.021394
    22  C    3.368269   5.330257   3.937477   3.787016   3.634962
    23  H    4.451548   6.364447   4.530748   4.755188   4.583611
    24  H    3.307303   5.397329   4.780298   3.082648   3.727356
    25  H    3.177404   5.143117   3.507339   3.992523   2.821750
    26  C    4.149331   5.417172   4.369038   4.438614   5.433818
    27  H    4.233320   5.567591   5.217581   3.969508   5.696372
    28  H    5.053779   6.422661   4.840804   5.315888   6.060486
    29  H    4.401573   5.235370   4.297575   4.907005   5.892216
                   11         12         13         14         15
    11  H    0.000000
    12  H    3.936094   0.000000
    13  H    3.812040   1.766752   0.000000
    14  H    4.223005   1.758562   1.773189   0.000000
    15  H    3.402121   2.737872   3.792144   2.796882   0.000000
    16  H    3.444224   3.426800   3.707076   2.532248   1.758514
    17  H    2.327728   3.860427   4.324597   3.715631   1.770613
    18  C    2.201247   3.445050   2.797656   4.084244   4.470474
    19  H    2.636701   3.594726   3.383788   4.638598   4.690736
    20  H    2.492437   4.510464   3.664330   4.968421   5.332588
    21  H    3.106424   3.154969   2.119913   3.716452   4.771304
    22  C    3.477330   4.927128   3.515239   4.305612   5.438336
    23  H    3.240135   5.412938   4.129442   5.073105   5.829503
    24  H    4.468155   5.821397   4.332405   4.966257   6.256166
    25  H    3.836820   4.441374   2.829755   3.932160   5.501698
    26  C    2.778865   5.288438   4.599650   4.549634   4.410175
    27  H    3.860924   6.200863   5.373572   5.254995   5.319181
    28  H    2.425548   5.665553   5.008676   5.226328   4.844869
    29  H    2.832524   5.120790   4.775443   4.366860   3.715790
                   16         17         18         19         20
    16  H    0.000000
    17  H    1.789892   0.000000
    18  C    4.616840   4.121287   0.000000
    19  H    5.205755   4.499175   1.098658   0.000000
    20  H    5.280256   4.684841   1.095256   1.758238   0.000000
    21  H    4.821866   4.710572   1.092828   1.763586   1.771984
    22  C    4.470644   4.698186   3.129976   4.224446   2.896963
    23  H    5.042407   4.888150   2.904286   3.920578   2.319868
    24  H    5.070082   5.479768   4.217683   5.309025   3.907406
    25  H    4.714806   5.088471   2.879110   3.937227   2.831910
    26  C    3.211360   3.067708   4.068372   4.969636   4.011769
    27  H    3.915915   4.009342   5.011501   5.965865   4.843425
    28  H    3.959287   3.341370   3.812611   4.624066   3.542697
    29  H    2.491893   2.287633   4.482728   5.261321   4.626925
                   21         22         23         24         25
    21  H    0.000000
    22  C    3.053269   0.000000
    23  H    3.094913   1.090015   0.000000
    24  H    4.065241   1.100805   1.776122   0.000000
    25  H    2.434619   1.090355   1.797630   1.763372   0.000000
    26  C    4.516390   2.573831   2.742861   2.954354   3.485472
    27  H    5.364335   2.900337   3.136636   2.860626   3.902169
    28  H    4.457782   2.777204   2.499710   3.277355   3.721203
    29  H    4.978581   3.491967   3.731614   3.923938   4.268673
                   26         27         28         29
    26  C    0.000000
    27  H    1.100470   0.000000
    28  H    1.090771   1.774421   0.000000
    29  H    1.089181   1.767102   1.798570   0.000000
 Framework group  C1[X(C8H16Cl3FeO)]
 Deg. of freedom    81
                         Standard orientation:                         
 ---------------------------------------------------------------------
 Center     Atomic      Atomic             Coordinates (Angstroms)
 Number     Number       Type             X           Y           Z
 ---------------------------------------------------------------------
      1          8           0       -0.296901   -0.207357   -0.710299
      2          6           0       -1.105278   -1.168892   -0.601558
      3          6           0       -3.219270    0.028318    0.173179
      4          6           0       -2.408403    1.036997   -0.217230
      5          6           0       -2.423454    1.554881   -1.626770
      6         26           0        1.472289    0.098954    0.055272
      7         17           0        2.104646    1.982599   -0.839951
      8          6           0       -1.560937    1.833602    0.731983
      9         17           0        2.515088   -1.704280   -0.632290
     10         17           0        1.310432    0.149815    2.244238
     11          1           0       -3.870367   -0.409406   -0.582603
     12          1           0       -2.128670    2.717174    1.055636
     13          1           0       -1.266934    1.284697    1.627329
     14          1           0       -0.657503    2.205026    0.239602
     15          1           0       -2.707356    2.615304   -1.618441
     16          1           0       -1.422346    1.503022   -2.070048
     17          1           0       -3.135785    1.023138   -2.263830
     18          6           0       -3.502337   -0.397051    1.587625
     19          1           0       -4.417630    0.092749    1.947325
     20          1           0       -3.676409   -1.475839    1.661800
     21          1           0       -2.700838   -0.132850    2.281937
     22          6           0       -1.049510   -2.068066    0.593593
     23          1           0       -1.945297   -2.680667    0.695660
     24          1           0       -0.190900   -2.735813    0.424255
     25          1           0       -0.848823   -1.511516    1.509481
     26          6           0       -1.752491   -1.683899   -1.852391
     27          1           0       -1.026982   -2.386720   -2.289098
     28          1           0       -2.675592   -2.229345   -1.652004
     29          1           0       -1.915618   -0.886540   -2.576216
 ---------------------------------------------------------------------
 Rotational constants (GHZ):           0.5808346           0.3274556           0.3086214
   427 basis functions,  1056 primitive gaussians,   461 cartesian basis functions
    77 alpha electrons       72 beta electrons
       nuclear repulsion energy      1635.9894776950 Hartrees.
 NAtoms=   29 NActive=   29 NUniq=   29 SFac= 1.00D+00 NAtFMM=   60 NAOKFM=F Big=F
 Initial guess from the checkpoint file:  "checkpoint.chk"
 B after Tr=     0.000000    0.000000    0.000000
         Rot=    1.000000    0.000000    0.000000    0.000000 Ang=   0.00 deg.
 Initial guess <Sx>= 0.0000 <Sy>= 0.0000 <Sz>= 2.5000 <S**2>= 8.7629 S= 2.5021
 SCF Done:  E(UB3LYP) =  -3034.34083949     A.U. after   13 cycles
            NFock= 13  Conv=0.82D-08     -V/T= 2.0024
 <Sx>= 0.0000 <Sy>= 0.0000 <Sz>= 2.5000 <S**2>= 8.7621 S= 2.5020
 <L.S>= 0.000000000000E+00
 Annihilation of the first spin contaminant:
 S**2 before annihilation     8.7621,   after     8.7500
 1\1\GINC-HOLY7C04509\SP\UB3LYP\Jul-CC-pVDZ\C8H16Cl3Fe1O1(6)\EKWAN\11-F
 eb-2020\0\\#t pop=none jul-cc-pvdz guess=read ub3lyp\\theory_abbreviat
 ion b3lyp\\0,6\O,0,-0.296901,-0.207357,-0.710299\C,0,-1.105278,-1.1688
 92,-0.601558\C,0,-3.21927,0.028318,0.173179\C,0,-2.408403,1.036997,-0.
 21723\C,0,-2.423454,1.554881,-1.62677\Fe,0,1.472289,0.098954,0.055272\
 Cl,0,2.104646,1.982599,-0.839951\C,0,-1.560937,1.833602,0.731983\Cl,0,
 2.515088,-1.70428,-0.63229\Cl,0,1.310432,0.149815,2.244238\H,0,-3.8703
 67,-0.409406,-0.582603\H,0,-2.12867,2.717174,1.055636\H,0,-1.266934,1.
 284697,1.627329\H,0,-0.657503,2.205026,0.239602\H,0,-2.707356,2.615304
 ,-1.618441\H,0,-1.422346,1.503022,-2.070048\H,0,-3.135785,1.023138,-2.
 26383\C,0,-3.502337,-0.397051,1.587625\H,0,-4.41763,0.092749,1.947325\
 H,0,-3.676409,-1.475839,1.6618\H,0,-2.700838,-0.13285,2.281937\C,0,-1.
 04951,-2.068066,0.593593\H,0,-1.945297,-2.680667,0.69566\H,0,-0.1909,-
 2.735813,0.424255\H,0,-0.848823,-1.511516,1.509481\C,0,-1.752491,-1.68
 3899,-1.852391\H,0,-1.026982,-2.38672,-2.289098\H,0,-2.675592,-2.22934
 5,-1.652004\H,0,-1.915618,-0.88654,-2.576216\\Version=ES64L-G16RevA.03
 \HF=-3034.3408395\S2=8.762123\S2-1=0.\S2A=8.750045\RMSD=8.193e-09\PG=C
 01 [X(C8H16Cl3Fe1O1)]\\@


      LET US REMEMBER, PLEASE, THAT THE SEARCH FOR THE CONSTITUTION
      OF THE WORLD IS ONE OF THE GREATEST AND NOBLEST PROBLEMS PRESENTED 
      BY NATURE.

                                                  -- GALILEO
 Job cpu time:       0 days  0 hours 58 minutes 35.4 seconds.
 Elapsed time:       0 days  0 hours 14 minutes 41.3 seconds.
 File lengths (MBytes):  RWF=    174 Int=      0 D2E=      0 Chk=     13 Scr=      1
 Normal termination of Gaussian 16 at Tue Feb 11 15:03:06 2020.
 Initial command:
 /n/sw/g16_nehalem/g16/l1.exe "/scratch/Gau-185469.inp" -scrdir="/scratch/"
 Entering Link 1 = /n/sw/g16_nehalem/g16/l1.exe PID=    189039.
  
 Copyright (c) 1988,1990,1992,1993,1995,1998,2003,2009,2016,
            Gaussian, Inc.  All Rights Reserved.
  
 This is part of the Gaussian(R) 16 program.  It is based on
 the Gaussian(R) 09 system (copyright 2009, Gaussian, Inc.),
 the Gaussian(R) 03 system (copyright 2003, Gaussian, Inc.),
 the Gaussian(R) 98 system (copyright 1998, Gaussian, Inc.),
 the Gaussian(R) 94 system (copyright 1995, Gaussian, Inc.),
 the Gaussian 92(TM) system (copyright 1992, Gaussian, Inc.),
 the Gaussian 90(TM) system (copyright 1990, Gaussian, Inc.),
 the Gaussian 88(TM) system (copyright 1988, Gaussian, Inc.),
 the Gaussian 86(TM) system (copyright 1986, Carnegie Mellon
 University), and the Gaussian 82(TM) system (copyright 1983,
 Carnegie Mellon University). Gaussian is a federally registered
 trademark of Gaussian, Inc.
  
 This software contains proprietary and confidential information,
 including trade secrets, belonging to Gaussian, Inc.
  
 This software is provided under written license and may be
 used, copied, transmitted, or stored only in accord with that
 written license.
  
 The following legend is applicable only to US Government
 contracts under FAR:
  
                    RESTRICTED RIGHTS LEGEND
  
 Use, reproduction and disclosure by the US Government is
 subject to restrictions as set forth in subparagraphs (a)
 and (c) of the Commercial Computer Software - Restricted
 Rights clause in FAR 52.227-19.
  
 Gaussian, Inc.
 340 Quinnipiac St., Bldg. 40, Wallingford CT 06492
  
  
 ---------------------------------------------------------------
 Warning -- This program may not be used in any manner that
 competes with the business of Gaussian, Inc. or will provide
 assistance to any competitor of Gaussian, Inc.  The licensee
 of this program is prohibited from giving any competitor of
 Gaussian, Inc. access to this program.  By using this program,
 the user acknowledges that Gaussian, Inc. is engaged in the
 business of creating and licensing software in the field of
 computational chemistry and represents and warrants to the
 licensee that it is not a competitor of Gaussian, Inc. and that
 it will not use this program in any manner prohibited above.
 ---------------------------------------------------------------
  

 Cite this work as:
 Gaussian 16, Revision A.03,
 M. J. Frisch, G. W. Trucks, H. B. Schlegel, G. E. Scuseria, 
 M. A. Robb, J. R. Cheeseman, G. Scalmani, V. Barone, 
 G. A. Petersson, H. Nakatsuji, X. Li, M. Caricato, A. V. Marenich, 
 J. Bloino, B. G. Janesko, R. Gomperts, B. Mennucci, H. P. Hratchian, 
 J. V. Ortiz, A. F. Izmaylov, J. L. Sonnenberg, D. Williams-Young, 
 F. Ding, F. Lipparini, F. Egidi, J. Goings, B. Peng, A. Petrone, 
 T. Henderson, D. Ranasinghe, V. G. Zakrzewski, J. Gao, N. Rega, 
 G. Zheng, W. Liang, M. Hada, M. Ehara, K. Toyota, R. Fukuda, 
 J. Hasegawa, M. Ishida, T. Nakajima, Y. Honda, O. Kitao, H. Nakai, 
 T. Vreven, K. Throssell, J. A. Montgomery, Jr., J. E. Peralta, 
 F. Ogliaro, M. J. Bearpark, J. J. Heyd, E. N. Brothers, K. N. Kudin, 
 V. N. Staroverov, T. A. Keith, R. Kobayashi, J. Normand, 
 K. Raghavachari, A. P. Rendell, J. C. Burant, S. S. Iyengar, 
 J. Tomasi, M. Cossi, J. M. Millam, M. Klene, C. Adamo, R. Cammi, 
 J. W. Ochterski, R. L. Martin, K. Morokuma, O. Farkas, 
 J. B. Foresman, and D. J. Fox, Gaussian, Inc., Wallingford CT, 2016.
 
 ******************************************
 Gaussian 16:  ES64L-G16RevA.03 25-Dec-2016
                11-Feb-2020 
 ******************************************
 %chk=checkpoint.chk
 %mem=3GB
 %nprocshared=4
 Will use up to    4 processors via shared memory.
 -------------------------------------------------------------------
 #t pop=none jul-cc-pvdz guess=read ub3lyp empiricaldispersion=gd3bj
 -------------------------------------------------------------------
 ------------------------------
 theory_abbreviation b3lyp_d3bj
 ------------------------------
 Symbolic Z-matrix:
 Charge =  0 Multiplicity = 6
 O                    -0.2969   -0.20736  -0.7103 
 C                    -1.10528  -1.16889  -0.60156 
 C                    -3.21927   0.02832   0.17318 
 C                    -2.4084    1.037    -0.21723 
 C                    -2.42345   1.55488  -1.62677 
 Fe                    1.47229   0.09895   0.05527 
 Cl                    2.10465   1.9826   -0.83995 
 C                    -1.56094   1.8336    0.73198 
 Cl                    2.51509  -1.70428  -0.63229 
 Cl                    1.31043   0.14982   2.24424 
 H                    -3.87037  -0.40941  -0.5826 
 H                    -2.12867   2.71717   1.05564 
 H                    -1.26693   1.2847    1.62733 
 H                    -0.6575    2.20503   0.2396 
 H                    -2.70736   2.6153   -1.61844 
 H                    -1.42235   1.50302  -2.07005 
 H                    -3.13579   1.02314  -2.26383 
 C                    -3.50234  -0.39705   1.58763 
 H                    -4.41763   0.09275   1.94733 
 H                    -3.67641  -1.47584   1.6618 
 H                    -2.70084  -0.13285   2.28194 
 C                    -1.04951  -2.06807   0.59359 
 H                    -1.9453   -2.68067   0.69566 
 H                    -0.1909   -2.73581   0.42426 
 H                    -0.84882  -1.51152   1.50948 
 C                    -1.75249  -1.6839   -1.85239 
 H                    -1.02698  -2.38672  -2.2891 
 H                    -2.67559  -2.22935  -1.652 
 H                    -1.91562  -0.88654  -2.57622 
 
                    Distance matrix (angstroms):
                    1          2          3          4          5
     1  O    0.000000
     2  C    1.260892   0.000000
     3  C    3.062077   2.549998   0.000000
     4  C    2.499995   2.590712   1.351798   0.000000
     5  C    2.909919   3.194931   2.490689   1.501743   0.000000
     6  Fe   1.951912   2.946644   4.693572   4.001744   4.486179
     7  Cl   3.252713   4.504702   5.761053   4.652908   4.615812
     8  C    2.800621   3.316765   2.514236   1.501261   2.526922
     9  Cl   3.186557   3.659868   6.044298   5.650455   6.000026
    10  Cl   3.382363   3.958939   4.982193   4.547049   5.558850
    11  H    3.581451   2.867559   1.089374   2.088760   2.653727
    12  H    3.876440   4.346853   3.032835   2.126366   2.938218
    13  H    2.937974   3.318760   2.739463   2.183278   3.464058
    14  H    2.617621   3.505906   3.362309   2.153750   2.650399
    15  H    3.821313   4.233302   3.188174   2.131623   1.097801
    16  H    2.457832   3.065309   3.230442   2.149982   1.096085
    17  H    3.462201   3.419225   2.633562   2.172061   1.093623
    18  C    3.948577   3.336788   1.503903   2.551605   3.912335
    19  H    4.912579   4.365801   2.141918   3.100628   4.346116
    20  H    4.319372   3.439145   2.165054   3.384219   4.644336
    21  H    3.839003   3.454524   2.177523   2.774869   4.266541
    22  C    2.393490   1.496666   3.046216   3.485031   4.465812
    23  H    3.288038   2.161914   3.038847   3.856016   4.854089
    24  H    2.773362   2.084136   4.107856   4.422999   5.253671
    25  H    2.633035   2.153984   3.126629   3.450904   4.660292
    26  C    2.367128   1.499567   3.030852   3.241488   3.315236
    27  H    2.788413   2.082553   4.086728   4.233533   4.233796
    28  H    3.260892   2.166537   2.953628   3.577563   3.792700
    29  H    2.561871   2.153055   3.177365   3.083447   2.668311
                    6          7          8          9         10
     6  Fe   0.000000
     7  Cl   2.179316   0.000000
     8  C    3.559129   3.991200   0.000000
     9  Cl   2.193587   3.715463   5.567031   0.000000
    10  Cl   2.195531   3.674520   3.656065   3.628123   0.000000
    11  H    5.404562   6.441172   3.477454   6.515612   5.928274
    12  H    4.563191   4.696149   1.098987   6.630448   4.453261
    13  H    3.373528   4.235810   1.090587   5.323866   2.882941
    14  H    3.000922   2.973949   1.093887   5.109619   3.480693
    15  H    5.157787   4.915458   2.729437   6.848739   6.094386
    16  H    3.855814   3.766007   2.824866   5.278003   5.283210
    17  H    5.240868   5.514537   3.480215   6.483294   6.391730
    18  C    5.228865   6.556990   3.078469   6.545707   4.888041
    19  H    6.186360   7.340335   3.559258   7.612247   5.736036
    20  H    5.618718   7.186108   4.036357   6.606790   5.277364
    21  H    4.735690   6.108517   2.751121   6.178025   4.021394
    22  C    3.368269   5.330257   3.937477   3.787016   3.634962
    23  H    4.451548   6.364447   4.530748   4.755188   4.583611
    24  H    3.307303   5.397329   4.780298   3.082648   3.727356
    25  H    3.177404   5.143117   3.507339   3.992523   2.821750
    26  C    4.149331   5.417172   4.369038   4.438614   5.433818
    27  H    4.233320   5.567591   5.217581   3.969508   5.696372
    28  H    5.053779   6.422661   4.840804   5.315888   6.060486
    29  H    4.401573   5.235370   4.297575   4.907005   5.892216
                   11         12         13         14         15
    11  H    0.000000
    12  H    3.936094   0.000000
    13  H    3.812040   1.766752   0.000000
    14  H    4.223005   1.758562   1.773189   0.000000
    15  H    3.402121   2.737872   3.792144   2.796882   0.000000
    16  H    3.444224   3.426800   3.707076   2.532248   1.758514
    17  H    2.327728   3.860427   4.324597   3.715631   1.770613
    18  C    2.201247   3.445050   2.797656   4.084244   4.470474
    19  H    2.636701   3.594726   3.383788   4.638598   4.690736
    20  H    2.492437   4.510464   3.664330   4.968421   5.332588
    21  H    3.106424   3.154969   2.119913   3.716452   4.771304
    22  C    3.477330   4.927128   3.515239   4.305612   5.438336
    23  H    3.240135   5.412938   4.129442   5.073105   5.829503
    24  H    4.468155   5.821397   4.332405   4.966257   6.256166
    25  H    3.836820   4.441374   2.829755   3.932160   5.501698
    26  C    2.778865   5.288438   4.599650   4.549634   4.410175
    27  H    3.860924   6.200863   5.373572   5.254995   5.319181
    28  H    2.425548   5.665553   5.008676   5.226328   4.844869
    29  H    2.832524   5.120790   4.775443   4.366860   3.715790
                   16         17         18         19         20
    16  H    0.000000
    17  H    1.789892   0.000000
    18  C    4.616840   4.121287   0.000000
    19  H    5.205755   4.499175   1.098658   0.000000
    20  H    5.280256   4.684841   1.095256   1.758238   0.000000
    21  H    4.821866   4.710572   1.092828   1.763586   1.771984
    22  C    4.470644   4.698186   3.129976   4.224446   2.896963
    23  H    5.042407   4.888150   2.904286   3.920578   2.319868
    24  H    5.070082   5.479768   4.217683   5.309025   3.907406
    25  H    4.714806   5.088471   2.879110   3.937227   2.831910
    26  C    3.211360   3.067708   4.068372   4.969636   4.011769
    27  H    3.915915   4.009342   5.011501   5.965865   4.843425
    28  H    3.959287   3.341370   3.812611   4.624066   3.542697
    29  H    2.491893   2.287633   4.482728   5.261321   4.626925
                   21         22         23         24         25
    21  H    0.000000
    22  C    3.053269   0.000000
    23  H    3.094913   1.090015   0.000000
    24  H    4.065241   1.100805   1.776122   0.000000
    25  H    2.434619   1.090355   1.797630   1.763372   0.000000
    26  C    4.516390   2.573831   2.742861   2.954354   3.485472
    27  H    5.364335   2.900337   3.136636   2.860626   3.902169
    28  H    4.457782   2.777204   2.499710   3.277355   3.721203
    29  H    4.978581   3.491967   3.731614   3.923938   4.268673
                   26         27         28         29
    26  C    0.000000
    27  H    1.100470   0.000000
    28  H    1.090771   1.774421   0.000000
    29  H    1.089181   1.767102   1.798570   0.000000
 Framework group  C1[X(C8H16Cl3FeO)]
 Deg. of freedom    81
                         Standard orientation:                         
 ---------------------------------------------------------------------
 Center     Atomic      Atomic             Coordinates (Angstroms)
 Number     Number       Type             X           Y           Z
 ---------------------------------------------------------------------
      1          8           0       -0.296901   -0.207357   -0.710299
      2          6           0       -1.105278   -1.168892   -0.601558
      3          6           0       -3.219270    0.028318    0.173179
      4          6           0       -2.408403    1.036997   -0.217230
      5          6           0       -2.423454    1.554881   -1.626770
      6         26           0        1.472289    0.098954    0.055272
      7         17           0        2.104646    1.982599   -0.839951
      8          6           0       -1.560937    1.833602    0.731983
      9         17           0        2.515088   -1.704280   -0.632290
     10         17           0        1.310432    0.149815    2.244238
     11          1           0       -3.870367   -0.409406   -0.582603
     12          1           0       -2.128670    2.717174    1.055636
     13          1           0       -1.266934    1.284697    1.627329
     14          1           0       -0.657503    2.205026    0.239602
     15          1           0       -2.707356    2.615304   -1.618441
     16          1           0       -1.422346    1.503022   -2.070048
     17          1           0       -3.135785    1.023138   -2.263830
     18          6           0       -3.502337   -0.397051    1.587625
     19          1           0       -4.417630    0.092749    1.947325
     20          1           0       -3.676409   -1.475839    1.661800
     21          1           0       -2.700838   -0.132850    2.281937
     22          6           0       -1.049510   -2.068066    0.593593
     23          1           0       -1.945297   -2.680667    0.695660
     24          1           0       -0.190900   -2.735813    0.424255
     25          1           0       -0.848823   -1.511516    1.509481
     26          6           0       -1.752491   -1.683899   -1.852391
     27          1           0       -1.026982   -2.386720   -2.289098
     28          1           0       -2.675592   -2.229345   -1.652004
     29          1           0       -1.915618   -0.886540   -2.576216
 ---------------------------------------------------------------------
 Rotational constants (GHZ):           0.5808346           0.3274556           0.3086214
   427 basis functions,  1056 primitive gaussians,   461 cartesian basis functions
    77 alpha electrons       72 beta electrons
       nuclear repulsion energy      1635.9894776950 Hartrees.
 NAtoms=   29 NActive=   29 NUniq=   29 SFac= 1.00D+00 NAtFMM=   60 NAOKFM=F Big=F
 Nuclear repulsion after empirical dispersion term =     1635.9201537973 Hartrees.
 Initial guess from the checkpoint file:  "checkpoint.chk"
 B after Tr=     0.000000    0.000000    0.000000
         Rot=    1.000000    0.000000    0.000000    0.000000 Ang=   0.00 deg.
 Initial guess <Sx>= 0.0000 <Sy>= 0.0000 <Sz>= 2.5000 <S**2>= 8.7621 S= 2.5020
 SCF Done:  E(UB3LYP) =  -3034.41016339     A.U. after    1 cycles
            NFock=  1  Conv=0.57D-08     -V/T= 2.0024
 <Sx>= 0.0000 <Sy>= 0.0000 <Sz>= 2.5000 <S**2>= 8.7621 S= 2.5020
 <L.S>= 0.000000000000E+00
 Annihilation of the first spin contaminant:
 S**2 before annihilation     8.7621,   after     8.7500
 1\1\GINC-HOLY7C04509\SP\UB3LYP\Jul-CC-pVDZ\C8H16Cl3Fe1O1(6)\EKWAN\11-F
 eb-2020\0\\#t pop=none jul-cc-pvdz guess=read ub3lyp empiricaldispersi
 on=gd3bj\\theory_abbreviation b3lyp_d3bj\\0,6\O,0,-0.296901,-0.207357,
 -0.710299\C,0,-1.105278,-1.168892,-0.601558\C,0,-3.21927,0.028318,0.17
 3179\C,0,-2.408403,1.036997,-0.21723\C,0,-2.423454,1.554881,-1.62677\F
 e,0,1.472289,0.098954,0.055272\Cl,0,2.104646,1.982599,-0.839951\C,0,-1
 .560937,1.833602,0.731983\Cl,0,2.515088,-1.70428,-0.63229\Cl,0,1.31043
 2,0.149815,2.244238\H,0,-3.870367,-0.409406,-0.582603\H,0,-2.12867,2.7
 17174,1.055636\H,0,-1.266934,1.284697,1.627329\H,0,-0.657503,2.205026,
 0.239602\H,0,-2.707356,2.615304,-1.618441\H,0,-1.422346,1.503022,-2.07
 0048\H,0,-3.135785,1.023138,-2.26383\C,0,-3.502337,-0.397051,1.587625\
 H,0,-4.41763,0.092749,1.947325\H,0,-3.676409,-1.475839,1.6618\H,0,-2.7
 00838,-0.13285,2.281937\C,0,-1.04951,-2.068066,0.593593\H,0,-1.945297,
 -2.680667,0.69566\H,0,-0.1909,-2.735813,0.424255\H,0,-0.848823,-1.5115
 16,1.509481\C,0,-1.752491,-1.683899,-1.852391\H,0,-1.026982,-2.38672,-
 2.289098\H,0,-2.675592,-2.229345,-1.652004\H,0,-1.915618,-0.88654,-2.5
 76216\\Version=ES64L-G16RevA.03\HF=-3034.4101634\S2=8.762123\S2-1=0.\S
 2A=8.750045\RMSD=5.746e-09\PG=C01 [X(C8H16Cl3Fe1O1)]\\@


 FROM THE ASHES OF OUR DESPAIR GROW THE FLOWERS OF TOMORROW.
 Job cpu time:       0 days  0 hours  4 minutes 56.8 seconds.
 Elapsed time:       0 days  0 hours  1 minutes 14.7 seconds.
 File lengths (MBytes):  RWF=    170 Int=      0 D2E=      0 Chk=     13 Scr=      1
 Normal termination of Gaussian 16 at Tue Feb 11 15:04:22 2020.
 Initial command:
 /n/sw/g16_nehalem/g16/l1.exe "/scratch/Gau-185469.inp" -scrdir="/scratch/"
 Entering Link 1 = /n/sw/g16_nehalem/g16/l1.exe PID=    189177.
  
 Copyright (c) 1988,1990,1992,1993,1995,1998,2003,2009,2016,
            Gaussian, Inc.  All Rights Reserved.
  
 This is part of the Gaussian(R) 16 program.  It is based on
 the Gaussian(R) 09 system (copyright 2009, Gaussian, Inc.),
 the Gaussian(R) 03 system (copyright 2003, Gaussian, Inc.),
 the Gaussian(R) 98 system (copyright 1998, Gaussian, Inc.),
 the Gaussian(R) 94 system (copyright 1995, Gaussian, Inc.),
 the Gaussian 92(TM) system (copyright 1992, Gaussian, Inc.),
 the Gaussian 90(TM) system (copyright 1990, Gaussian, Inc.),
 the Gaussian 88(TM) system (copyright 1988, Gaussian, Inc.),
 the Gaussian 86(TM) system (copyright 1986, Carnegie Mellon
 University), and the Gaussian 82(TM) system (copyright 1983,
 Carnegie Mellon University). Gaussian is a federally registered
 trademark of Gaussian, Inc.
  
 This software contains proprietary and confidential information,
 including trade secrets, belonging to Gaussian, Inc.
  
 This software is provided under written license and may be
 used, copied, transmitted, or stored only in accord with that
 written license.
  
 The following legend is applicable only to US Government
 contracts under FAR:
  
                    RESTRICTED RIGHTS LEGEND
  
 Use, reproduction and disclosure by the US Government is
 subject to restrictions as set forth in subparagraphs (a)
 and (c) of the Commercial Computer Software - Restricted
 Rights clause in FAR 52.227-19.
  
 Gaussian, Inc.
 340 Quinnipiac St., Bldg. 40, Wallingford CT 06492
  
  
 ---------------------------------------------------------------
 Warning -- This program may not be used in any manner that
 competes with the business of Gaussian, Inc. or will provide
 assistance to any competitor of Gaussian, Inc.  The licensee
 of this program is prohibited from giving any competitor of
 Gaussian, Inc. access to this program.  By using this program,
 the user acknowledges that Gaussian, Inc. is engaged in the
 business of creating and licensing software in the field of
 computational chemistry and represents and warrants to the
 licensee that it is not a competitor of Gaussian, Inc. and that
 it will not use this program in any manner prohibited above.
 ---------------------------------------------------------------
  

 Cite this work as:
 Gaussian 16, Revision A.03,
 M. J. Frisch, G. W. Trucks, H. B. Schlegel, G. E. Scuseria, 
 M. A. Robb, J. R. Cheeseman, G. Scalmani, V. Barone, 
 G. A. Petersson, H. Nakatsuji, X. Li, M. Caricato, A. V. Marenich, 
 J. Bloino, B. G. Janesko, R. Gomperts, B. Mennucci, H. P. Hratchian, 
 J. V. Ortiz, A. F. Izmaylov, J. L. Sonnenberg, D. Williams-Young, 
 F. Ding, F. Lipparini, F. Egidi, J. Goings, B. Peng, A. Petrone, 
 T. Henderson, D. Ranasinghe, V. G. Zakrzewski, J. Gao, N. Rega, 
 G. Zheng, W. Liang, M. Hada, M. Ehara, K. Toyota, R. Fukuda, 
 J. Hasegawa, M. Ishida, T. Nakajima, Y. Honda, O. Kitao, H. Nakai, 
 T. Vreven, K. Throssell, J. A. Montgomery, Jr., J. E. Peralta, 
 F. Ogliaro, M. J. Bearpark, J. J. Heyd, E. N. Brothers, K. N. Kudin, 
 V. N. Staroverov, T. A. Keith, R. Kobayashi, J. Normand, 
 K. Raghavachari, A. P. Rendell, J. C. Burant, S. S. Iyengar, 
 J. Tomasi, M. Cossi, J. M. Millam, M. Klene, C. Adamo, R. Cammi, 
 J. W. Ochterski, R. L. Martin, K. Morokuma, O. Farkas, 
 J. B. Foresman, and D. J. Fox, Gaussian, Inc., Wallingford CT, 2016.
 
 ******************************************
 Gaussian 16:  ES64L-G16RevA.03 25-Dec-2016
                11-Feb-2020 
 ******************************************
 %chk=checkpoint.chk
 %mem=3GB
 %nprocshared=4
 Will use up to    4 processors via shared memory.
 ----------------------------------------
 #t pop=none jul-cc-pvdz guess=read ub97d
 ----------------------------------------
 ------------------------
 theory_abbreviation b97d
 ------------------------
 Symbolic Z-matrix:
 Charge =  0 Multiplicity = 6
 O                    -0.2969   -0.20736  -0.7103 
 C                    -1.10528  -1.16889  -0.60156 
 C                    -3.21927   0.02832   0.17318 
 C                    -2.4084    1.037    -0.21723 
 C                    -2.42345   1.55488  -1.62677 
 Fe                    1.47229   0.09895   0.05527 
 Cl                    2.10465   1.9826   -0.83995 
 C                    -1.56094   1.8336    0.73198 
 Cl                    2.51509  -1.70428  -0.63229 
 Cl                    1.31043   0.14982   2.24424 
 H                    -3.87037  -0.40941  -0.5826 
 H                    -2.12867   2.71717   1.05564 
 H                    -1.26693   1.2847    1.62733 
 H                    -0.6575    2.20503   0.2396 
 H                    -2.70736   2.6153   -1.61844 
 H                    -1.42235   1.50302  -2.07005 
 H                    -3.13579   1.02314  -2.26383 
 C                    -3.50234  -0.39705   1.58763 
 H                    -4.41763   0.09275   1.94733 
 H                    -3.67641  -1.47584   1.6618 
 H                    -2.70084  -0.13285   2.28194 
 C                    -1.04951  -2.06807   0.59359 
 H                    -1.9453   -2.68067   0.69566 
 H                    -0.1909   -2.73581   0.42426 
 H                    -0.84882  -1.51152   1.50948 
 C                    -1.75249  -1.6839   -1.85239 
 H                    -1.02698  -2.38672  -2.2891 
 H                    -2.67559  -2.22935  -1.652 
 H                    -1.91562  -0.88654  -2.57622 
 
                    Distance matrix (angstroms):
                    1          2          3          4          5
     1  O    0.000000
     2  C    1.260892   0.000000
     3  C    3.062077   2.549998   0.000000
     4  C    2.499995   2.590712   1.351798   0.000000
     5  C    2.909919   3.194931   2.490689   1.501743   0.000000
     6  Fe   1.951912   2.946644   4.693572   4.001744   4.486179
     7  Cl   3.252713   4.504702   5.761053   4.652908   4.615812
     8  C    2.800621   3.316765   2.514236   1.501261   2.526922
     9  Cl   3.186557   3.659868   6.044298   5.650455   6.000026
    10  Cl   3.382363   3.958939   4.982193   4.547049   5.558850
    11  H    3.581451   2.867559   1.089374   2.088760   2.653727
    12  H    3.876440   4.346853   3.032835   2.126366   2.938218
    13  H    2.937974   3.318760   2.739463   2.183278   3.464058
    14  H    2.617621   3.505906   3.362309   2.153750   2.650399
    15  H    3.821313   4.233302   3.188174   2.131623   1.097801
    16  H    2.457832   3.065309   3.230442   2.149982   1.096085
    17  H    3.462201   3.419225   2.633562   2.172061   1.093623
    18  C    3.948577   3.336788   1.503903   2.551605   3.912335
    19  H    4.912579   4.365801   2.141918   3.100628   4.346116
    20  H    4.319372   3.439145   2.165054   3.384219   4.644336
    21  H    3.839003   3.454524   2.177523   2.774869   4.266541
    22  C    2.393490   1.496666   3.046216   3.485031   4.465812
    23  H    3.288038   2.161914   3.038847   3.856016   4.854089
    24  H    2.773362   2.084136   4.107856   4.422999   5.253671
    25  H    2.633035   2.153984   3.126629   3.450904   4.660292
    26  C    2.367128   1.499567   3.030852   3.241488   3.315236
    27  H    2.788413   2.082553   4.086728   4.233533   4.233796
    28  H    3.260892   2.166537   2.953628   3.577563   3.792700
    29  H    2.561871   2.153055   3.177365   3.083447   2.668311
                    6          7          8          9         10
     6  Fe   0.000000
     7  Cl   2.179316   0.000000
     8  C    3.559129   3.991200   0.000000
     9  Cl   2.193587   3.715463   5.567031   0.000000
    10  Cl   2.195531   3.674520   3.656065   3.628123   0.000000
    11  H    5.404562   6.441172   3.477454   6.515612   5.928274
    12  H    4.563191   4.696149   1.098987   6.630448   4.453261
    13  H    3.373528   4.235810   1.090587   5.323866   2.882941
    14  H    3.000922   2.973949   1.093887   5.109619   3.480693
    15  H    5.157787   4.915458   2.729437   6.848739   6.094386
    16  H    3.855814   3.766007   2.824866   5.278003   5.283210
    17  H    5.240868   5.514537   3.480215   6.483294   6.391730
    18  C    5.228865   6.556990   3.078469   6.545707   4.888041
    19  H    6.186360   7.340335   3.559258   7.612247   5.736036
    20  H    5.618718   7.186108   4.036357   6.606790   5.277364
    21  H    4.735690   6.108517   2.751121   6.178025   4.021394
    22  C    3.368269   5.330257   3.937477   3.787016   3.634962
    23  H    4.451548   6.364447   4.530748   4.755188   4.583611
    24  H    3.307303   5.397329   4.780298   3.082648   3.727356
    25  H    3.177404   5.143117   3.507339   3.992523   2.821750
    26  C    4.149331   5.417172   4.369038   4.438614   5.433818
    27  H    4.233320   5.567591   5.217581   3.969508   5.696372
    28  H    5.053779   6.422661   4.840804   5.315888   6.060486
    29  H    4.401573   5.235370   4.297575   4.907005   5.892216
                   11         12         13         14         15
    11  H    0.000000
    12  H    3.936094   0.000000
    13  H    3.812040   1.766752   0.000000
    14  H    4.223005   1.758562   1.773189   0.000000
    15  H    3.402121   2.737872   3.792144   2.796882   0.000000
    16  H    3.444224   3.426800   3.707076   2.532248   1.758514
    17  H    2.327728   3.860427   4.324597   3.715631   1.770613
    18  C    2.201247   3.445050   2.797656   4.084244   4.470474
    19  H    2.636701   3.594726   3.383788   4.638598   4.690736
    20  H    2.492437   4.510464   3.664330   4.968421   5.332588
    21  H    3.106424   3.154969   2.119913   3.716452   4.771304
    22  C    3.477330   4.927128   3.515239   4.305612   5.438336
    23  H    3.240135   5.412938   4.129442   5.073105   5.829503
    24  H    4.468155   5.821397   4.332405   4.966257   6.256166
    25  H    3.836820   4.441374   2.829755   3.932160   5.501698
    26  C    2.778865   5.288438   4.599650   4.549634   4.410175
    27  H    3.860924   6.200863   5.373572   5.254995   5.319181
    28  H    2.425548   5.665553   5.008676   5.226328   4.844869
    29  H    2.832524   5.120790   4.775443   4.366860   3.715790
                   16         17         18         19         20
    16  H    0.000000
    17  H    1.789892   0.000000
    18  C    4.616840   4.121287   0.000000
    19  H    5.205755   4.499175   1.098658   0.000000
    20  H    5.280256   4.684841   1.095256   1.758238   0.000000
    21  H    4.821866   4.710572   1.092828   1.763586   1.771984
    22  C    4.470644   4.698186   3.129976   4.224446   2.896963
    23  H    5.042407   4.888150   2.904286   3.920578   2.319868
    24  H    5.070082   5.479768   4.217683   5.309025   3.907406
    25  H    4.714806   5.088471   2.879110   3.937227   2.831910
    26  C    3.211360   3.067708   4.068372   4.969636   4.011769
[...]
 Rotational constants (GHZ):           0.5808346           0.3274556           0.3086214
   427 basis functions,  1056 primitive gaussians,   461 cartesian basis functions
    77 alpha electrons       72 beta electrons
       nuclear repulsion energy      1635.9894776950 Hartrees.
 NAtoms=   29 NActive=   29 NUniq=   29 SFac= 1.00D+00 NAtFMM=   60 NAOKFM=F Big=F
 Nuclear repulsion after empirical dispersion term =     1635.9870055463 Hartrees.
 Initial guess from the checkpoint file:  "checkpoint.chk"
 B after Tr=     0.000000    0.000000    0.000000
         Rot=    1.000000    0.000000    0.000000    0.000000 Ang=   0.00 deg.
 Initial guess <Sx>= 0.0000 <Sy>= 0.0000 <Sz>= 2.5000 <S**2>= 8.7618 S= 2.5020
 SCF Done:  E(UM06L) =  -3034.21003023     A.U. after   17 cycles
            NFock= 17  Conv=0.66D-08     -V/T= 2.0020
 <Sx>= 0.0000 <Sy>= 0.0000 <Sz>= 2.5000 <S**2>= 8.7617 S= 2.5020
 <L.S>= 0.000000000000E+00
 Annihilation of the first spin contaminant:
 S**2 before annihilation     8.7617,   after     8.7500
 1\1\GINC-HOLY7C04509\SP\UM06L\Jul-CC-pVDZ\C8H16Cl3Fe1O1(6)\EKWAN\12-Fe
 b-2020\0\\#t pop=none jul-cc-pvdz guess=read um06l empiricaldispersion
 =gd3\\theory_abbreviation m06l_d3\\0,6\O,0,-0.296901,-0.207357,-0.7102
 99\C,0,-1.105278,-1.168892,-0.601558\C,0,-3.21927,0.028318,0.173179\C,
 0,-2.408403,1.036997,-0.21723\C,0,-2.423454,1.554881,-1.62677\Fe,0,1.4
 72289,0.098954,0.055272\Cl,0,2.104646,1.982599,-0.839951\C,0,-1.560937
 ,1.833602,0.731983\Cl,0,2.515088,-1.70428,-0.63229\Cl,0,1.310432,0.149
 815,2.244238\H,0,-3.870367,-0.409406,-0.582603\H,0,-2.12867,2.717174,1
 .055636\H,0,-1.266934,1.284697,1.627329\H,0,-0.657503,2.205026,0.23960
 2\H,0,-2.707356,2.615304,-1.618441\H,0,-1.422346,1.503022,-2.070048\H,
 0,-3.135785,1.023138,-2.26383\C,0,-3.502337,-0.397051,1.587625\H,0,-4.
 41763,0.092749,1.947325\H,0,-3.676409,-1.475839,1.6618\H,0,-2.700838,-
 0.13285,2.281937\C,0,-1.04951,-2.068066,0.593593\H,0,-1.945297,-2.6806
 67,0.69566\H,0,-0.1909,-2.735813,0.424255\H,0,-0.848823,-1.511516,1.50
 9481\C,0,-1.752491,-1.683899,-1.852391\H,0,-1.026982,-2.38672,-2.28909
 8\H,0,-2.675592,-2.229345,-1.652004\H,0,-1.915618,-0.88654,-2.576216\\
 Version=ES64L-G16RevA.03\HF=-3034.2100302\S2=8.761724\S2-1=0.\S2A=8.75
 0044\RMSD=6.604e-09\PG=C01 [X(C8H16Cl3Fe1O1)]\\@


 IMAGINATION WILL OFTEN CARRY US TO WORLDS THAT NEVER WERE.
 BUT WITHOUT IT, WE GO NOWHERE. -- CARL SAGAN (COSMOS)
 Job cpu time:       0 days  1 hours 11 minutes 59.7 seconds.
 Elapsed time:       0 days  0 hours 18 minutes  3.6 seconds.
 File lengths (MBytes):  RWF=    174 Int=      0 D2E=      0 Chk=     13 Scr=      1
 Normal termination of Gaussian 16 at Wed Feb 12 00:24:57 2020.
 Initial command:
 /n/sw/g16_nehalem/g16/l1.exe "/scratch/Gau-185469.inp" -scrdir="/scratch/"
 Entering Link 1 = /n/sw/g16_nehalem/g16/l1.exe PID=    241045.
  
 Copyright (c) 1988,1990,1992,1993,1995,1998,2003,2009,2016,
            Gaussian, Inc.  All Rights Reserved.
  
 This is part of the Gaussian(R) 16 program.  It is based on
 the Gaussian(R) 09 system (copyright 2009, Gaussian, Inc.),
 the Gaussian(R) 03 system (copyright 2003, Gaussian, Inc.),
 the Gaussian(R) 98 system (copyright 1998, Gaussian, Inc.),
 the Gaussian(R) 94 system (copyright 1995, Gaussian, Inc.),
 the Gaussian 92(TM) system (copyright 1992, Gaussian, Inc.),
 the Gaussian 90(TM) system (copyright 1990, Gaussian, Inc.),
 the Gaussian 88(TM) system (copyright 1988, Gaussian, Inc.),
 the Gaussian 86(TM) system (copyright 1986, Carnegie Mellon
 University), and the Gaussian 82(TM) system (copyright 1983,
 Carnegie Mellon University). Gaussian is a federally registered
 trademark of Gaussian, Inc.
  
 This software contains proprietary and confidential information,
 including trade secrets, belonging to Gaussian, Inc.
  
 This software is provided under written license and may be
 used, copied, transmitted, or stored only in accord with that
 written license.
  
 The following legend is applicable only to US Government
 contracts under FAR:
  
                    RESTRICTED RIGHTS LEGEND
  
 Use, reproduction and disclosure by the US Government is
 subject to restrictions as set forth in subparagraphs (a)
 and (c) of the Commercial Computer Software - Restricted
 Rights clause in FAR 52.227-19.
  
 Gaussian, Inc.
 340 Quinnipiac St., Bldg. 40, Wallingford CT 06492
  
  
 ---------------------------------------------------------------
 Warning -- This program may not be used in any manner that
 competes with the business of Gaussian, Inc. or will provide
 assistance to any competitor of Gaussian, Inc.  The licensee
 of this program is prohibited from giving any competitor of
 Gaussian, Inc. access to this program.  By using this program,
 the user acknowledges that Gaussian, Inc. is engaged in the
 business of creating and licensing software in the field of
 computational chemistry and represents and warrants to the
 licensee that it is not a competitor of Gaussian, Inc. and that
 it will not use this program in any manner prohibited above.
 ---------------------------------------------------------------
  

 Cite this work as:
 Gaussian 16, Revision A.03,
 M. J. Frisch, G. W. Trucks, H. B. Schlegel, G. E. Scuseria, 
 M. A. Robb, J. R. Cheeseman, G. Scalmani, V. Barone, 
 G. A. Petersson, H. Nakatsuji, X. Li, M. Caricato, A. V. Marenich, 
 J. Bloino, B. G. Janesko, R. Gomperts, B. Mennucci, H. P. Hratchian, 
 J. V. Ortiz, A. F. Izmaylov, J. L. Sonnenberg, D. Williams-Young, 
 F. Ding, F. Lipparini, F. Egidi, J. Goings, B. Peng, A. Petrone, 
 T. Henderson, D. Ranasinghe, V. G. Zakrzewski, J. Gao, N. Rega, 
 G. Zheng, W. Liang, M. Hada, M. Ehara, K. Toyota, R. Fukuda, 
 J. Hasegawa, M. Ishida, T. Nakajima, Y. Honda, O. Kitao, H. Nakai, 
 T. Vreven, K. Throssell, J. A. Montgomery, Jr., J. E. Peralta, 
 F. Ogliaro, M. J. Bearpark, J. J. Heyd, E. N. Brothers, K. N. Kudin, 
 V. N. Staroverov, T. A. Keith, R. Kobayashi, J. Normand, 
 K. Raghavachari, A. P. Rendell, J. C. Burant, S. S. Iyengar, 
 J. Tomasi, M. Cossi, J. M. Millam, M. Klene, C. Adamo, R. Cammi, 
 J. W. Ochterski, R. L. Martin, K. Morokuma, O. Farkas, 
 J. B. Foresman, and D. J. Fox, Gaussian, Inc., Wallingford CT, 2016.
 
 ******************************************
 Gaussian 16:  ES64L-G16RevA.03 25-Dec-2016
                12-Feb-2020 
 ******************************************
 %chk=checkpoint.chk
 %mem=3GB
 %nprocshared=4
 Will use up to    4 processors via shared memory.
 -------------------------------------------------------------------
 #t pop=none jul-cc-pvdz guess=read ub97d3 empiricaldispersion=gd3bj
 -------------------------------------------------------------------
 ------------------------------
 theory_abbreviation b97d3_d3bj
 ------------------------------
 Symbolic Z-matrix:
 Charge =  0 Multiplicity = 6
 O                    -0.2969   -0.20736  -0.7103 
 C                    -1.10528  -1.16889  -0.60156 
 C                    -3.21927   0.02832   0.17318 
 C                    -2.4084    1.037    -0.21723 
 C                    -2.42345   1.55488  -1.62677 
 Fe                    1.47229   0.09895   0.05527 
 Cl                    2.10465   1.9826   -0.83995 
 C                    -1.56094   1.8336    0.73198 
 Cl                    2.51509  -1.70428  -0.63229 
 Cl                    1.31043   0.14982   2.24424 
 H                    -3.87037  -0.40941  -0.5826 
 H                    -2.12867   2.71717   1.05564 
 H                    -1.26693   1.2847    1.62733 
 H                    -0.6575    2.20503   0.2396 
 H                    -2.70736   2.6153   -1.61844 
 H                    -1.42235   1.50302  -2.07005 
 H                    -3.13579   1.02314  -2.26383 
 C                    -3.50234  -0.39705   1.58763 
 H                    -4.41763   0.09275   1.94733 
 H                    -3.67641  -1.47584   1.6618 
 H                    -2.70084  -0.13285   2.28194 
 C                    -1.04951  -2.06807   0.59359 
 H                    -1.9453   -2.68067   0.69566 
 H                    -0.1909   -2.73581   0.42426 
 H                    -0.84882  -1.51152   1.50948 
 C                    -1.75249  -1.6839   -1.85239 
 H                    -1.02698  -2.38672  -2.2891 
 H                    -2.67559  -2.22935  -1.652 
 H                    -1.91562  -0.88654  -2.57622 
 
                    Distance matrix (angstroms):
                    1          2          3          4          5
     1  O    0.000000
     2  C    1.260892   0.000000
     3  C    3.062077   2.549998   0.000000
     4  C    2.499995   2.590712   1.351798   0.000000
     5  C    2.909919   3.194931   2.490689   1.501743   0.000000
     6  Fe   1.951912   2.946644   4.693572   4.001744   4.486179
     7  Cl   3.252713   4.504702   5.761053   4.652908   4.615812
     8  C    2.800621   3.316765   2.514236   1.501261   2.526922
     9  Cl   3.186557   3.659868   6.044298   5.650455   6.000026
    10  Cl   3.382363   3.958939   4.982193   4.547049   5.558850
    11  H    3.581451   2.867559   1.089374   2.088760   2.653727
    12  H    3.876440   4.346853   3.032835   2.126366   2.938218
    13  H    2.937974   3.318760   2.739463   2.183278   3.464058
    14  H    2.617621   3.505906   3.362309   2.153750   2.650399
    15  H    3.821313   4.233302   3.188174   2.131623   1.097801
    16  H    2.457832   3.065309   3.230442   2.149982   1.096085
    17  H    3.462201   3.419225   2.633562   2.172061   1.093623
    18  C    3.948577   3.336788   1.503903   2.551605   3.912335
    19  H    4.912579   4.365801   2.141918   3.100628   4.346116
    20  H    4.319372   3.439145   2.165054   3.384219   4.644336
    21  H    3.839003   3.454524   2.177523   2.774869   4.266541
    22  C    2.393490   1.496666   3.046216   3.485031   4.465812
    23  H    3.288038   2.161914   3.038847   3.856016   4.854089
    24  H    2.773362   2.084136   4.107856   4.422999   5.253671
    25  H    2.633035   2.153984   3.126629   3.450904   4.660292
    26  C    2.367128   1.499567   3.030852   3.241488   3.315236
    27  H    2.788413   2.082553   4.086728   4.233533   4.233796
    28  H    3.260892   2.166537   2.953628   3.577563   3.792700
    29  H    2.561871   2.153055   3.177365   3.083447   2.668311
                    6          7          8          9         10
     6  Fe   0.000000
     7  Cl   2.179316   0.000000
     8  C    3.559129   3.991200   0.000000
     9  Cl   2.193587   3.715463   5.567031   0.000000
    10  Cl   2.195531   3.674520   3.656065   3.628123   0.000000
    11  H    5.404562   6.441172   3.477454   6.515612   5.928274
    12  H    4.563191   4.696149   1.098987   6.630448   4.453261
    13  H    3.373528   4.235810   1.090587   5.323866   2.882941
    14  H    3.000922   2.973949   1.093887   5.109619   3.480693
    15  H    5.157787   4.915458   2.729437   6.848739   6.094386
    16  H    3.855814   3.766007   2.824866   5.278003   5.283210
    17  H    5.240868   5.514537   3.480215   6.483294   6.391730
    18  C    5.228865   6.556990   3.078469   6.545707   4.888041
    19  H    6.186360   7.340335   3.559258   7.612247   5.736036
    20  H    5.618718   7.186108   4.036357   6.606790   5.277364
    21  H    4.735690   6.108517   2.751121   6.178025   4.021394
    22  C    3.368269   5.330257   3.937477   3.787016   3.634962
    23  H    4.451548   6.364447   4.530748   4.755188   4.583611
    24  H    3.307303   5.397329   4.780298   3.082648   3.727356
    25  H    3.177404   5.143117   3.507339   3.992523   2.821750
    26  C    4.149331   5.417172   4.369038   4.438614   5.433818
    27  H    4.233320   5.567591   5.217581   3.969508   5.696372
    28  H    5.053779   6.422661   4.840804   5.315888   6.060486
    29  H    4.401573   5.235370   4.297575   4.907005   5.892216
                   11         12         13         14         15
    11  H    0.000000
    12  H    3.936094   0.000000
    13  H    3.812040   1.766752   0.000000
    14  H    4.223005   1.758562   1.773189   0.000000
    15  H    3.402121   2.737872   3.792144   2.796882   0.000000
    16  H    3.444224   3.426800   3.707076   2.532248   1.758514
    17  H    2.327728   3.860427   4.324597   3.715631   1.770613
    18  C    2.201247   3.445050   2.797656   4.084244   4.470474
    19  H    2.636701   3.594726   3.383788   4.638598   4.690736
    20  H    2.492437   4.510464   3.664330   4.968421   5.332588
    21  H    3.106424   3.154969   2.119913   3.716452   4.771304
    22  C    3.477330   4.927128   3.515239   4.305612   5.438336
    23  H    3.240135   5.412938   4.129442   5.073105   5.829503
    24  H    4.468155   5.821397   4.332405   4.966257   6.256166
    25  H    3.836820   4.441374   2.829755   3.932160   5.501698
    26  C    2.778865   5.288438   4.599650   4.549634   4.410175
    27  H    3.860924   6.200863   5.373572   5.254995   5.319181
    28  H    2.425548   5.665553   5.008676   5.226328   4.844869
    29  H    2.832524   5.120790   4.775443   4.366860   3.715790
                   16         17         18         19         20
    16  H    0.000000
    17  H    1.789892   0.000000
    18  C    4.616840   4.121287   0.000000
    19  H    5.205755   4.499175   1.098658   0.000000
    20  H    5.280256   4.684841   1.095256   1.758238   0.000000
    21  H    4.821866   4.710572   1.092828   1.763586   1.771984
    22  C    4.470644   4.698186   3.129976   4.224446   2.896963
    23  H    5.042407   4.888150   2.904286   3.920578   2.319868
    24  H    5.070082   5.479768   4.217683   5.309025   3.907406
    25  H    4.714806   5.088471   2.879110   3.937227   2.831910
    26  C    3.211360   3.067708   4.068372   4.969636   4.011769
    27  H    3.915915   4.009342   5.011501   5.965865   4.843425
    28  H    3.959287   3.341370   3.812611   4.624066   3.542697
    29  H    2.491893   2.287633   4.482728   5.261321   4.626925
                   21         22         23         24         25
    21  H    0.000000
    22  C    3.053269   0.000000
    23  H    3.094913   1.090015   0.000000
    24  H    4.065241   1.100805   1.776122   0.000000
    25  H    2.434619   1.090355   1.797630   1.763372   0.000000
    26  C    4.516390   2.573831   2.742861   2.954354   3.485472
    27  H    5.364335   2.900337   3.136636   2.860626   3.902169
    28  H    4.457782   2.777204   2.499710   3.277355   3.721203
    29  H    4.978581   3.491967   3.731614   3.923938   4.268673
                   26         27         28         29
    26  C    0.000000
    27  H    1.100470   0.000000
    28  H    1.090771   1.774421   0.000000
    29  H    1.089181   1.767102   1.798570   0.000000
 Framework group  C1[X(C8H16Cl3FeO)]
 Deg. of freedom    81
                         Standard orientation:                         
 ---------------------------------------------------------------------
 Center     Atomic      Atomic             Coordinates (Angstroms)
 Number     Number       Type             X           Y           Z
 ---------------------------------------------------------------------
      1          8           0       -0.296901   -0.207357   -0.710299
      2          6           0       -1.105278   -1.168892   -0.601558
      3          6           0       -3.219270    0.028318    0.173179
      4          6           0       -2.408403    1.036997   -0.217230
      5          6           0       -2.423454    1.554881   -1.626770
      6         26           0        1.472289    0.098954    0.055272
      7         17           0        2.104646    1.982599   -0.839951
      8          6           0       -1.560937    1.833602    0.731983
      9         17           0        2.515088   -1.704280   -0.632290
     10         17           0        1.310432    0.149815    2.244238
     11          1           0       -3.870367   -0.409406   -0.582603
     12          1           0       -2.128670    2.717174    1.055636
     13          1           0       -1.266934    1.284697    1.627329
     14          1           0       -0.657503    2.205026    0.239602
     15          1           0       -2.707356    2.615304   -1.618441
     16          1           0       -1.422346    1.503022   -2.070048
     17          1           0       -3.135785    1.023138   -2.263830
     18          6           0       -3.502337   -0.397051    1.587625
     19          1           0       -4.417630    0.092749    1.947325
     20          1           0       -3.676409   -1.475839    1.661800
     21          1           0       -2.700838   -0.132850    2.281937
     22          6           0       -1.049510   -2.068066    0.593593
     23          1           0       -1.945297   -2.680667    0.695660
     24          1           0       -0.190900   -2.735813    0.424255
     25          1           0       -0.848823   -1.511516    1.509481
     26          6           0       -1.752491   -1.683899   -1.852391
     27          1           0       -1.026982   -2.386720   -2.289098
     28          1           0       -2.675592   -2.229345   -1.652004
     29          1           0       -1.915618   -0.886540   -2.576216
 ---------------------------------------------------------------------
 Rotational constants (GHZ):           0.5808346           0.3274556           0.3086214
   427 basis functions,  1056 primitive gaussians,   461 cartesian basis functions
    77 alpha electrons       72 beta electrons
       nuclear repulsion energy      1635.9894776950 Hartrees.
 NAtoms=   29 NActive=   29 NUniq=   29 SFac= 1.00D+00 NAtFMM=   60 NAOKFM=F Big=F
 Nuclear repulsion after empirical dispersion term =     1635.8879424359 Hartrees.
 Initial guess from the checkpoint file:  "checkpoint.chk"
 B after Tr=     0.000000    0.000000    0.000000
         Rot=    1.000000    0.000000    0.000000    0.000000 Ang=   0.00 deg.
 Initial guess <Sx>= 0.0000 <Sy>= 0.0000 <Sz>= 2.5000 <S**2>= 8.7617 S= 2.5020
 EnCoef did     2 forward-backward iterations
 SCF Done:  E(UB97D3) =  -3034.62993973     A.U. after   17 cycles
            NFock= 17  Conv=0.41D-08     -V/T= 2.0019
 <Sx>= 0.0000 <Sy>= 0.0000 <Sz>= 2.5000 <S**2>= 8.7598 S= 2.5016
 <L.S>= 0.000000000000E+00
 Annihilation of the first spin contaminant:
 S**2 before annihilation     8.7598,   after     8.7500
 1\1\GINC-HOLY7C04509\SP\UB97D3\Jul-CC-pVDZ\C8H16Cl3Fe1O1(6)\EKWAN\12-F
 eb-2020\0\\#t pop=none jul-cc-pvdz guess=read ub97d3 empiricaldispersi
 on=gd3bj\\theory_abbreviation b97d3_d3bj\\0,6\O,0,-0.296901,-0.207357,
 -0.710299\C,0,-1.105278,-1.168892,-0.601558\C,0,-3.21927,0.028318,0.17
 3179\C,0,-2.408403,1.036997,-0.21723\C,0,-2.423454,1.554881,-1.62677\F
 e,0,1.472289,0.098954,0.055272\Cl,0,2.104646,1.982599,-0.839951\C,0,-1
 .560937,1.833602,0.731983\Cl,0,2.515088,-1.70428,-0.63229\Cl,0,1.31043
 2,0.149815,2.244238\H,0,-3.870367,-0.409406,-0.582603\H,0,-2.12867,2.7
 17174,1.055636\H,0,-1.266934,1.284697,1.627329\H,0,-0.657503,2.205026,
 0.239602\H,0,-2.707356,2.615304,-1.618441\H,0,-1.422346,1.503022,-2.07
 0048\H,0,-3.135785,1.023138,-2.26383\C,0,-3.502337,-0.397051,1.587625\
 H,0,-4.41763,0.092749,1.947325\H,0,-3.676409,-1.475839,1.6618\H,0,-2.7
 00838,-0.13285,2.281937\C,0,-1.04951,-2.068066,0.593593\H,0,-1.945297,
 -2.680667,0.69566\H,0,-0.1909,-2.735813,0.424255\H,0,-0.848823,-1.5115
 16,1.509481\C,0,-1.752491,-1.683899,-1.852391\H,0,-1.026982,-2.38672,-
 2.289098\H,0,-2.675592,-2.229345,-1.652004\H,0,-1.915618,-0.88654,-2.5
 76216\\Version=ES64L-G16RevA.03\HF=-3034.6299397\S2=8.759843\S2-1=0.\S
 2A=8.750031\RMSD=4.054e-09\PG=C01 [X(C8H16Cl3Fe1O1)]\\@


 EDUCATION IS NOT TRAINING BUT RATHER THE PROCESS THAT EQUIPS YOU TO
 ENTERTAIN YOURSELF, A FRIEND, OR AN IDEA.  -- WALLACE STERLING
 Job cpu time:       0 days  0 hours 51 minutes 23.9 seconds.
 Elapsed time:       0 days  0 hours 12 minutes 53.1 seconds.
 File lengths (MBytes):  RWF=    174 Int=      0 D2E=      0 Chk=     13 Scr=      1
 Normal termination of Gaussian 16 at Wed Feb 12 00:37:51 2020.
