 Entering Gaussian System, Link 0=g16
 Input=simple-grid-225-260-b3lyp_d3bj-631gd-gas-singlepoint-DFT-juldz2-gas.gjf
 Output=simple-grid-225-260-b3lyp_d3bj-631gd-gas-singlepoint-DFT-juldz2-gas.out
 Initial command:
 /n/sw/g16_nehalem/g16/l1.exe "/scratch/Gau-104404.inp" -scrdir="/scratch/"
 Entering Link 1 = /n/sw/g16_nehalem/g16/l1.exe PID=    104409.
  
 Copyright (c) 1988,1990,1992,1993,1995,1998,2003,2009,2016,
            Gaussian, Inc.  All Rights Reserved.
  
 This is part of the Gaussian(R) 16 program.  It is based on
 the Gaussian(R) 09 system (copyright 2009, Gaussian, Inc.),
 the Gaussian(R) 03 system (copyright 2003, Gaussian, Inc.),
 the Gaussian(R) 98 system (copyright 1998, Gaussian, Inc.),
 the Gaussian(R) 94 system (copyright 1995, Gaussian, Inc.),
 the Gaussian 92(TM) system (copyright 1992, Gaussian, Inc.),
 the Gaussian 90(TM) system (copyright 1990, Gaussian, Inc.),
 the Gaussian 88(TM) system (copyright 1988, Gaussian, Inc.),
 the Gaussian 86(TM) system (copyright 1986, Carnegie Mellon
 University), and the Gaussian 82(TM) system (copyright 1983,
 Carnegie Mellon University). Gaussian is a federally registered
 trademark of Gaussian, Inc.
  
 This software contains proprietary and confidential information,
 including trade secrets, belonging to Gaussian, Inc.
  
 This software is provided under written license and may be
 used, copied, transmitted, or stored only in accord with that
 written license.
  
 The following legend is applicable only to US Government
 contracts under FAR:
  
                    RESTRICTED RIGHTS LEGEND
  
 Use, reproduction and disclosure by the US Government is
 subject to restrictions as set forth in subparagraphs (a)
 and (c) of the Commercial Computer Software - Restricted
 Rights clause in FAR 52.227-19.
  
 Gaussian, Inc.
 340 Quinnipiac St., Bldg. 40, Wallingford CT 06492
  
  
 ---------------------------------------------------------------
 Warning -- This program may not be used in any manner that
 competes with the business of Gaussian, Inc. or will provide
 assistance to any competitor of Gaussian, Inc.  The licensee
 of this program is prohibited from giving any competitor of
 Gaussian, Inc. access to this program.  By using this program,
 the user acknowledges that Gaussian, Inc. is engaged in the
 business of creating and licensing software in the field of
 computational chemistry and represents and warrants to the
 licensee that it is not a competitor of Gaussian, Inc. and that
 it will not use this program in any manner prohibited above.
 ---------------------------------------------------------------
  

 Cite this work as:
 Gaussian 16, Revision A.03,
 M. J. Frisch, G. W. Trucks, H. B. Schlegel, G. E. Scuseria, 
 M. A. Robb, J. R. Cheeseman, G. Scalmani, V. Barone, 
 G. A. Petersson, H. Nakatsuji, X. Li, M. Caricato, A. V. Marenich, 
 J. Bloino, B. G. Janesko, R. Gomperts, B. Mennucci, H. P. Hratchian, 
 J. V. Ortiz, A. F. Izmaylov, J. L. Sonnenberg, D. Williams-Young, 
 F. Ding, F. Lipparini, F. Egidi, J. Goings, B. Peng, A. Petrone, 
 T. Henderson, D. Ranasinghe, V. G. Zakrzewski, J. Gao, N. Rega, 
 G. Zheng, W. Liang, M. Hada, M. Ehara, K. Toyota, R. Fukuda, 
 J. Hasegawa, M. Ishida, T. Nakajima, Y. Honda, O. Kitao, H. Nakai, 
 T. Vreven, K. Throssell, J. A. Montgomery, Jr., J. E. Peralta, 
 F. Ogliaro, M. J. Bearpark, J. J. Heyd, E. N. Brothers, K. N. Kudin, 
 V. N. Staroverov, T. A. Keith, R. Kobayashi, J. Normand, 
 K. Raghavachari, A. P. Rendell, J. C. Burant, S. S. Iyengar, 
 J. Tomasi, M. Cossi, J. M. Millam, M. Klene, C. Adamo, R. Cammi, 
 J. W. Ochterski, R. L. Martin, K. Morokuma, O. Farkas, 
 J. B. Foresman, and D. J. Fox, Gaussian, Inc., Wallingford CT, 2016.
 
 ******************************************
 Gaussian 16:  ES64L-G16RevA.03 25-Dec-2016
                11-Feb-2020 
 ******************************************
 %chk=checkpoint.chk
 %mem=3GB
 %nprocshared=4
 Will use up to    4 processors via shared memory.
 --------------------------------
 #t pop=none jul-cc-pvdz upbe1pbe
 --------------------------------
 ------------------------
 theory_abbreviation pbe0
 ------------------------
 Symbolic Z-matrix:
 Charge =  0 Multiplicity = 6
 O                    -0.29285  -0.2084   -0.78052 
 C                    -1.16227  -1.13473  -0.62999 
 C                    -2.9022   -0.20119   0.44873 
 C                    -2.51282   0.97375  -0.12152 
 C                    -2.96549   1.38363  -1.48898 
 Fe                    1.43634   0.12256   0.00298 
 Cl                    2.04607   2.04625  -0.83638 
 C                    -1.61327   1.95629   0.55336 
 Cl                    2.61229  -1.61418  -0.63597 
 Cl                    1.17145   0.17571   2.19565 
 H                    -3.65186  -0.78137  -0.08611 
 H                    -2.19352   2.85859   0.79244 
 H                    -1.16403   1.58621   1.47338 
 H                    -0.81316   2.272    -0.12623 
 H                    -3.41478   2.38333  -1.4361 
 H                    -2.10236   1.46917  -2.16216 
 H                    -3.70144   0.70082  -1.91911 
 C                    -2.78266  -0.5063    1.92358 
 H                    -3.56622   0.03316   2.47113 
 H                    -2.9275   -1.57038   2.12449 
 H                    -1.82103  -0.20871   2.34775 
 C                    -0.91092  -2.21031   0.39485 
 H                    -1.7791   -2.85318   0.54656 
 H                    -0.0965   -2.81907  -0.02394 
 H                    -0.55821  -1.80781   1.34351 
 C                    -1.86865  -1.58623  -1.88647 
 H                    -1.15522  -2.24733  -2.39751 
 H                    -2.774    -2.1597   -1.68058 
 H                    -2.08037  -0.75684  -2.5583 
 
                    Distance matrix (angstroms):
                    1          2          3          4          5
     1  O    0.000000
     2  C    1.279313   0.000000
     3  C    2.884407   2.250000   0.000000
     4  C    2.600002   2.555037   1.362821   0.000000
     5  C    3.190528   3.214279   2.504067   1.497612   0.000000
     6  Fe   1.927046   2.955371   4.373382   4.041774   4.815848
     7  Cl   3.249166   4.522682   5.584608   4.737592   5.097129
     8  C    2.865060   3.340373   2.515351   1.493332   2.515468
     9  Cl   3.230628   3.804890   5.795058   5.764442   6.389533
    10  Cl   3.339053   3.892012   4.448417   4.424931   5.670082
    11  H    3.477559   2.572687   1.088410   2.092624   2.669519
    12  H    3.936129   4.362724   3.159523   2.118938   2.824238
    13  H    3.009915   3.439137   2.695537   2.176707   3.473018
    14  H    2.617476   3.461425   3.288057   2.138767   2.697929
    15  H    4.110145   4.254452   3.239608   2.128043   1.097297
    16  H    2.827981   3.164108   3.201029   2.139656   1.097951
    17  H    3.706957   3.387983   2.656892   2.172241   1.092183
    18  C    3.687820   3.088901   1.510817   2.538858   3.905228
    19  H    4.620227   4.093887   2.141483   2.952322   4.226948
    20  H    4.151557   3.300453   2.164136   3.418934   4.667410
    21  H    3.481571   3.187223   2.185235   2.823840   4.308802
    22  C    2.402323   1.506767   2.829253   3.601523   4.548236
    23  H    3.311334   2.172053   2.881659   3.953483   4.847828
    24  H    2.725172   2.083305   3.866353   4.498178   5.295291
    25  H    2.672080   2.170856   2.979287   3.701877   4.899310
    26  C    2.367424   1.510484   2.905120   3.175448   3.190782
    27  H    2.741462   2.088555   3.916599   4.171161   4.157693
    28  H    3.282349   2.179904   2.895890   3.509614   3.553668
    29  H    2.580029   2.168893   3.166447   3.019905   2.551171
                    6          7          8          9         10
     6  Fe   0.000000
     7  Cl   2.185601   0.000000
     8  C    3.600778   3.915382   0.000000
     9  Cl   2.192573   3.709383   5.658451   0.000000
    10  Cl   2.209251   3.668382   3.690830   3.646613   0.000000
    11  H    5.168635   6.405049   3.472677   6.343139   5.420949
    12  H    4.613565   4.613790   1.099088   6.718764   4.526567
    13  H    3.326602   3.981376   1.088675   5.380744   2.822347
    14  H    3.114011   2.954740   1.096213   5.205379   3.704622
    15  H    5.542154   5.504020   2.717678   7.276394   6.252738
    16  H    4.361604   4.393198   2.801881   5.836454   5.601907
    17  H    5.515942   6.001363   3.471278   6.846079   6.399378
    18  C    4.678048   6.119596   3.051116   6.073228   4.021707
    19  H    5.579013   6.818350   3.345187   7.109271   4.747812
    20  H    5.139065   6.825183   4.078361   6.189610   4.455931
    21  H    4.027173   5.493440   2.819609   5.525591   3.020899
    22  C    3.332492   5.327100   4.228352   3.718996   3.643114
    23  H    4.414699   6.367793   4.812325   4.713571   4.538658
    24  H    3.317152   5.377910   5.043598   3.027180   3.937384
    25  H    3.082465   5.136918   3.988222   3.742707   2.766270
    26  C    4.172883   5.442663   4.308988   4.652239   5.386125
    27  H    4.253814   5.578549   5.156341   4.206898   5.690488
    28  H    5.076424   6.452577   4.824846   5.513700   6.003824
    29  H    4.438558   5.277295   4.154714   5.143100   5.834728
                   11         12         13         14         15
    11  H    0.000000
    12  H    4.018437   0.000000
    13  H    3.771824   1.772701   0.000000
    14  H    4.169272   1.758812   1.775434   0.000000
    15  H    3.448765   2.585300   3.763825   2.914893   0.000000
    16  H    3.431595   3.266264   3.756502   2.539999   1.756507
    17  H    2.357804   3.779197   4.327974   3.745023   1.773787
    18  C    2.206809   3.598473   2.683507   3.974868   4.476272
    19  H    2.685191   3.561645   3.029515   4.397498   4.562093
    20  H    2.456410   4.682820   3.673936   4.929507   5.342943
    21  H    3.098951   3.459192   2.101875   3.645580   4.855535
    22  C    3.128246   5.243745   3.954851   4.513557   5.542854
    23  H    2.863542   5.732051   4.576616   5.258623   5.833299
    24  H    4.098374   6.107351   4.773682   5.142280   6.330098
    25  H    3.559216   4.975255   3.450108   4.343960   5.783760
    26  C    2.658749   5.199852   4.674335   4.370173   4.283774
    27  H    3.704709   6.109360   5.447925   5.069527   5.241467
    28  H    2.283155   5.624590   5.154735   5.089290   4.594506
    29  H    2.929491   4.930676   4.752260   4.085909   3.591742
                   16         17         18         19         20
    16  H    0.000000
    17  H    1.790667   0.000000
    18  C    4.588961   4.131294   0.000000
    19  H    5.066794   4.442781   1.097634   0.000000
    20  H    5.319310   4.701915   1.092525   1.760531   0.000000
    21  H    4.820132   4.750712   1.092340   1.766188   1.768695
    22  C    4.636417   4.649306   2.957039   4.049042   2.732722
    23  H    5.111194   4.733474   2.900195   3.902398   2.335432
    24  H    5.194651   5.383014   4.044403   5.138053   3.766904
    25  H    5.041098   5.178587   2.641700   3.702544   2.505962
    26  C    3.076693   2.930995   4.064253   4.949027   4.148399
    27  H    3.842503   3.924752   4.934733   5.892136   4.903848
    28  H    3.721787   3.016553   3.965325   4.761616   3.853494
    29  H    2.261083   2.271818   4.543484   5.303493   4.827835
                   21         22         23         24         25
    21  H    0.000000
    22  C    2.940837   0.000000
    23  H    3.199879   1.090884   0.000000
    24  H    3.925924   1.099661   1.777019   0.000000
    25  H    2.271636   1.089204   1.794012   1.762310   0.000000
    26  C    4.452911   2.551694   2.744600   2.851217   3.492721
    27  H    5.207374   2.803268   3.069827   2.661125   3.813764
    28  H    4.576238   2.789449   2.535921   3.216867   3.765455
    29  H    4.943380   3.493035   3.758401   3.822504   4.318058
                   26         27         28         29
    26  C    0.000000
    27  H    1.098732   0.000000
    28  H    1.091295   1.772604   0.000000
    29  H    1.088149   1.761633   1.794308   0.000000
 Framework group  C1[X(C8H16Cl3FeO)]
 Deg. of freedom    81
                         Standard orientation:                         
 ---------------------------------------------------------------------
 Center     Atomic      Atomic             Coordinates (Angstroms)
 Number     Number       Type             X           Y           Z
 ---------------------------------------------------------------------
      1          8           0       -0.292850   -0.208395   -0.780516
      2          6           0       -1.162269   -1.134729   -0.629992
      3          6           0       -2.902200   -0.201188    0.448730
      4          6           0       -2.512822    0.973749   -0.121523
      5          6           0       -2.965493    1.383627   -1.488977
      6         26           0        1.436344    0.122561    0.002979
      7         17           0        2.046071    2.046247   -0.836377
      8          6           0       -1.613268    1.956287    0.553357
      9         17           0        2.612287   -1.614184   -0.635967
     10         17           0        1.171452    0.175714    2.195648
     11          1           0       -3.651855   -0.781365   -0.086105
     12          1           0       -2.193518    2.858586    0.792442
     13          1           0       -1.164030    1.586207    1.473378
     14          1           0       -0.813162    2.272001   -0.126229
     15          1           0       -3.414784    2.383328   -1.436103
     16          1           0       -2.102358    1.469166   -2.162162
     17          1           0       -3.701437    0.700815   -1.919114
     18          6           0       -2.782655   -0.506299    1.923581
     19          1           0       -3.566217    0.033163    2.471132
     20          1           0       -2.927501   -1.570379    2.124487
     21          1           0       -1.821025   -0.208708    2.347745
     22          6           0       -0.910920   -2.210311    0.394846
     23          1           0       -1.779100   -2.853175    0.546561
     24          1           0       -0.096496   -2.819067   -0.023944
     25          1           0       -0.558210   -1.807811    1.343505
     26          6           0       -1.868649   -1.586225   -1.886472
     27          1           0       -1.155216   -2.247333   -2.397511
     28          1           0       -2.773999   -2.159701   -1.680582
     29          1           0       -2.080373   -0.756836   -2.558302
 ---------------------------------------------------------------------
 Rotational constants (GHZ):           0.5769189           0.3369157           0.3168238
   427 basis functions,  1056 primitive gaussians,   461 cartesian basis functions
    77 alpha electrons       72 beta electrons
       nuclear repulsion energy      1643.8725986423 Hartrees.
 NAtoms=   29 NActive=   29 NUniq=   29 SFac= 1.00D+00 NAtFMM=   60 NAOKFM=F Big=F
 ExpMin= 1.40D-02 ExpMax= 4.32D+06 ExpMxC= 4.91D+03 IAcc=3 IRadAn=         5 AccDes= 0.00D+00
 Harris functional with IExCor= 1009 and IRadAn=       5 diagonalized for initial guess.
 HarFok:  IExCor= 1009 AccDes= 0.00D+00 IRadAn=         5 IDoV= 1 UseB2=F ITyADJ=14
 ICtDFT=  3500011 ScaDFX=  1.000000  1.000000  1.000000  1.000000
 FoFCou: FMM=F IPFlag=           0 FMFlag=      100000 FMFlg1=           0
         NFxFlg=           0 DoJE=T BraDBF=F KetDBF=T FulRan=T
         wScrn=  0.000000 ICntrl=       500 IOpCl=  0 I1Cent=   200000004 NGrid=           0
         NMat0=    1 NMatS0=      1 NMatT0=    0 NMatD0=    1 NMtDS0=    0 NMtDT0=    0
 Petite list used in FoFCou.
 Initial guess <Sx>= 0.0000 <Sy>= 0.0000 <Sz>= 2.5000 <S**2>= 8.7500 S= 2.5000
 EnCoef did   100 forward-backward iterations
 SCF Done:  E(UPBE1PBE) =  -3033.11938904     A.U. after   20 cycles
            NFock= 20  Conv=0.70D-08     -V/T= 2.0021
 <Sx>= 0.0000 <Sy>= 0.0000 <Sz>= 2.5000 <S**2>= 8.7625 S= 2.5021
 <L.S>= 0.000000000000E+00
 Annihilation of the first spin contaminant:
 S**2 before annihilation     8.7625,   after     8.7500
 1\1\GINC-HOLY7C16202\SP\UPBE1PBE\Jul-CC-pVDZ\C8H16Cl3Fe1O1(6)\EKWAN\11
 -Feb-2020\0\\#t pop=none jul-cc-pvdz upbe1pbe\\theory_abbreviation pbe
 0\\0,6\O,0,-0.29285,-0.208395,-0.780516\C,0,-1.162269,-1.134729,-0.629
 992\C,0,-2.9022,-0.201188,0.44873\C,0,-2.512822,0.973749,-0.121523\C,0
 ,-2.965493,1.383627,-1.488977\Fe,0,1.436344,0.122561,0.002979\Cl,0,2.0
 46071,2.046247,-0.836377\C,0,-1.613268,1.956287,0.553357\Cl,0,2.612287
 ,-1.614184,-0.635967\Cl,0,1.171452,0.175714,2.195648\H,0,-3.651855,-0.
 781365,-0.086105\H,0,-2.193518,2.858586,0.792442\H,0,-1.16403,1.586207
 ,1.473378\H,0,-0.813162,2.272001,-0.126229\H,0,-3.414784,2.383328,-1.4
 36103\H,0,-2.102358,1.469166,-2.162162\H,0,-3.701437,0.700815,-1.91911
 4\C,0,-2.782655,-0.506299,1.923581\H,0,-3.566217,0.033163,2.471132\H,0
 ,-2.927501,-1.570379,2.124487\H,0,-1.821025,-0.208708,2.347745\C,0,-0.
 91092,-2.210311,0.394846\H,0,-1.7791,-2.853175,0.546561\H,0,-0.096496,
 -2.819067,-0.023944\H,0,-0.55821,-1.807811,1.343505\C,0,-1.868649,-1.5
 86225,-1.886472\H,0,-1.155216,-2.247333,-2.397511\H,0,-2.773999,-2.159
 701,-1.680582\H,0,-2.080373,-0.756836,-2.558302\\Version=ES64L-G16RevA
 .03\HF=-3033.119389\S2=8.762496\S2-1=0.\S2A=8.750048\RMSD=7.010e-09\PG
 =C01 [X(C8H16Cl3Fe1O1)]\\@


 HE THAT IS UNAWARE OF HIS IGNORANCE WILL BE MISLED BY HIS KNOWLEDGE.

                                        -- WHATLEY
 Job cpu time:       0 days  1 hours 20 minutes 41.9 seconds.
 Elapsed time:       0 days  0 hours 20 minutes 25.0 seconds.
 File lengths (MBytes):  RWF=    173 Int=      0 D2E=      0 Chk=     13 Scr=      1
 Normal termination of Gaussian 16 at Tue Feb 11 23:38:19 2020.
 Initial command:
 /n/sw/g16_nehalem/g16/l1.exe "/scratch/Gau-104404.inp" -scrdir="/scratch/"
 Entering Link 1 = /n/sw/g16_nehalem/g16/l1.exe PID=    106124.
  
 Copyright (c) 1988,1990,1992,1993,1995,1998,2003,2009,2016,
            Gaussian, Inc.  All Rights Reserved.
  
 This is part of the Gaussian(R) 16 program.  It is based on
 the Gaussian(R) 09 system (copyright 2009, Gaussian, Inc.),
 the Gaussian(R) 03 system (copyright 2003, Gaussian, Inc.),
 the Gaussian(R) 98 system (copyright 1998, Gaussian, Inc.),
 the Gaussian(R) 94 system (copyright 1995, Gaussian, Inc.),
 the Gaussian 92(TM) system (copyright 1992, Gaussian, Inc.),
 the Gaussian 90(TM) system (copyright 1990, Gaussian, Inc.),
 the Gaussian 88(TM) system (copyright 1988, Gaussian, Inc.),
 the Gaussian 86(TM) system (copyright 1986, Carnegie Mellon
 University), and the Gaussian 82(TM) system (copyright 1983,
 Carnegie Mellon University). Gaussian is a federally registered
 trademark of Gaussian, Inc.
  
 This software contains proprietary and confidential information,
 including trade secrets, belonging to Gaussian, Inc.
  
 This software is provided under written license and may be
 used, copied, transmitted, or stored only in accord with that
 written license.
  
 The following legend is applicable only to US Government
 contracts under FAR:
  
                    RESTRICTED RIGHTS LEGEND
  
 Use, reproduction and disclosure by the US Government is
 subject to restrictions as set forth in subparagraphs (a)
 and (c) of the Commercial Computer Software - Restricted
 Rights clause in FAR 52.227-19.
  
 Gaussian, Inc.
 340 Quinnipiac St., Bldg. 40, Wallingford CT 06492
  
  
 ---------------------------------------------------------------
 Warning -- This program may not be used in any manner that
 competes with the business of Gaussian, Inc. or will provide
 assistance to any competitor of Gaussian, Inc.  The licensee
 of this program is prohibited from giving any competitor of
 Gaussian, Inc. access to this program.  By using this program,
 the user acknowledges that Gaussian, Inc. is engaged in the
 business of creating and licensing software in the field of
 computational chemistry and represents and warrants to the
 licensee that it is not a competitor of Gaussian, Inc. and that
 it will not use this program in any manner prohibited above.
 ---------------------------------------------------------------
  

 Cite this work as:
 Gaussian 16, Revision A.03,
 M. J. Frisch, G. W. Trucks, H. B. Schlegel, G. E. Scuseria, 
 M. A. Robb, J. R. Cheeseman, G. Scalmani, V. Barone, 
 G. A. Petersson, H. Nakatsuji, X. Li, M. Caricato, A. V. Marenich, 
 J. Bloino, B. G. Janesko, R. Gomperts, B. Mennucci, H. P. Hratchian, 
 J. V. Ortiz, A. F. Izmaylov, J. L. Sonnenberg, D. Williams-Young, 
 F. Ding, F. Lipparini, F. Egidi, J. Goings, B. Peng, A. Petrone, 
 T. Henderson, D. Ranasinghe, V. G. Zakrzewski, J. Gao, N. Rega, 
 G. Zheng, W. Liang, M. Hada, M. Ehara, K. Toyota, R. Fukuda, 
 J. Hasegawa, M. Ishida, T. Nakajima, Y. Honda, O. Kitao, H. Nakai, 
 T. Vreven, K. Throssell, J. A. Montgomery, Jr., J. E. Peralta, 
 F. Ogliaro, M. J. Bearpark, J. J. Heyd, E. N. Brothers, K. N. Kudin, 
 V. N. Staroverov, T. A. Keith, R. Kobayashi, J. Normand, 
 K. Raghavachari, A. P. Rendell, J. C. Burant, S. S. Iyengar, 
 J. Tomasi, M. Cossi, J. M. Millam, M. Klene, C. Adamo, R. Cammi, 
 J. W. Ochterski, R. L. Martin, K. Morokuma, O. Farkas, 
 J. B. Foresman, and D. J. Fox, Gaussian, Inc., Wallingford CT, 2016.
 
 ******************************************
 Gaussian 16:  ES64L-G16RevA.03 25-Dec-2016
                11-Feb-2020 
 ******************************************
 %chk=checkpoint.chk
 %mem=3GB
 %nprocshared=4
 Will use up to    4 processors via shared memory.
 ---------------------------------------------------------------------
 #t pop=none jul-cc-pvdz guess=read upbe1pbe empiricaldispersion=gd3bj
 ---------------------------------------------------------------------
 -----------------------------
 theory_abbreviation pbe0_d3bj
 -----------------------------
 Symbolic Z-matrix:
 Charge =  0 Multiplicity = 6
 O                    -0.29285  -0.2084   -0.78052 
 C                    -1.16227  -1.13473  -0.62999 
 C                    -2.9022   -0.20119   0.44873 
 C                    -2.51282   0.97375  -0.12152 
 C                    -2.96549   1.38363  -1.48898 
 Fe                    1.43634   0.12256   0.00298 
 Cl                    2.04607   2.04625  -0.83638 
 C                    -1.61327   1.95629   0.55336 
 Cl                    2.61229  -1.61418  -0.63597 
 Cl                    1.17145   0.17571   2.19565 
 H                    -3.65186  -0.78137  -0.08611 
 H                    -2.19352   2.85859   0.79244 
 H                    -1.16403   1.58621   1.47338 
 H                    -0.81316   2.272    -0.12623 
 H                    -3.41478   2.38333  -1.4361 
 H                    -2.10236   1.46917  -2.16216 
 H                    -3.70144   0.70082  -1.91911 
 C                    -2.78266  -0.5063    1.92358 
 H                    -3.56622   0.03316   2.47113 
 H                    -2.9275   -1.57038   2.12449 
 H                    -1.82103  -0.20871   2.34775 
 C                    -0.91092  -2.21031   0.39485 
 H                    -1.7791   -2.85318   0.54656 
 H                    -0.0965   -2.81907  -0.02394 
 H                    -0.55821  -1.80781   1.34351 
 C                    -1.86865  -1.58623  -1.88647 
 H                    -1.15522  -2.24733  -2.39751 
 H                    -2.774    -2.1597   -1.68058 
 H                    -2.08037  -0.75684  -2.5583 
 
                    Distance matrix (angstroms):
                    1          2          3          4          5
     1  O    0.000000
     2  C    1.279313   0.000000
     3  C    2.884407   2.250000   0.000000
     4  C    2.600002   2.555037   1.362821   0.000000
     5  C    3.190528   3.214279   2.504067   1.497612   0.000000
     6  Fe   1.927046   2.955371   4.373382   4.041774   4.815848
     7  Cl   3.249166   4.522682   5.584608   4.737592   5.097129
     8  C    2.865060   3.340373   2.515351   1.493332   2.515468
     9  Cl   3.230628   3.804890   5.795058   5.764442   6.389533
    10  Cl   3.339053   3.892012   4.448417   4.424931   5.670082
    11  H    3.477559   2.572687   1.088410   2.092624   2.669519
    12  H    3.936129   4.362724   3.159523   2.118938   2.824238
    13  H    3.009915   3.439137   2.695537   2.176707   3.473018
    14  H    2.617476   3.461425   3.288057   2.138767   2.697929
    15  H    4.110145   4.254452   3.239608   2.128043   1.097297
    16  H    2.827981   3.164108   3.201029   2.139656   1.097951
    17  H    3.706957   3.387983   2.656892   2.172241   1.092183
    18  C    3.687820   3.088901   1.510817   2.538858   3.905228
    19  H    4.620227   4.093887   2.141483   2.952322   4.226948
    20  H    4.151557   3.300453   2.164136   3.418934   4.667410
    21  H    3.481571   3.187223   2.185235   2.823840   4.308802
    22  C    2.402323   1.506767   2.829253   3.601523   4.548236
    23  H    3.311334   2.172053   2.881659   3.953483   4.847828
    24  H    2.725172   2.083305   3.866353   4.498178   5.295291
    25  H    2.672080   2.170856   2.979287   3.701877   4.899310
    26  C    2.367424   1.510484   2.905120   3.175448   3.190782
    27  H    2.741462   2.088555   3.916599   4.171161   4.157693
    28  H    3.282349   2.179904   2.895890   3.509614   3.553668
    29  H    2.580029   2.168893   3.166447   3.019905   2.551171
                    6          7          8          9         10
     6  Fe   0.000000
     7  Cl   2.185601   0.000000
     8  C    3.600778   3.915382   0.000000
     9  Cl   2.192573   3.709383   5.658451   0.000000
    10  Cl   2.209251   3.668382   3.690830   3.646613   0.000000
    11  H    5.168635   6.405049   3.472677   6.343139   5.420949
    12  H    4.613565   4.613790   1.099088   6.718764   4.526567
    13  H    3.326602   3.981376   1.088675   5.380744   2.822347
    14  H    3.114011   2.954740   1.096213   5.205379   3.704622
    15  H    5.542154   5.504020   2.717678   7.276394   6.252738
    16  H    4.361604   4.393198   2.801881   5.836454   5.601907
    17  H    5.515942   6.001363   3.471278   6.846079   6.399378
    18  C    4.678048   6.119596   3.051116   6.073228   4.021707
    19  H    5.579013   6.818350   3.345187   7.109271   4.747812
    20  H    5.139065   6.825183   4.078361   6.189610   4.455931
    21  H    4.027173   5.493440   2.819609   5.525591   3.020899
    22  C    3.332492   5.327100   4.228352   3.718996   3.643114
    23  H    4.414699   6.367793   4.812325   4.713571   4.538658
    24  H    3.317152   5.377910   5.043598   3.027180   3.937384
    25  H    3.082465   5.136918   3.988222   3.742707   2.766270
    26  C    4.172883   5.442663   4.308988   4.652239   5.386125
    27  H    4.253814   5.578549   5.156341   4.206898   5.690488
    28  H    5.076424   6.452577   4.824846   5.513700   6.003824
    29  H    4.438558   5.277295   4.154714   5.143100   5.834728
                   11         12         13         14         15
    11  H    0.000000
    12  H    4.018437   0.000000
    13  H    3.771824   1.772701   0.000000
    14  H    4.169272   1.758812   1.775434   0.000000
    15  H    3.448765   2.585300   3.763825   2.914893   0.000000
    16  H    3.431595   3.266264   3.756502   2.539999   1.756507
    17  H    2.357804   3.779197   4.327974   3.745023   1.773787
    18  C    2.206809   3.598473   2.683507   3.974868   4.476272
    19  H    2.685191   3.561645   3.029515   4.397498   4.562093
    20  H    2.456410   4.682820   3.673936   4.929507   5.342943
    21  H    3.098951   3.459192   2.101875   3.645580   4.855535
    22  C    3.128246   5.243745   3.954851   4.513557   5.542854
    23  H    2.863542   5.732051   4.576616   5.258623   5.833299
    24  H    4.098374   6.107351   4.773682   5.142280   6.330098
    25  H    3.559216   4.975255   3.450108   4.343960   5.783760
    26  C    2.658749   5.199852   4.674335   4.370173   4.283774
    27  H    3.704709   6.109360   5.447925   5.069527   5.241467
    28  H    2.283155   5.624590   5.154735   5.089290   4.594506
    29  H    2.929491   4.930676   4.752260   4.085909   3.591742
                   16         17         18         19         20
    16  H    0.000000
    17  H    1.790667   0.000000
    18  C    4.588961   4.131294   0.000000
    19  H    5.066794   4.442781   1.097634   0.000000
    20  H    5.319310   4.701915   1.092525   1.760531   0.000000
    21  H    4.820132   4.750712   1.092340   1.766188   1.768695
    22  C    4.636417   4.649306   2.957039   4.049042   2.732722
    23  H    5.111194   4.733474   2.900195   3.902398   2.335432
    24  H    5.194651   5.383014   4.044403   5.138053   3.766904
    25  H    5.041098   5.178587   2.641700   3.702544   2.505962
    26  C    3.076693   2.930995   4.064253   4.949027   4.148399
    27  H    3.842503   3.924752   4.934733   5.892136   4.903848
    28  H    3.721787   3.016553   3.965325   4.761616   3.853494
    29  H    2.261083   2.271818   4.543484   5.303493   4.827835
                   21         22         23         24         25
    21  H    0.000000
    22  C    2.940837   0.000000
    23  H    3.199879   1.090884   0.000000
    24  H    3.925924   1.099661   1.777019   0.000000
    25  H    2.271636   1.089204   1.794012   1.762310   0.000000
    26  C    4.452911   2.551694   2.744600   2.851217   3.492721
    27  H    5.207374   2.803268   3.069827   2.661125   3.813764
    28  H    4.576238   2.789449   2.535921   3.216867   3.765455
    29  H    4.943380   3.493035   3.758401   3.822504   4.318058
                   26         27         28         29
    26  C    0.000000
    27  H    1.098732   0.000000
    28  H    1.091295   1.772604   0.000000
    29  H    1.088149   1.761633   1.794308   0.000000
 Framework group  C1[X(C8H16Cl3FeO)]
 Deg. of freedom    81
                         Standard orientation:                         
 ---------------------------------------------------------------------
 Center     Atomic      Atomic             Coordinates (Angstroms)
 Number     Number       Type             X           Y           Z
 ---------------------------------------------------------------------
      1          8           0       -0.292850   -0.208395   -0.780516
      2          6           0       -1.162269   -1.134729   -0.629992
      3          6           0       -2.902200   -0.201188    0.448730
      4          6           0       -2.512822    0.973749   -0.121523
      5          6           0       -2.965493    1.383627   -1.488977
      6         26           0        1.436344    0.122561    0.002979
      7         17           0        2.046071    2.046247   -0.836377
      8          6           0       -1.613268    1.956287    0.553357
      9         17           0        2.612287   -1.614184   -0.635967
     10         17           0        1.171452    0.175714    2.195648
     11          1           0       -3.651855   -0.781365   -0.086105
     12          1           0       -2.193518    2.858586    0.792442
     13          1           0       -1.164030    1.586207    1.473378
     14          1           0       -0.813162    2.272001   -0.126229
     15          1           0       -3.414784    2.383328   -1.436103
     16          1           0       -2.102358    1.469166   -2.162162
     17          1           0       -3.701437    0.700815   -1.919114
     18          6           0       -2.782655   -0.506299    1.923581
     19          1           0       -3.566217    0.033163    2.471132
     20          1           0       -2.927501   -1.570379    2.124487
     21          1           0       -1.821025   -0.208708    2.347745
     22          6           0       -0.910920   -2.210311    0.394846
     23          1           0       -1.779100   -2.853175    0.546561
     24          1           0       -0.096496   -2.819067   -0.023944
     25          1           0       -0.558210   -1.807811    1.343505
     26          6           0       -1.868649   -1.586225   -1.886472
     27          1           0       -1.155216   -2.247333   -2.397511
     28          1           0       -2.773999   -2.159701   -1.680582
     29          1           0       -2.080373   -0.756836   -2.558302
 ---------------------------------------------------------------------
 Rotational constants (GHZ):           0.5769189           0.3369157           0.3168238
   427 basis functions,  1056 primitive gaussians,   461 cartesian basis functions
    77 alpha electrons       72 beta electrons
       nuclear repulsion energy      1643.8725986423 Hartrees.
 NAtoms=   29 NActive=   29 NUniq=   29 SFac= 1.00D+00 NAtFMM=   60 NAOKFM=F Big=F
 Nuclear repulsion after empirical dispersion term =     1643.8348725863 Hartrees.
 Initial guess from the checkpoint file:  "checkpoint.chk"
 B after Tr=     0.000000    0.000000    0.000000
         Rot=    1.000000    0.000000    0.000000    0.000000 Ang=   0.00 deg.
 Initial guess <Sx>= 0.0000 <Sy>= 0.0000 <Sz>= 2.5000 <S**2>= 8.7625 S= 2.5021
 SCF Done:  E(UPBE1PBE) =  -3033.15711510     A.U. after    1 cycles
            NFock=  1  Conv=0.31D-08     -V/T= 2.0021
 <Sx>= 0.0000 <Sy>= 0.0000 <Sz>= 2.5000 <S**2>= 8.7625 S= 2.5021
 <L.S>= 0.000000000000E+00
 Annihilation of the first spin contaminant:
 S**2 before annihilation     8.7625,   after     8.7500
 1\1\GINC-HOLY7C16202\SP\UPBE1PBE\Jul-CC-pVDZ\C8H16Cl3Fe1O1(6)\EKWAN\11
 -Feb-2020\0\\#t pop=none jul-cc-pvdz guess=read upbe1pbe empiricaldisp
 ersion=gd3bj\\theory_abbreviation pbe0_d3bj\\0,6\O,0,-0.29285,-0.20839
 5,-0.780516\C,0,-1.162269,-1.134729,-0.629992\C,0,-2.9022,-0.201188,0.
 44873\C,0,-2.512822,0.973749,-0.121523\C,0,-2.965493,1.383627,-1.48897
 7\Fe,0,1.436344,0.122561,0.002979\Cl,0,2.046071,2.046247,-0.836377\C,0
 ,-1.613268,1.956287,0.553357\Cl,0,2.612287,-1.614184,-0.635967\Cl,0,1.
 171452,0.175714,2.195648\H,0,-3.651855,-0.781365,-0.086105\H,0,-2.1935
 18,2.858586,0.792442\H,0,-1.16403,1.586207,1.473378\H,0,-0.813162,2.27
 2001,-0.126229\H,0,-3.414784,2.383328,-1.436103\H,0,-2.102358,1.469166
 ,-2.162162\H,0,-3.701437,0.700815,-1.919114\C,0,-2.782655,-0.506299,1.
 923581\H,0,-3.566217,0.033163,2.471132\H,0,-2.927501,-1.570379,2.12448
 7\H,0,-1.821025,-0.208708,2.347745\C,0,-0.91092,-2.210311,0.394846\H,0
 ,-1.7791,-2.853175,0.546561\H,0,-0.096496,-2.819067,-0.023944\H,0,-0.5
 5821,-1.807811,1.343505\C,0,-1.868649,-1.586225,-1.886472\H,0,-1.15521
 6,-2.247333,-2.397511\H,0,-2.773999,-2.159701,-1.680582\H,0,-2.080373,
 -0.756836,-2.558302\\Version=ES64L-G16RevA.03\HF=-3033.1571151\S2=8.76
 2496\S2-1=0.\S2A=8.750048\RMSD=3.098e-09\PG=C01 [X(C8H16Cl3Fe1O1)]\\@


 The hours that make us happy make us wise.
                         -- John Masefield
 Job cpu time:       0 days  0 hours  4 minutes 24.6 seconds.
 Elapsed time:       0 days  0 hours  1 minutes 12.5 seconds.
 File lengths (MBytes):  RWF=    170 Int=      0 D2E=      0 Chk=     13 Scr=      1
 Normal termination of Gaussian 16 at Tue Feb 11 23:39:31 2020.
 Initial command:
 /n/sw/g16_nehalem/g16/l1.exe "/scratch/Gau-104404.inp" -scrdir="/scratch/"
 Entering Link 1 = /n/sw/g16_nehalem/g16/l1.exe PID=    106287.
  
 Copyright (c) 1988,1990,1992,1993,1995,1998,2003,2009,2016,
            Gaussian, Inc.  All Rights Reserved.
  
 This is part of the Gaussian(R) 16 program.  It is based on
 the Gaussian(R) 09 system (copyright 2009, Gaussian, Inc.),
 the Gaussian(R) 03 system (copyright 2003, Gaussian, Inc.),
 the Gaussian(R) 98 system (copyright 1998, Gaussian, Inc.),
 the Gaussian(R) 94 system (copyright 1995, Gaussian, Inc.),
 the Gaussian 92(TM) system (copyright 1992, Gaussian, Inc.),
 the Gaussian 90(TM) system (copyright 1990, Gaussian, Inc.),
 the Gaussian 88(TM) system (copyright 1988, Gaussian, Inc.),
 the Gaussian 86(TM) system (copyright 1986, Carnegie Mellon
 University), and the Gaussian 82(TM) system (copyright 1983,
 Carnegie Mellon University). Gaussian is a federally registered
 trademark of Gaussian, Inc.
  
 This software contains proprietary and confidential information,
 including trade secrets, belonging to Gaussian, Inc.
  
 This software is provided under written license and may be
 used, copied, transmitted, or stored only in accord with that
 written license.
  
 The following legend is applicable only to US Government
 contracts under FAR:
  
                    RESTRICTED RIGHTS LEGEND
  
 Use, reproduction and disclosure by the US Government is
 subject to restrictions as set forth in subparagraphs (a)
 and (c) of the Commercial Computer Software - Restricted
 Rights clause in FAR 52.227-19.
  
 Gaussian, Inc.
 340 Quinnipiac St., Bldg. 40, Wallingford CT 06492
  
  
 ---------------------------------------------------------------
 Warning -- This program may not be used in any manner that
 competes with the business of Gaussian, Inc. or will provide
 assistance to any competitor of Gaussian, Inc.  The licensee
 of this program is prohibited from giving any competitor of
 Gaussian, Inc. access to this program.  By using this program,
 the user acknowledges that Gaussian, Inc. is engaged in the
 business of creating and licensing software in the field of
 computational chemistry and represents and warrants to the
 licensee that it is not a competitor of Gaussian, Inc. and that
 it will not use this program in any manner prohibited above.
 ---------------------------------------------------------------
  

 Cite this work as:
 Gaussian 16, Revision A.03,
 M. J. Frisch, G. W. Trucks, H. B. Schlegel, G. E. Scuseria, 
 M. A. Robb, J. R. Cheeseman, G. Scalmani, V. Barone, 
 G. A. Petersson, H. Nakatsuji, X. Li, M. Caricato, A. V. Marenich, 
 J. Bloino, B. G. Janesko, R. Gomperts, B. Mennucci, H. P. Hratchian, 
 J. V. Ortiz, A. F. Izmaylov, J. L. Sonnenberg, D. Williams-Young, 
 F. Ding, F. Lipparini, F. Egidi, J. Goings, B. Peng, A. Petrone, 
 T. Henderson, D. Ranasinghe, V. G. Zakrzewski, J. Gao, N. Rega, 
 G. Zheng, W. Liang, M. Hada, M. Ehara, K. Toyota, R. Fukuda, 
 J. Hasegawa, M. Ishida, T. Nakajima, Y. Honda, O. Kitao, H. Nakai, 
 T. Vreven, K. Throssell, J. A. Montgomery, Jr., J. E. Peralta, 
 F. Ogliaro, M. J. Bearpark, J. J. Heyd, E. N. Brothers, K. N. Kudin, 
 V. N. Staroverov, T. A. Keith, R. Kobayashi, J. Normand, 
 K. Raghavachari, A. P. Rendell, J. C. Burant, S. S. Iyengar, 
 J. Tomasi, M. Cossi, J. M. Millam, M. Klene, C. Adamo, R. Cammi, 
 J. W. Ochterski, R. L. Martin, K. Morokuma, O. Farkas, 
 J. B. Foresman, and D. J. Fox, Gaussian, Inc., Wallingford CT, 2016.
 
 ******************************************
 Gaussian 16:  ES64L-G16RevA.03 25-Dec-2016
                11-Feb-2020 
 ******************************************
 %chk=checkpoint.chk
 %mem=3GB
 %nprocshared=4
 Will use up to    4 processors via shared memory.
 -----------------------------------------
 #t pop=none jul-cc-pvdz guess=read ub3lyp
 -----------------------------------------
 -------------------------
 theory_abbreviation b3lyp
 -------------------------
 Symbolic Z-matrix:
 Charge =  0 Multiplicity = 6
 O                    -0.29285  -0.2084   -0.78052 
 C                    -1.16227  -1.13473  -0.62999 
 C                    -2.9022   -0.20119   0.44873 
 C                    -2.51282   0.97375  -0.12152 
 C                    -2.96549   1.38363  -1.48898 
 Fe                    1.43634   0.12256   0.00298 
 Cl                    2.04607   2.04625  -0.83638 
 C                    -1.61327   1.95629   0.55336 
 Cl                    2.61229  -1.61418  -0.63597 
 Cl                    1.17145   0.17571   2.19565 
 H                    -3.65186  -0.78137  -0.08611 
 H                    -2.19352   2.85859   0.79244 
 H                    -1.16403   1.58621   1.47338 
 H                    -0.81316   2.272    -0.12623 
 H                    -3.41478   2.38333  -1.4361 
 H                    -2.10236   1.46917  -2.16216 
 H                    -3.70144   0.70082  -1.91911 
 C                    -2.78266  -0.5063    1.92358 
 H                    -3.56622   0.03316   2.47113 
 H                    -2.9275   -1.57038   2.12449 
 H                    -1.82103  -0.20871   2.34775 
 C                    -0.91092  -2.21031   0.39485 
 H                    -1.7791   -2.85318   0.54656 
 H                    -0.0965   -2.81907  -0.02394 
 H                    -0.55821  -1.80781   1.34351 
 C                    -1.86865  -1.58623  -1.88647 
 H                    -1.15522  -2.24733  -2.39751 
 H                    -2.774    -2.1597   -1.68058 
 H                    -2.08037  -0.75684  -2.5583 
 
                    Distance matrix (angstroms):
                    1          2          3          4          5
     1  O    0.000000
     2  C    1.279313   0.000000
     3  C    2.884407   2.250000   0.000000
     4  C    2.600002   2.555037   1.362821   0.000000
     5  C    3.190528   3.214279   2.504067   1.497612   0.000000
     6  Fe   1.927046   2.955371   4.373382   4.041774   4.815848
     7  Cl   3.249166   4.522682   5.584608   4.737592   5.097129
     8  C    2.865060   3.340373   2.515351   1.493332   2.515468
     9  Cl   3.230628   3.804890   5.795058   5.764442   6.389533
    10  Cl   3.339053   3.892012   4.448417   4.424931   5.670082
    11  H    3.477559   2.572687   1.088410   2.092624   2.669519
    12  H    3.936129   4.362724   3.159523   2.118938   2.824238
    13  H    3.009915   3.439137   2.695537   2.176707   3.473018
    14  H    2.617476   3.461425   3.288057   2.138767   2.697929
    15  H    4.110145   4.254452   3.239608   2.128043   1.097297
    16  H    2.827981   3.164108   3.201029   2.139656   1.097951
    17  H    3.706957   3.387983   2.656892   2.172241   1.092183
    18  C    3.687820   3.088901   1.510817   2.538858   3.905228
    19  H    4.620227   4.093887   2.141483   2.952322   4.226948
    20  H    4.151557   3.300453   2.164136   3.418934   4.667410
    21  H    3.481571   3.187223   2.185235   2.823840   4.308802
    22  C    2.402323   1.506767   2.829253   3.601523   4.548236
    23  H    3.311334   2.172053   2.881659   3.953483   4.847828
    24  H    2.725172   2.083305   3.866353   4.498178   5.295291
    25  H    2.672080   2.170856   2.979287   3.701877   4.899310
    26  C    2.367424   1.510484   2.905120   3.175448   3.190782
    27  H    2.741462   2.088555   3.916599   4.171161   4.157693
    28  H    3.282349   2.179904   2.895890   3.509614   3.553668
    29  H    2.580029   2.168893   3.166447   3.019905   2.551171
                    6          7          8          9         10
     6  Fe   0.000000
     7  Cl   2.185601   0.000000
     8  C    3.600778   3.915382   0.000000
     9  Cl   2.192573   3.709383   5.658451   0.000000
    10  Cl   2.209251   3.668382   3.690830   3.646613   0.000000
    11  H    5.168635   6.405049   3.472677   6.343139   5.420949
    12  H    4.613565   4.613790   1.099088   6.718764   4.526567
    13  H    3.326602   3.981376   1.088675   5.380744   2.822347
    14  H    3.114011   2.954740   1.096213   5.205379   3.704622
    15  H    5.542154   5.504020   2.717678   7.276394   6.252738
    16  H    4.361604   4.393198   2.801881   5.836454   5.601907
    17  H    5.515942   6.001363   3.471278   6.846079   6.399378
    18  C    4.678048   6.119596   3.051116   6.073228   4.021707
    19  H    5.579013   6.818350   3.345187   7.109271   4.747812
    20  H    5.139065   6.825183   4.078361   6.189610   4.455931
    21  H    4.027173   5.493440   2.819609   5.525591   3.020899
    22  C    3.332492   5.327100   4.228352   3.718996   3.643114
    23  H    4.414699   6.367793   4.812325   4.713571   4.538658
    24  H    3.317152   5.377910   5.043598   3.027180   3.937384
    25  H    3.082465   5.136918   3.988222   3.742707   2.766270
    26  C    4.172883   5.442663   4.308988   4.652239   5.386125
    27  H    4.253814   5.578549   5.156341   4.206898   5.690488
    28  H    5.076424   6.452577   4.824846   5.513700   6.003824
    29  H    4.438558   5.277295   4.154714   5.143100   5.834728
                   11         12         13         14         15
    11  H    0.000000
    12  H    4.018437   0.000000
    13  H    3.771824   1.772701   0.000000
    14  H    4.169272   1.758812   1.775434   0.000000
    15  H    3.448765   2.585300   3.763825   2.914893   0.000000
    16  H    3.431595   3.266264   3.756502   2.539999   1.756507
    17  H    2.357804   3.779197   4.327974   3.745023   1.773787
    18  C    2.206809   3.598473   2.683507   3.974868   4.476272
    19  H    2.685191   3.561645   3.029515   4.397498   4.562093
    20  H    2.456410   4.682820   3.673936   4.929507   5.342943
    21  H    3.098951   3.459192   2.101875   3.645580   4.855535
    22  C    3.128246   5.243745   3.954851   4.513557   5.542854
    23  H    2.863542   5.732051   4.576616   5.258623   5.833299
    24  H    4.098374   6.107351   4.773682   5.142280   6.330098
    25  H    3.559216   4.975255   3.450108   4.343960   5.783760
    26  C    2.658749   5.199852   4.674335   4.370173   4.283774
    27  H    3.704709   6.109360   5.447925   5.069527   5.241467
    28  H    2.283155   5.624590   5.154735   5.089290   4.594506
    29  H    2.929491   4.930676   4.752260   4.085909   3.591742
                   16         17         18         19         20
    16  H    0.000000
    17  H    1.790667   0.000000
    18  C    4.588961   4.131294   0.000000
    19  H    5.066794   4.442781   1.097634   0.000000
    20  H    5.319310   4.701915   1.092525   1.760531   0.000000
    21  H    4.820132   4.750712   1.092340   1.766188   1.768695
    22  C    4.636417   4.649306   2.957039   4.049042   2.732722
    23  H    5.111194   4.733474   2.900195   3.902398   2.335432
    24  H    5.194651   5.383014   4.044403   5.138053   3.766904
    25  H    5.041098   5.178587   2.641700   3.702544   2.505962
    26  C    3.076693   2.930995   4.064253   4.949027   4.148399
    27  H    3.842503   3.924752   4.934733   5.892136   4.903848
    28  H    3.721787   3.016553   3.965325   4.761616   3.853494
    29  H    2.261083   2.271818   4.543484   5.303493   4.827835
                   21         22         23         24         25
    21  H    0.000000
    22  C    2.940837   0.000000
    23  H    3.199879   1.090884   0.000000
    24  H    3.925924   1.099661   1.777019   0.000000
    25  H    2.271636   1.089204   1.794012   1.762310   0.000000
    26  C    4.452911   2.551694   2.744600   2.851217   3.492721
    27  H    5.207374   2.803268   3.069827   2.661125   3.813764
    28  H    4.576238   2.789449   2.535921   3.216867   3.765455
    29  H    4.943380   3.493035   3.758401   3.822504   4.318058
                   26         27         28         29
    26  C    0.000000
    27  H    1.098732   0.000000
    28  H    1.091295   1.772604   0.000000
    29  H    1.088149   1.761633   1.794308   0.000000
 Framework group  C1[X(C8H16Cl3FeO)]
 Deg. of freedom    81
                         Standard orientation:                         
 ---------------------------------------------------------------------
 Center     Atomic      Atomic             Coordinates (Angstroms)
 Number     Number       Type             X           Y           Z
 ---------------------------------------------------------------------
      1          8           0       -0.292850   -0.208395   -0.780516
      2          6           0       -1.162269   -1.134729   -0.629992
      3          6           0       -2.902200   -0.201188    0.448730
      4          6           0       -2.512822    0.973749   -0.121523
      5          6           0       -2.965493    1.383627   -1.488977
      6         26           0        1.436344    0.122561    0.002979
      7         17           0        2.046071    2.046247   -0.836377
      8          6           0       -1.613268    1.956287    0.553357
      9         17           0        2.612287   -1.614184   -0.635967
     10         17           0        1.171452    0.175714    2.195648
     11          1           0       -3.651855   -0.781365   -0.086105
     12          1           0       -2.193518    2.858586    0.792442
     13          1           0       -1.164030    1.586207    1.473378
     14          1           0       -0.813162    2.272001   -0.126229
     15          1           0       -3.414784    2.383328   -1.436103
     16          1           0       -2.102358    1.469166   -2.162162
     17          1           0       -3.701437    0.700815   -1.919114
     18          6           0       -2.782655   -0.506299    1.923581
     19          1           0       -3.566217    0.033163    2.471132
     20          1           0       -2.927501   -1.570379    2.124487
     21          1           0       -1.821025   -0.208708    2.347745
     22          6           0       -0.910920   -2.210311    0.394846
     23          1           0       -1.779100   -2.853175    0.546561
     24          1           0       -0.096496   -2.819067   -0.023944
     25          1           0       -0.558210   -1.807811    1.343505
     26          6           0       -1.868649   -1.586225   -1.886472
     27          1           0       -1.155216   -2.247333   -2.397511
     28          1           0       -2.773999   -2.159701   -1.680582
     29          1           0       -2.080373   -0.756836   -2.558302
 ---------------------------------------------------------------------
 Rotational constants (GHZ):           0.5769189           0.3369157           0.3168238
   427 basis functions,  1056 primitive gaussians,   461 cartesian basis functions
    77 alpha electrons       72 beta electrons
       nuclear repulsion energy      1643.8725986423 Hartrees.
 NAtoms=   29 NActive=   29 NUniq=   29 SFac= 1.00D+00 NAtFMM=   60 NAOKFM=F Big=F
 Initial guess from the checkpoint file:  "checkpoint.chk"
 B after Tr=     0.000000    0.000000    0.000000
         Rot=    1.000000    0.000000    0.000000    0.000000 Ang=   0.00 deg.
 Initial guess <Sx>= 0.0000 <Sy>= 0.0000 <Sz>= 2.5000 <S**2>= 8.7625 S= 2.5021
 SCF Done:  E(UB3LYP) =  -3034.33470481     A.U. after   13 cycles
            NFock= 13  Conv=0.66D-08     -V/T= 2.0024
 <Sx>= 0.0000 <Sy>= 0.0000 <Sz>= 2.5000 <S**2>= 8.7618 S= 2.5020
 <L.S>= 0.000000000000E+00
 Annihilation of the first spin contaminant:
 S**2 before annihilation     8.7618,   after     8.7500
 1\1\GINC-HOLY7C16202\SP\UB3LYP\Jul-CC-pVDZ\C8H16Cl3Fe1O1(6)\EKWAN\11-F
 eb-2020\0\\#t pop=none jul-cc-pvdz guess=read ub3lyp\\theory_abbreviat
 ion b3lyp\\0,6\O,0,-0.29285,-0.208395,-0.780516\C,0,-1.162269,-1.13472
 9,-0.629992\C,0,-2.9022,-0.201188,0.44873\C,0,-2.512822,0.973749,-0.12
 1523\C,0,-2.965493,1.383627,-1.488977\Fe,0,1.436344,0.122561,0.002979\
 Cl,0,2.046071,2.046247,-0.836377\C,0,-1.613268,1.956287,0.553357\Cl,0,
 2.612287,-1.614184,-0.635967\Cl,0,1.171452,0.175714,2.195648\H,0,-3.65
 1855,-0.781365,-0.086105\H,0,-2.193518,2.858586,0.792442\H,0,-1.16403,
 1.586207,1.473378\H,0,-0.813162,2.272001,-0.126229\H,0,-3.414784,2.383
 328,-1.436103\H,0,-2.102358,1.469166,-2.162162\H,0,-3.701437,0.700815,
 -1.919114\C,0,-2.782655,-0.506299,1.923581\H,0,-3.566217,0.033163,2.47
 1132\H,0,-2.927501,-1.570379,2.124487\H,0,-1.821025,-0.208708,2.347745
 \C,0,-0.91092,-2.210311,0.394846\H,0,-1.7791,-2.853175,0.546561\H,0,-0
 .096496,-2.819067,-0.023944\H,0,-0.55821,-1.807811,1.343505\C,0,-1.868
 649,-1.586225,-1.886472\H,0,-1.155216,-2.247333,-2.397511\H,0,-2.77399
 9,-2.159701,-1.680582\H,0,-2.080373,-0.756836,-2.558302\\Version=ES64L
 -G16RevA.03\HF=-3034.3347048\S2=8.761768\S2-1=0.\S2A=8.750043\RMSD=6.5
 58e-09\PG=C01 [X(C8H16Cl3Fe1O1)]\\@


 We make a living by what we get,
 we make a life by what we give.
                   -- Sir Winston Churchill
 Job cpu time:       0 days  0 hours 52 minutes 42.6 seconds.
 Elapsed time:       0 days  0 hours 15 minutes 11.9 seconds.
 File lengths (MBytes):  RWF=    174 Int=      0 D2E=      0 Chk=     13 Scr=      1
 Normal termination of Gaussian 16 at Tue Feb 11 23:54:44 2020.
 Initial command:
 /n/sw/g16_nehalem/g16/l1.exe "/scratch/Gau-104404.inp" -scrdir="/scratch/"
 Entering Link 1 = /n/sw/g16_nehalem/g16/l1.exe PID=    107321.
  
 Copyright (c) 1988,1990,1992,1993,1995,1998,2003,2009,2016,
            Gaussian, Inc.  All Rights Reserved.
  
 This is part of the Gaussian(R) 16 program.  It is based on
 the Gaussian(R) 09 system (copyright 2009, Gaussian, Inc.),
 the Gaussian(R) 03 system (copyright 2003, Gaussian, Inc.),
 the Gaussian(R) 98 system (copyright 1998, Gaussian, Inc.),
 the Gaussian(R) 94 system (copyright 1995, Gaussian, Inc.),
 the Gaussian 92(TM) system (copyright 1992, Gaussian, Inc.),
 the Gaussian 90(TM) system (copyright 1990, Gaussian, Inc.),
 the Gaussian 88(TM) system (copyright 1988, Gaussian, Inc.),
 the Gaussian 86(TM) system (copyright 1986, Carnegie Mellon
 University), and the Gaussian 82(TM) system (copyright 1983,
 Carnegie Mellon University). Gaussian is a federally registered
 trademark of Gaussian, Inc.
  
 This software contains proprietary and confidential information,
 including trade secrets, belonging to Gaussian, Inc.
  
 This software is provided under written license and may be
 used, copied, transmitted, or stored only in accord with that
 written license.
  
 The following legend is applicable only to US Government
 contracts under FAR:
  
                    RESTRICTED RIGHTS LEGEND
  
 Use, reproduction and disclosure by the US Government is
 subject to restrictions as set forth in subparagraphs (a)
 and (c) of the Commercial Computer Software - Restricted
 Rights clause in FAR 52.227-19.
  
 Gaussian, Inc.
 340 Quinnipiac St., Bldg. 40, Wallingford CT 06492
  
  
 ---------------------------------------------------------------
 Warning -- This program may not be used in any manner that
 competes with the business of Gaussian, Inc. or will provide
 assistance to any competitor of Gaussian, Inc.  The licensee
 of this program is prohibited from giving any competitor of
 Gaussian, Inc. access to this program.  By using this program,
 the user acknowledges that Gaussian, Inc. is engaged in the
 business of creating and licensing software in the field of
 computational chemistry and represents and warrants to the
 licensee that it is not a competitor of Gaussian, Inc. and that
 it will not use this program in any manner prohibited above.
 ---------------------------------------------------------------
  

 Cite this work as:
 Gaussian 16, Revision A.03,
 M. J. Frisch, G. W. Trucks, H. B. Schlegel, G. E. Scuseria, 
 M. A. Robb, J. R. Cheeseman, G. Scalmani, V. Barone, 
 G. A. Petersson, H. Nakatsuji, X. Li, M. Caricato, A. V. Marenich, 
 J. Bloino, B. G. Janesko, R. Gomperts, B. Mennucci, H. P. Hratchian, 
 J. V. Ortiz, A. F. Izmaylov, J. L. Sonnenberg, D. Williams-Young, 
 F. Ding, F. Lipparini, F. Egidi, J. Goings, B. Peng, A. Petrone, 
 T. Henderson, D. Ranasinghe, V. G. Zakrzewski, J. Gao, N. Rega, 
 G. Zheng, W. Liang, M. Hada, M. Ehara, K. Toyota, R. Fukuda, 
 J. Hasegawa, M. Ishida, T. Nakajima, Y. Honda, O. Kitao, H. Nakai, 
 T. Vreven, K. Throssell, J. A. Montgomery, Jr., J. E. Peralta, 
 F. Ogliaro, M. J. Bearpark, J. J. Heyd, E. N. Brothers, K. N. Kudin, 
 V. N. Staroverov, T. A. Keith, R. Kobayashi, J. Normand, 
 K. Raghavachari, A. P. Rendell, J. C. Burant, S. S. Iyengar, 
 J. Tomasi, M. Cossi, J. M. Millam, M. Klene, C. Adamo, R. Cammi, 
 J. W. Ochterski, R. L. Martin, K. Morokuma, O. Farkas, 
 J. B. Foresman, and D. J. Fox, Gaussian, Inc., Wallingford CT, 2016.
 
 ******************************************
 Gaussian 16:  ES64L-G16RevA.03 25-Dec-2016
                11-Feb-2020 
 ******************************************
 %chk=checkpoint.chk
 %mem=3GB
 %nprocshared=4
 Will use up to    4 processors via shared memory.
 -------------------------------------------------------------------
 #t pop=none jul-cc-pvdz guess=read ub3lyp empiricaldispersion=gd3bj
 -------------------------------------------------------------------
 ------------------------------
 theory_abbreviation b3lyp_d3bj
 ------------------------------
 Symbolic Z-matrix:
 Charge =  0 Multiplicity = 6
 O                    -0.29285  -0.2084   -0.78052 
 C                    -1.16227  -1.13473  -0.62999 
 C                    -2.9022   -0.20119   0.44873 
 C                    -2.51282   0.97375  -0.12152 
 C                    -2.96549   1.38363  -1.48898 
 Fe                    1.43634   0.12256   0.00298 
 Cl                    2.04607   2.04625  -0.83638 
 C                    -1.61327   1.95629   0.55336 
 Cl                    2.61229  -1.61418  -0.63597 
 Cl                    1.17145   0.17571   2.19565 
 H                    -3.65186  -0.78137  -0.08611 
 H                    -2.19352   2.85859   0.79244 
 H                    -1.16403   1.58621   1.47338 
 H                    -0.81316   2.272    -0.12623 
 H                    -3.41478   2.38333  -1.4361 
 H                    -2.10236   1.46917  -2.16216 
 H                    -3.70144   0.70082  -1.91911 
 C                    -2.78266  -0.5063    1.92358 
 H                    -3.56622   0.03316   2.47113 
 H                    -2.9275   -1.57038   2.12449 
 H                    -1.82103  -0.20871   2.34775 
 C                    -0.91092  -2.21031   0.39485 
 H                    -1.7791   -2.85318   0.54656 
 H                    -0.0965   -2.81907  -0.02394 
 H                    -0.55821  -1.80781   1.34351 
 C                    -1.86865  -1.58623  -1.88647 
 H                    -1.15522  -2.24733  -2.39751 
 H                    -2.774    -2.1597   -1.68058 
 H                    -2.08037  -0.75684  -2.5583 
 
                    Distance matrix (angstroms):
                    1          2          3          4          5
     1  O    0.000000
     2  C    1.279313   0.000000
     3  C    2.884407   2.250000   0.000000
     4  C    2.600002   2.555037   1.362821   0.000000
     5  C    3.190528   3.214279   2.504067   1.497612   0.000000
     6  Fe   1.927046   2.955371   4.373382   4.041774   4.815848
     7  Cl   3.249166   4.522682   5.584608   4.737592   5.097129
     8  C    2.865060   3.340373   2.515351   1.493332   2.515468
     9  Cl   3.230628   3.804890   5.795058   5.764442   6.389533
    10  Cl   3.339053   3.892012   4.448417   4.424931   5.670082
    11  H    3.477559   2.572687   1.088410   2.092624   2.669519
    12  H    3.936129   4.362724   3.159523   2.118938   2.824238
    13  H    3.009915   3.439137   2.695537   2.176707   3.473018
    14  H    2.617476   3.461425   3.288057   2.138767   2.697929
    15  H    4.110145   4.254452   3.239608   2.128043   1.097297
    16  H    2.827981   3.164108   3.201029   2.139656   1.097951
    17  H    3.706957   3.387983   2.656892   2.172241   1.092183
    18  C    3.687820   3.088901   1.510817   2.538858   3.905228
    19  H    4.620227   4.093887   2.141483   2.952322   4.226948
    20  H    4.151557   3.300453   2.164136   3.418934   4.667410
    21  H    3.481571   3.187223   2.185235   2.823840   4.308802
    22  C    2.402323   1.506767   2.829253   3.601523   4.548236
    23  H    3.311334   2.172053   2.881659   3.953483   4.847828
    24  H    2.725172   2.083305   3.866353   4.498178   5.295291
    25  H    2.672080   2.170856   2.979287   3.701877   4.899310
    26  C    2.367424   1.510484   2.905120   3.175448   3.190782
    27  H    2.741462   2.088555   3.916599   4.171161   4.157693
    28  H    3.282349   2.179904   2.895890   3.509614   3.553668
    29  H    2.580029   2.168893   3.166447   3.019905   2.551171
                    6          7          8          9         10
     6  Fe   0.000000
     7  Cl   2.185601   0.000000
     8  C    3.600778   3.915382   0.000000
     9  Cl   2.192573   3.709383   5.658451   0.000000
    10  Cl   2.209251   3.668382   3.690830   3.646613   0.000000
    11  H    5.168635   6.405049   3.472677   6.343139   5.420949
    12  H    4.613565   4.613790   1.099088   6.718764   4.526567
    13  H    3.326602   3.981376   1.088675   5.380744   2.822347
    14  H    3.114011   2.954740   1.096213   5.205379   3.704622
    15  H    5.542154   5.504020   2.717678   7.276394   6.252738
    16  H    4.361604   4.393198   2.801881   5.836454   5.601907
    17  H    5.515942   6.001363   3.471278   6.846079   6.399378
    18  C    4.678048   6.119596   3.051116   6.073228   4.021707
    19  H    5.579013   6.818350   3.345187   7.109271   4.747812
    20  H    5.139065   6.825183   4.078361   6.189610   4.455931
    21  H    4.027173   5.493440   2.819609   5.525591   3.020899
    22  C    3.332492   5.327100   4.228352   3.718996   3.643114
    23  H    4.414699   6.367793   4.812325   4.713571   4.538658
    24  H    3.317152   5.377910   5.043598   3.027180   3.937384
    25  H    3.082465   5.136918   3.988222   3.742707   2.766270
    26  C    4.172883   5.442663   4.308988   4.652239   5.386125
    27  H    4.253814   5.578549   5.156341   4.206898   5.690488
    28  H    5.076424   6.452577   4.824846   5.513700   6.003824
    29  H    4.438558   5.277295   4.154714   5.143100   5.834728
                   11         12         13         14         15
    11  H    0.000000
    12  H    4.018437   0.000000
    13  H    3.771824   1.772701   0.000000
    14  H    4.169272   1.758812   1.775434   0.000000
    15  H    3.448765   2.585300   3.763825   2.914893   0.000000
    16  H    3.431595   3.266264   3.756502   2.539999   1.756507
    17  H    2.357804   3.779197   4.327974   3.745023   1.773787
    18  C    2.206809   3.598473   2.683507   3.974868   4.476272
    19  H    2.685191   3.561645   3.029515   4.397498   4.562093
    20  H    2.456410   4.682820   3.673936   4.929507   5.342943
    21  H    3.098951   3.459192   2.101875   3.645580   4.855535
    22  C    3.128246   5.243745   3.954851   4.513557   5.542854
    23  H    2.863542   5.732051   4.576616   5.258623   5.833299
    24  H    4.098374   6.107351   4.773682   5.142280   6.330098
    25  H    3.559216   4.975255   3.450108   4.343960   5.783760
    26  C    2.658749   5.199852   4.674335   4.370173   4.283774
    27  H    3.704709   6.109360   5.447925   5.069527   5.241467
    28  H    2.283155   5.624590   5.154735   5.089290   4.594506
    29  H    2.929491   4.930676   4.752260   4.085909   3.591742
                   16         17         18         19         20
    16  H    0.000000
    17  H    1.790667   0.000000
    18  C    4.588961   4.131294   0.000000
    19  H    5.066794   4.442781   1.097634   0.000000
    20  H    5.319310   4.701915   1.092525   1.760531   0.000000
    21  H    4.820132   4.750712   1.092340   1.766188   1.768695
    22  C    4.636417   4.649306   2.957039   4.049042   2.732722
    23  H    5.111194   4.733474   2.900195   3.902398   2.335432
    24  H    5.194651   5.383014   4.044403   5.138053   3.766904
    25  H    5.041098   5.178587   2.641700   3.702544   2.505962
    26  C    3.076693   2.930995   4.064253   4.949027   4.148399
    27  H    3.842503   3.924752   4.934733   5.892136   4.903848
    28  H    3.721787   3.016553   3.965325   4.761616   3.853494
    29  H    2.261083   2.271818   4.543484   5.303493   4.827835
                   21         22         23         24         25
    21  H    0.000000
    22  C    2.940837   0.000000
    23  H    3.199879   1.090884   0.000000
    24  H    3.925924   1.099661   1.777019   0.000000
    25  H    2.271636   1.089204   1.794012   1.762310   0.000000
    26  C    4.452911   2.551694   2.744600   2.851217   3.492721
    27  H    5.207374   2.803268   3.069827   2.661125   3.813764
    28  H    4.576238   2.789449   2.535921   3.216867   3.765455
    29  H    4.943380   3.493035   3.758401   3.822504   4.318058
                   26         27         28         29
    26  C    0.000000
    27  H    1.098732   0.000000
    28  H    1.091295   1.772604   0.000000
    29  H    1.088149   1.761633   1.794308   0.000000
 Framework group  C1[X(C8H16Cl3FeO)]
 Deg. of freedom    81
                         Standard orientation:                         
 ---------------------------------------------------------------------
 Center     Atomic      Atomic             Coordinates (Angstroms)
 Number     Number       Type             X           Y           Z
 ---------------------------------------------------------------------
      1          8           0       -0.292850   -0.208395   -0.780516
      2          6           0       -1.162269   -1.134729   -0.629992
      3          6           0       -2.902200   -0.201188    0.448730
      4          6           0       -2.512822    0.973749   -0.121523
      5          6           0       -2.965493    1.383627   -1.488977
      6         26           0        1.436344    0.122561    0.002979
      7         17           0        2.046071    2.046247   -0.836377
      8          6           0       -1.613268    1.956287    0.553357
      9         17           0        2.612287   -1.614184   -0.635967
     10         17           0        1.171452    0.175714    2.195648
     11          1           0       -3.651855   -0.781365   -0.086105
     12          1           0       -2.193518    2.858586    0.792442
     13          1           0       -1.164030    1.586207    1.473378
     14          1           0       -0.813162    2.272001   -0.126229
     15          1           0       -3.414784    2.383328   -1.436103
     16          1           0       -2.102358    1.469166   -2.162162
     17          1           0       -3.701437    0.700815   -1.919114
     18          6           0       -2.782655   -0.506299    1.923581
     19          1           0       -3.566217    0.033163    2.471132
     20          1           0       -2.927501   -1.570379    2.124487
     21          1           0       -1.821025   -0.208708    2.347745
     22          6           0       -0.910920   -2.210311    0.394846
     23          1           0       -1.779100   -2.853175    0.546561
     24          1           0       -0.096496   -2.819067   -0.023944
     25          1           0       -0.558210   -1.807811    1.343505
     26          6           0       -1.868649   -1.586225   -1.886472
     27          1           0       -1.155216   -2.247333   -2.397511
     28          1           0       -2.773999   -2.159701   -1.680582
     29          1           0       -2.080373   -0.756836   -2.558302
 ---------------------------------------------------------------------
 Rotational constants (GHZ):           0.5769189           0.3369157           0.3168238
   427 basis functions,  1056 primitive gaussians,   461 cartesian basis functions
    77 alpha electrons       72 beta electrons
       nuclear repulsion energy      1643.8725986423 Hartrees.
 NAtoms=   29 NActive=   29 NUniq=   29 SFac= 1.00D+00 NAtFMM=   60 NAOKFM=F Big=F
 Nuclear repulsion after empirical dispersion term =     1643.8023089523 Hartrees.
 Initial guess from the checkpoint file:  "checkpoint.chk"
 B after Tr=     0.000000    0.000000    0.000000
         Rot=    1.000000    0.000000    0.000000    0.000000 Ang=   0.00 deg.
 Initial guess <Sx>= 0.0000 <Sy>= 0.0000 <Sz>= 2.5000 <S**2>= 8.7618 S= 2.5020
 SCF Done:  E(UB3LYP) =  -3034.40499450     A.U. after    1 cycles
            NFock=  1  Conv=0.38D-08     -V/T= 2.0024
 <Sx>= 0.0000 <Sy>= 0.0000 <Sz>= 2.5000 <S**2>= 8.7618 S= 2.5020
 <L.S>= 0.000000000000E+00
 Annihilation of the first spin contaminant:
 S**2 before annihilation     8.7618,   after     8.7500
 1\1\GINC-HOLY7C16202\SP\UB3LYP\Jul-CC-pVDZ\C8H16Cl3Fe1O1(6)\EKWAN\11-F
 eb-2020\0\\#t pop=none jul-cc-pvdz guess=read ub3lyp empiricaldispersi
 on=gd3bj\\theory_abbreviation b3lyp_d3bj\\0,6\O,0,-0.29285,-0.208395,-
 0.780516\C,0,-1.162269,-1.134729,-0.629992\C,0,-2.9022,-0.201188,0.448
 73\C,0,-2.512822,0.973749,-0.121523\C,0,-2.965493,1.383627,-1.488977\F
 e,0,1.436344,0.122561,0.002979\Cl,0,2.046071,2.046247,-0.836377\C,0,-1
 .613268,1.956287,0.553357\Cl,0,2.612287,-1.614184,-0.635967\Cl,0,1.171
 452,0.175714,2.195648\H,0,-3.651855,-0.781365,-0.086105\H,0,-2.193518,
 2.858586,0.792442\H,0,-1.16403,1.586207,1.473378\H,0,-0.813162,2.27200
 1,-0.126229\H,0,-3.414784,2.383328,-1.436103\H,0,-2.102358,1.469166,-2
 .162162\H,0,-3.701437,0.700815,-1.919114\C,0,-2.782655,-0.506299,1.923
 581\H,0,-3.566217,0.033163,2.471132\H,0,-2.927501,-1.570379,2.124487\H
 ,0,-1.821025,-0.208708,2.347745\C,0,-0.91092,-2.210311,0.394846\H,0,-1
 .7791,-2.853175,0.546561\H,0,-0.096496,-2.819067,-0.023944\H,0,-0.5582
 1,-1.807811,1.343505\C,0,-1.868649,-1.586225,-1.886472\H,0,-1.155216,-
 2.247333,-2.397511\H,0,-2.773999,-2.159701,-1.680582\H,0,-2.080373,-0.
 756836,-2.558302\\Version=ES64L-G16RevA.03\HF=-3034.4049945\S2=8.76176
 8\S2-1=0.\S2A=8.750043\RMSD=3.768e-09\PG=C01 [X(C8H16Cl3Fe1O1)]\\@


 Just remember, when you're over the hill, you begin to pick up speed.
 -- Charles Schulz
 Job cpu time:       0 days  0 hours  4 minutes 31.9 seconds.
 Elapsed time:       0 days  0 hours  1 minutes  9.9 seconds.
 File lengths (MBytes):  RWF=    170 Int=      0 D2E=      0 Chk=     13 Scr=      1
 Normal termination of Gaussian 16 at Tue Feb 11 23:55:54 2020.
 Initial command:
 /n/sw/g16_nehalem/g16/l1.exe "/scratch/Gau-104404.inp" -scrdir="/scratch/"
 Entering Link 1 = /n/sw/g16_nehalem/g16/l1.exe PID=    107451.
  
 Copyright (c) 1988,1990,1992,1993,1995,1998,2003,2009,2016,
            Gaussian, Inc.  All Rights Reserved.
  
 This is part of the Gaussian(R) 16 program.  It is based on
 the Gaussian(R) 09 system (copyright 2009, Gaussian, Inc.),
 the Gaussian(R) 03 system (copyright 2003, Gaussian, Inc.),
 the Gaussian(R) 98 system (copyright 1998, Gaussian, Inc.),
 the Gaussian(R) 94 system (copyright 1995, Gaussian, Inc.),
 the Gaussian 92(TM) system (copyright 1992, Gaussian, Inc.),
 the Gaussian 90(TM) system (copyright 1990, Gaussian, Inc.),
 the Gaussian 88(TM) system (copyright 1988, Gaussian, Inc.),
 the Gaussian 86(TM) system (copyright 1986, Carnegie Mellon
 University), and the Gaussian 82(TM) system (copyright 1983,
 Carnegie Mellon University). Gaussian is a federally registered
 trademark of Gaussian, Inc.
  
 This software contains proprietary and confidential information,
 including trade secrets, belonging to Gaussian, Inc.
  
 This software is provided under written license and may be
 used, copied, transmitted, or stored only in accord with that
 written license.
  
 The following legend is applicable only to US Government
 contracts under FAR:
  
                    RESTRICTED RIGHTS LEGEND
  
 Use, reproduction and disclosure by the US Government is
 subject to restrictions as set forth in subparagraphs (a)
 and (c) of the Commercial Computer Software - Restricted
 Rights clause in FAR 52.227-19.
  
 Gaussian, Inc.
 340 Quinnipiac St., Bldg. 40, Wallingford CT 06492
  
  
 ---------------------------------------------------------------
 Warning -- This program may not be used in any manner that
 competes with the business of Gaussian, Inc. or will provide
 assistance to any competitor of Gaussian, Inc.  The licensee
 of this program is prohibited from giving any competitor of
 Gaussian, Inc. access to this program.  By using this program,
 the user acknowledges that Gaussian, Inc. is engaged in the
 business of creating and licensing software in the field of
 computational chemistry and represents and warrants to the
 licensee that it is not a competitor of Gaussian, Inc. and that
 it will not use this program in any manner prohibited above.
 ---------------------------------------------------------------
  

 Cite this work as:
 Gaussian 16, Revision A.03,
 M. J. Frisch, G. W. Trucks, H. B. Schlegel, G. E. Scuseria, 
 M. A. Robb, J. R. Cheeseman, G. Scalmani, V. Barone, 
 G. A. Petersson, H. Nakatsuji, X. Li, M. Caricato, A. V. Marenich, 
 J. Bloino, B. G. Janesko, R. Gomperts, B. Mennucci, H. P. Hratchian, 
 J. V. Ortiz, A. F. Izmaylov, J. L. Sonnenberg, D. Williams-Young, 
 F. Ding, F. Lipparini, F. Egidi, J. Goings, B. Peng, A. Petrone, 
 T. Henderson, D. Ranasinghe, V. G. Zakrzewski, J. Gao, N. Rega, 
 G. Zheng, W. Liang, M. Hada, M. Ehara, K. Toyota, R. Fukuda, 
 J. Hasegawa, M. Ishida, T. Nakajima, Y. Honda, O. Kitao, H. Nakai, 
 T. Vreven, K. Throssell, J. A. Montgomery, Jr., J. E. Peralta, 
 F. Ogliaro, M. J. Bearpark, J. J. Heyd, E. N. Brothers, K. N. Kudin, 
 V. N. Staroverov, T. A. Keith, R. Kobayashi, J. Normand, 
 K. Raghavachari, A. P. Rendell, J. C. Burant, S. S. Iyengar, 
 J. Tomasi, M. Cossi, J. M. Millam, M. Klene, C. Adamo, R. Cammi, 
 J. W. Ochterski, R. L. Martin, K. Morokuma, O. Farkas, 
 J. B. Foresman, and D. J. Fox, Gaussian, Inc., Wallingford CT, 2016.
 
 ******************************************
 Gaussian 16:  ES64L-G16RevA.03 25-Dec-2016
                11-Feb-2020 
 ******************************************
 %chk=checkpoint.chk
 %mem=3GB
 %nprocshared=4
 Will use up to    4 processors via shared memory.
 ----------------------------------------
 #t pop=none jul-cc-pvdz guess=read ub97d
 ----------------------------------------
 ------------------------
 theory_abbreviation b97d
 ------------------------
 Symbolic Z-matrix:
 Charge =  0 Multiplicity = 6
 O                    -0.29285  -0.2084   -0.78052 
 C                    -1.16227  -1.13473  -0.62999 
 C                    -2.9022   -0.20119   0.44873 
 C                    -2.51282   0.97375  -0.12152 
 C                    -2.96549   1.38363  -1.48898 
 Fe                    1.43634   0.12256   0.00298 
 Cl                    2.04607   2.04625  -0.83638 
 C                    -1.61327   1.95629   0.55336 
 Cl                    2.61229  -1.61418  -0.63597 
 Cl                    1.17145   0.17571   2.19565 
 H                    -3.65186  -0.78137  -0.08611 
 H                    -2.19352   2.85859   0.79244 
 H                    -1.16403   1.58621   1.47338 
 H                    -0.81316   2.272    -0.12623 
 H                    -3.41478   2.38333  -1.4361 
 H                    -2.10236   1.46917  -2.16216 
 H                    -3.70144   0.70082  -1.91911 
 C                    -2.78266  -0.5063    1.92358 
 H                    -3.56622   0.03316   2.47113 
 H                    -2.9275   -1.57038   2.12449 
 H                    -1.82103  -0.20871   2.34775 
 C                    -0.91092  -2.21031   0.39485 
 H                    -1.7791   -2.85318   0.54656 
 H                    -0.0965   -2.81907  -0.02394 
 H                    -0.55821  -1.80781   1.34351 
 C                    -1.86865  -1.58623  -1.88647 
 H                    -1.15522  -2.24733  -2.39751 
 H                    -2.774    -2.1597   -1.68058 
 H                    -2.08037  -0.75684  -2.5583 
 
                    Distance matrix (angstroms):
                    1          2          3          4          5
     1  O    0.000000
     2  C    1.279313   0.000000
     3  C    2.884407   2.250000   0.000000
     4  C    2.600002   2.555037   1.362821   0.000000
     5  C    3.190528   3.214279   2.504067   1.497612   0.000000
     6  Fe   1.927046   2.955371   4.373382   4.041774   4.815848
     7  Cl   3.249166   4.522682   5.584608   4.737592   5.097129
     8  C    2.865060   3.340373   2.515351   1.493332   2.515468
     9  Cl   3.230628   3.804890   5.795058   5.764442   6.389533
    10  Cl   3.339053   3.892012   4.448417   4.424931   5.670082
    11  H    3.477559   2.572687   1.088410   2.092624   2.669519
    12  H    3.936129   4.362724   3.159523   2.118938   2.824238
    13  H    3.009915   3.439137   2.695537   2.176707   3.473018
    14  H    2.617476   3.461425   3.288057   2.138767   2.697929
    15  H    4.110145   4.254452   3.239608   2.128043   1.097297
    16  H    2.827981   3.164108   3.201029   2.139656   1.097951
    17  H    3.706957   3.387983   2.656892   2.172241   1.092183
    18  C    3.687820   3.088901   1.510817   2.538858   3.905228
    19  H    4.620227   4.093887   2.141483   2.952322   4.226948
    20  H    4.151557   3.300453   2.164136   3.418934   4.667410
    21  H    3.481571   3.187223   2.185235   2.823840   4.308802
    22  C    2.402323   1.506767   2.829253   3.601523   4.548236
    23  H    3.311334   2.172053   2.881659   3.953483   4.847828
    24  H    2.725172   2.083305   3.866353   4.498178   5.295291
    25  H    2.672080   2.170856   2.979287   3.701877   4.899310
    26  C    2.367424   1.510484   2.905120   3.175448   3.190782
    27  H    2.741462   2.088555   3.916599   4.171161   4.157693
    28  H    3.282349   2.179904   2.895890   3.509614   3.553668
    29  H    2.580029   2.168893   3.166447   3.019905   2.551171
                    6          7          8          9         10
     6  Fe   0.000000
     7  Cl   2.185601   0.000000
     8  C    3.600778   3.915382   0.000000
     9  Cl   2.192573   3.709383   5.658451   0.000000
    10  Cl   2.209251   3.668382   3.690830   3.646613   0.000000
    11  H    5.168635   6.405049   3.472677   6.343139   5.420949
    12  H    4.613565   4.613790   1.099088   6.718764   4.526567
    13  H    3.326602   3.981376   1.088675   5.380744   2.822347
    14  H    3.114011   2.954740   1.096213   5.205379   3.704622
    15  H    5.542154   5.504020   2.717678   7.276394   6.252738
    16  H    4.361604   4.393198   2.801881   5.836454   5.601907
    17  H    5.515942   6.001363   3.471278   6.846079   6.399378
    18  C    4.678048   6.119596   3.051116   6.073228   4.021707
    19  H    5.579013   6.818350   3.345187   7.109271   4.747812
    20  H    5.139065   6.825183   4.078361   6.189610   4.455931
    21  H    4.027173   5.493440   2.819609   5.525591   3.020899
    22  C    3.332492   5.327100   4.228352   3.718996   3.643114
    23  H    4.414699   6.367793   4.812325   4.713571   4.538658
    24  H    3.317152   5.377910   5.043598   3.027180   3.937384
    25  H    3.082465   5.136918   3.988222   3.742707   2.766270
    26  C    4.172883   5.442663   4.308988   4.652239   5.386125
    27  H    4.253814   5.578549   5.156341   4.206898   5.690488
    28  H    5.076424   6.452577   4.824846   5.513700   6.003824
    29  H    4.438558   5.277295   4.154714   5.143100   5.834728
                   11         12         13         14         15
    11  H    0.000000
    12  H    4.018437   0.000000
    13  H    3.771824   1.772701   0.000000
    14  H    4.169272   1.758812   1.775434   0.000000
    15  H    3.448765   2.585300   3.763825   2.914893   0.000000
    16  H    3.431595   3.266264   3.756502   2.539999   1.756507
    17  H    2.357804   3.779197   4.327974   3.745023   1.773787
    18  C    2.206809   3.598473   2.683507   3.974868   4.476272
    19  H    2.685191   3.561645   3.029515   4.397498   4.562093
    20  H    2.456410   4.682820   3.673936   4.929507   5.342943
    21  H    3.098951   3.459192   2.101875   3.645580   4.855535
    22  C    3.128246   5.243745   3.954851   4.513557   5.542854
    23  H    2.863542   5.732051   4.576616   5.258623   5.833299
    24  H    4.098374   6.107351   4.773682   5.142280   6.330098
    25  H    3.559216   4.975255   3.450108   4.343960   5.783760
    26  C    2.658749   5.199852   4.674335   4.370173   4.283774
    27  H    3.704709   6.109360   5.447925   5.069527   5.241467
    28  H    2.283155   5.624590   5.154735   5.089290   4.594506
    29  H    2.929491   4.930676   4.752260   4.085909   3.591742
                   16         17         18         19         20
    16  H    0.000000
    17  H    1.790667   0.000000
    18  C    4.588961   4.131294   0.000000
    19  H    5.066794   4.442781   1.097634   0.000000
    20  H    5.319310   4.701915   1.092525   1.760531   0.000000
    21  H    4.820132   4.750712   1.092340   1.766188   1.768695
    22  C    4.636417   4.649306   2.957039   4.049042   2.732722
    23  H    5.111194   4.733474   2.900195   3.902398   2.335432
    24  H    5.194651   5.383014   4.044403   5.138053   3.766904
    25  H    5.041098   5.178587   2.641700   3.702544   2.505962
    26  C    3.076693   2.930995   4.064253   4.949027   4.148399
    27  H    3.842503   3.924752   4.934733   5.892136   4.903848
[...]
 ---------------------------------------------------------------------
 Rotational constants (GHZ):           0.5769189           0.3369157           0.3168238
   427 basis functions,  1056 primitive gaussians,   461 cartesian basis functions
    77 alpha electrons       72 beta electrons
       nuclear repulsion energy      1643.8725986423 Hartrees.
 NAtoms=   29 NActive=   29 NUniq=   29 SFac= 1.00D+00 NAtFMM=   60 NAOKFM=F Big=F
 Nuclear repulsion after empirical dispersion term =     1643.8701516832 Hartrees.
 Initial guess from the checkpoint file:  "checkpoint.chk"
 B after Tr=     0.000000    0.000000    0.000000
         Rot=    1.000000    0.000000    0.000000    0.000000 Ang=   0.00 deg.
 Initial guess <Sx>= 0.0000 <Sy>= 0.0000 <Sz>= 2.5000 <S**2>= 8.7615 S= 2.5019
 SCF Done:  E(UM06L) =  -3034.20322127     A.U. after   17 cycles
            NFock= 17  Conv=0.71D-08     -V/T= 2.0020
 <Sx>= 0.0000 <Sy>= 0.0000 <Sz>= 2.5000 <S**2>= 8.7615 S= 2.5019
 <L.S>= 0.000000000000E+00
 Annihilation of the first spin contaminant:
 S**2 before annihilation     8.7615,   after     8.7500
 1\1\GINC-HOLY7C16202\SP\UM06L\Jul-CC-pVDZ\C8H16Cl3Fe1O1(6)\EKWAN\12-Fe
 b-2020\0\\#t pop=none jul-cc-pvdz guess=read um06l empiricaldispersion
 =gd3\\theory_abbreviation m06l_d3\\0,6\O,0,-0.29285,-0.208395,-0.78051
 6\C,0,-1.162269,-1.134729,-0.629992\C,0,-2.9022,-0.201188,0.44873\C,0,
 -2.512822,0.973749,-0.121523\C,0,-2.965493,1.383627,-1.488977\Fe,0,1.4
 36344,0.122561,0.002979\Cl,0,2.046071,2.046247,-0.836377\C,0,-1.613268
 ,1.956287,0.553357\Cl,0,2.612287,-1.614184,-0.635967\Cl,0,1.171452,0.1
 75714,2.195648\H,0,-3.651855,-0.781365,-0.086105\H,0,-2.193518,2.85858
 6,0.792442\H,0,-1.16403,1.586207,1.473378\H,0,-0.813162,2.272001,-0.12
 6229\H,0,-3.414784,2.383328,-1.436103\H,0,-2.102358,1.469166,-2.162162
 \H,0,-3.701437,0.700815,-1.919114\C,0,-2.782655,-0.506299,1.923581\H,0
 ,-3.566217,0.033163,2.471132\H,0,-2.927501,-1.570379,2.124487\H,0,-1.8
 21025,-0.208708,2.347745\C,0,-0.91092,-2.210311,0.394846\H,0,-1.7791,-
 2.853175,0.546561\H,0,-0.096496,-2.819067,-0.023944\H,0,-0.55821,-1.80
 7811,1.343505\C,0,-1.868649,-1.586225,-1.886472\H,0,-1.155216,-2.24733
 3,-2.397511\H,0,-2.773999,-2.159701,-1.680582\H,0,-2.080373,-0.756836,
 -2.558302\\Version=ES64L-G16RevA.03\HF=-3034.2032213\S2=8.761477\S2-1=
 0.\S2A=8.750042\RMSD=7.075e-09\PG=C01 [X(C8H16Cl3Fe1O1)]\\@


 SEE YOU NOW,
 YOUR BAIT OF FALSEHOOD TAKES THIS CARP OF TRUTH.
 AND THUS DO WE OF WISDOM AND OF REACH...
 BY INDIRECTIONS FIND DIRECTIONS OUT.    -- HAMLET, II, 1
 Job cpu time:       0 days  1 hours 13 minutes 58.3 seconds.
 Elapsed time:       0 days  0 hours 18 minutes 45.6 seconds.
 File lengths (MBytes):  RWF=    174 Int=      0 D2E=      0 Chk=     13 Scr=      1
 Normal termination of Gaussian 16 at Wed Feb 12 08:59:26 2020.
 Initial command:
 /n/sw/g16_nehalem/g16/l1.exe "/scratch/Gau-104404.inp" -scrdir="/scratch/"
 Entering Link 1 = /n/sw/g16_nehalem/g16/l1.exe PID=    151322.
  
 Copyright (c) 1988,1990,1992,1993,1995,1998,2003,2009,2016,
            Gaussian, Inc.  All Rights Reserved.
  
 This is part of the Gaussian(R) 16 program.  It is based on
 the Gaussian(R) 09 system (copyright 2009, Gaussian, Inc.),
 the Gaussian(R) 03 system (copyright 2003, Gaussian, Inc.),
 the Gaussian(R) 98 system (copyright 1998, Gaussian, Inc.),
 the Gaussian(R) 94 system (copyright 1995, Gaussian, Inc.),
 the Gaussian 92(TM) system (copyright 1992, Gaussian, Inc.),
 the Gaussian 90(TM) system (copyright 1990, Gaussian, Inc.),
 the Gaussian 88(TM) system (copyright 1988, Gaussian, Inc.),
 the Gaussian 86(TM) system (copyright 1986, Carnegie Mellon
 University), and the Gaussian 82(TM) system (copyright 1983,
 Carnegie Mellon University). Gaussian is a federally registered
 trademark of Gaussian, Inc.
  
 This software contains proprietary and confidential information,
 including trade secrets, belonging to Gaussian, Inc.
  
 This software is provided under written license and may be
 used, copied, transmitted, or stored only in accord with that
 written license.
  
 The following legend is applicable only to US Government
 contracts under FAR:
  
                    RESTRICTED RIGHTS LEGEND
  
 Use, reproduction and disclosure by the US Government is
 subject to restrictions as set forth in subparagraphs (a)
 and (c) of the Commercial Computer Software - Restricted
 Rights clause in FAR 52.227-19.
  
 Gaussian, Inc.
 340 Quinnipiac St., Bldg. 40, Wallingford CT 06492
  
  
 ---------------------------------------------------------------
 Warning -- This program may not be used in any manner that
 competes with the business of Gaussian, Inc. or will provide
 assistance to any competitor of Gaussian, Inc.  The licensee
 of this program is prohibited from giving any competitor of
 Gaussian, Inc. access to this program.  By using this program,
 the user acknowledges that Gaussian, Inc. is engaged in the
 business of creating and licensing software in the field of
 computational chemistry and represents and warrants to the
 licensee that it is not a competitor of Gaussian, Inc. and that
 it will not use this program in any manner prohibited above.
 ---------------------------------------------------------------
  

 Cite this work as:
 Gaussian 16, Revision A.03,
 M. J. Frisch, G. W. Trucks, H. B. Schlegel, G. E. Scuseria, 
 M. A. Robb, J. R. Cheeseman, G. Scalmani, V. Barone, 
 G. A. Petersson, H. Nakatsuji, X. Li, M. Caricato, A. V. Marenich, 
 J. Bloino, B. G. Janesko, R. Gomperts, B. Mennucci, H. P. Hratchian, 
 J. V. Ortiz, A. F. Izmaylov, J. L. Sonnenberg, D. Williams-Young, 
 F. Ding, F. Lipparini, F. Egidi, J. Goings, B. Peng, A. Petrone, 
 T. Henderson, D. Ranasinghe, V. G. Zakrzewski, J. Gao, N. Rega, 
 G. Zheng, W. Liang, M. Hada, M. Ehara, K. Toyota, R. Fukuda, 
 J. Hasegawa, M. Ishida, T. Nakajima, Y. Honda, O. Kitao, H. Nakai, 
 T. Vreven, K. Throssell, J. A. Montgomery, Jr., J. E. Peralta, 
 F. Ogliaro, M. J. Bearpark, J. J. Heyd, E. N. Brothers, K. N. Kudin, 
 V. N. Staroverov, T. A. Keith, R. Kobayashi, J. Normand, 
 K. Raghavachari, A. P. Rendell, J. C. Burant, S. S. Iyengar, 
 J. Tomasi, M. Cossi, J. M. Millam, M. Klene, C. Adamo, R. Cammi, 
 J. W. Ochterski, R. L. Martin, K. Morokuma, O. Farkas, 
 J. B. Foresman, and D. J. Fox, Gaussian, Inc., Wallingford CT, 2016.
 
 ******************************************
 Gaussian 16:  ES64L-G16RevA.03 25-Dec-2016
                12-Feb-2020 
 ******************************************
 %chk=checkpoint.chk
 %mem=3GB
 %nprocshared=4
 Will use up to    4 processors via shared memory.
 -------------------------------------------------------------------
 #t pop=none jul-cc-pvdz guess=read ub97d3 empiricaldispersion=gd3bj
 -------------------------------------------------------------------
 ------------------------------
 theory_abbreviation b97d3_d3bj
 ------------------------------
 Symbolic Z-matrix:
 Charge =  0 Multiplicity = 6
 O                    -0.29285  -0.2084   -0.78052 
 C                    -1.16227  -1.13473  -0.62999 
 C                    -2.9022   -0.20119   0.44873 
 C                    -2.51282   0.97375  -0.12152 
 C                    -2.96549   1.38363  -1.48898 
 Fe                    1.43634   0.12256   0.00298 
 Cl                    2.04607   2.04625  -0.83638 
 C                    -1.61327   1.95629   0.55336 
 Cl                    2.61229  -1.61418  -0.63597 
 Cl                    1.17145   0.17571   2.19565 
 H                    -3.65186  -0.78137  -0.08611 
 H                    -2.19352   2.85859   0.79244 
 H                    -1.16403   1.58621   1.47338 
 H                    -0.81316   2.272    -0.12623 
 H                    -3.41478   2.38333  -1.4361 
 H                    -2.10236   1.46917  -2.16216 
 H                    -3.70144   0.70082  -1.91911 
 C                    -2.78266  -0.5063    1.92358 
 H                    -3.56622   0.03316   2.47113 
 H                    -2.9275   -1.57038   2.12449 
 H                    -1.82103  -0.20871   2.34775 
 C                    -0.91092  -2.21031   0.39485 
 H                    -1.7791   -2.85318   0.54656 
 H                    -0.0965   -2.81907  -0.02394 
 H                    -0.55821  -1.80781   1.34351 
 C                    -1.86865  -1.58623  -1.88647 
 H                    -1.15522  -2.24733  -2.39751 
 H                    -2.774    -2.1597   -1.68058 
 H                    -2.08037  -0.75684  -2.5583 
 
                    Distance matrix (angstroms):
                    1          2          3          4          5
     1  O    0.000000
     2  C    1.279313   0.000000
     3  C    2.884407   2.250000   0.000000
     4  C    2.600002   2.555037   1.362821   0.000000
     5  C    3.190528   3.214279   2.504067   1.497612   0.000000
     6  Fe   1.927046   2.955371   4.373382   4.041774   4.815848
     7  Cl   3.249166   4.522682   5.584608   4.737592   5.097129
     8  C    2.865060   3.340373   2.515351   1.493332   2.515468
     9  Cl   3.230628   3.804890   5.795058   5.764442   6.389533
    10  Cl   3.339053   3.892012   4.448417   4.424931   5.670082
    11  H    3.477559   2.572687   1.088410   2.092624   2.669519
    12  H    3.936129   4.362724   3.159523   2.118938   2.824238
    13  H    3.009915   3.439137   2.695537   2.176707   3.473018
    14  H    2.617476   3.461425   3.288057   2.138767   2.697929
    15  H    4.110145   4.254452   3.239608   2.128043   1.097297
    16  H    2.827981   3.164108   3.201029   2.139656   1.097951
    17  H    3.706957   3.387983   2.656892   2.172241   1.092183
    18  C    3.687820   3.088901   1.510817   2.538858   3.905228
    19  H    4.620227   4.093887   2.141483   2.952322   4.226948
    20  H    4.151557   3.300453   2.164136   3.418934   4.667410
    21  H    3.481571   3.187223   2.185235   2.823840   4.308802
    22  C    2.402323   1.506767   2.829253   3.601523   4.548236
    23  H    3.311334   2.172053   2.881659   3.953483   4.847828
    24  H    2.725172   2.083305   3.866353   4.498178   5.295291
    25  H    2.672080   2.170856   2.979287   3.701877   4.899310
    26  C    2.367424   1.510484   2.905120   3.175448   3.190782
    27  H    2.741462   2.088555   3.916599   4.171161   4.157693
    28  H    3.282349   2.179904   2.895890   3.509614   3.553668
    29  H    2.580029   2.168893   3.166447   3.019905   2.551171
                    6          7          8          9         10
     6  Fe   0.000000
     7  Cl   2.185601   0.000000
     8  C    3.600778   3.915382   0.000000
     9  Cl   2.192573   3.709383   5.658451   0.000000
    10  Cl   2.209251   3.668382   3.690830   3.646613   0.000000
    11  H    5.168635   6.405049   3.472677   6.343139   5.420949
    12  H    4.613565   4.613790   1.099088   6.718764   4.526567
    13  H    3.326602   3.981376   1.088675   5.380744   2.822347
    14  H    3.114011   2.954740   1.096213   5.205379   3.704622
    15  H    5.542154   5.504020   2.717678   7.276394   6.252738
    16  H    4.361604   4.393198   2.801881   5.836454   5.601907
    17  H    5.515942   6.001363   3.471278   6.846079   6.399378
    18  C    4.678048   6.119596   3.051116   6.073228   4.021707
    19  H    5.579013   6.818350   3.345187   7.109271   4.747812
    20  H    5.139065   6.825183   4.078361   6.189610   4.455931
    21  H    4.027173   5.493440   2.819609   5.525591   3.020899
    22  C    3.332492   5.327100   4.228352   3.718996   3.643114
    23  H    4.414699   6.367793   4.812325   4.713571   4.538658
    24  H    3.317152   5.377910   5.043598   3.027180   3.937384
    25  H    3.082465   5.136918   3.988222   3.742707   2.766270
    26  C    4.172883   5.442663   4.308988   4.652239   5.386125
    27  H    4.253814   5.578549   5.156341   4.206898   5.690488
    28  H    5.076424   6.452577   4.824846   5.513700   6.003824
    29  H    4.438558   5.277295   4.154714   5.143100   5.834728
                   11         12         13         14         15
    11  H    0.000000
    12  H    4.018437   0.000000
    13  H    3.771824   1.772701   0.000000
    14  H    4.169272   1.758812   1.775434   0.000000
    15  H    3.448765   2.585300   3.763825   2.914893   0.000000
    16  H    3.431595   3.266264   3.756502   2.539999   1.756507
    17  H    2.357804   3.779197   4.327974   3.745023   1.773787
    18  C    2.206809   3.598473   2.683507   3.974868   4.476272
    19  H    2.685191   3.561645   3.029515   4.397498   4.562093
    20  H    2.456410   4.682820   3.673936   4.929507   5.342943
    21  H    3.098951   3.459192   2.101875   3.645580   4.855535
    22  C    3.128246   5.243745   3.954851   4.513557   5.542854
    23  H    2.863542   5.732051   4.576616   5.258623   5.833299
    24  H    4.098374   6.107351   4.773682   5.142280   6.330098
    25  H    3.559216   4.975255   3.450108   4.343960   5.783760
    26  C    2.658749   5.199852   4.674335   4.370173   4.283774
    27  H    3.704709   6.109360   5.447925   5.069527   5.241467
    28  H    2.283155   5.624590   5.154735   5.089290   4.594506
    29  H    2.929491   4.930676   4.752260   4.085909   3.591742
                   16         17         18         19         20
    16  H    0.000000
    17  H    1.790667   0.000000
    18  C    4.588961   4.131294   0.000000
    19  H    5.066794   4.442781   1.097634   0.000000
    20  H    5.319310   4.701915   1.092525   1.760531   0.000000
    21  H    4.820132   4.750712   1.092340   1.766188   1.768695
    22  C    4.636417   4.649306   2.957039   4.049042   2.732722
    23  H    5.111194   4.733474   2.900195   3.902398   2.335432
    24  H    5.194651   5.383014   4.044403   5.138053   3.766904
    25  H    5.041098   5.178587   2.641700   3.702544   2.505962
    26  C    3.076693   2.930995   4.064253   4.949027   4.148399
    27  H    3.842503   3.924752   4.934733   5.892136   4.903848
    28  H    3.721787   3.016553   3.965325   4.761616   3.853494
    29  H    2.261083   2.271818   4.543484   5.303493   4.827835
                   21         22         23         24         25
    21  H    0.000000
    22  C    2.940837   0.000000
    23  H    3.199879   1.090884   0.000000
    24  H    3.925924   1.099661   1.777019   0.000000
    25  H    2.271636   1.089204   1.794012   1.762310   0.000000
    26  C    4.452911   2.551694   2.744600   2.851217   3.492721
    27  H    5.207374   2.803268   3.069827   2.661125   3.813764
    28  H    4.576238   2.789449   2.535921   3.216867   3.765455
    29  H    4.943380   3.493035   3.758401   3.822504   4.318058
                   26         27         28         29
    26  C    0.000000
    27  H    1.098732   0.000000
    28  H    1.091295   1.772604   0.000000
    29  H    1.088149   1.761633   1.794308   0.000000
 Framework group  C1[X(C8H16Cl3FeO)]
 Deg. of freedom    81
                         Standard orientation:                         
 ---------------------------------------------------------------------
 Center     Atomic      Atomic             Coordinates (Angstroms)
 Number     Number       Type             X           Y           Z
 ---------------------------------------------------------------------
      1          8           0       -0.292850   -0.208395   -0.780516
      2          6           0       -1.162269   -1.134729   -0.629992
      3          6           0       -2.902200   -0.201188    0.448730
      4          6           0       -2.512822    0.973749   -0.121523
      5          6           0       -2.965493    1.383627   -1.488977
      6         26           0        1.436344    0.122561    0.002979
      7         17           0        2.046071    2.046247   -0.836377
      8          6           0       -1.613268    1.956287    0.553357
      9         17           0        2.612287   -1.614184   -0.635967
     10         17           0        1.171452    0.175714    2.195648
     11          1           0       -3.651855   -0.781365   -0.086105
     12          1           0       -2.193518    2.858586    0.792442
     13          1           0       -1.164030    1.586207    1.473378
     14          1           0       -0.813162    2.272001   -0.126229
     15          1           0       -3.414784    2.383328   -1.436103
     16          1           0       -2.102358    1.469166   -2.162162
     17          1           0       -3.701437    0.700815   -1.919114
     18          6           0       -2.782655   -0.506299    1.923581
     19          1           0       -3.566217    0.033163    2.471132
     20          1           0       -2.927501   -1.570379    2.124487
     21          1           0       -1.821025   -0.208708    2.347745
     22          6           0       -0.910920   -2.210311    0.394846
     23          1           0       -1.779100   -2.853175    0.546561
     24          1           0       -0.096496   -2.819067   -0.023944
     25          1           0       -0.558210   -1.807811    1.343505
     26          6           0       -1.868649   -1.586225   -1.886472
     27          1           0       -1.155216   -2.247333   -2.397511
     28          1           0       -2.773999   -2.159701   -1.680582
     29          1           0       -2.080373   -0.756836   -2.558302
 ---------------------------------------------------------------------
 Rotational constants (GHZ):           0.5769189           0.3369157           0.3168238
   427 basis functions,  1056 primitive gaussians,   461 cartesian basis functions
    77 alpha electrons       72 beta electrons
       nuclear repulsion energy      1643.8725986423 Hartrees.
 NAtoms=   29 NActive=   29 NUniq=   29 SFac= 1.00D+00 NAtFMM=   60 NAOKFM=F Big=F
 Nuclear repulsion after empirical dispersion term =     1643.7692310196 Hartrees.
 Initial guess from the checkpoint file:  "checkpoint.chk"
 B after Tr=     0.000000    0.000000    0.000000
         Rot=    1.000000    0.000000    0.000000    0.000000 Ang=   0.00 deg.
 Initial guess <Sx>= 0.0000 <Sy>= 0.0000 <Sz>= 2.5000 <S**2>= 8.7615 S= 2.5019
 SCF Done:  E(UB97D3) =  -3034.62522091     A.U. after   16 cycles
            NFock= 16  Conv=0.79D-08     -V/T= 2.0019
 <Sx>= 0.0000 <Sy>= 0.0000 <Sz>= 2.5000 <S**2>= 8.7595 S= 2.5016
 <L.S>= 0.000000000000E+00
 Annihilation of the first spin contaminant:
 S**2 before annihilation     8.7595,   after     8.7500
 1\1\GINC-HOLY7C16202\SP\UB97D3\Jul-CC-pVDZ\C8H16Cl3Fe1O1(6)\EKWAN\12-F
 eb-2020\0\\#t pop=none jul-cc-pvdz guess=read ub97d3 empiricaldispersi
 on=gd3bj\\theory_abbreviation b97d3_d3bj\\0,6\O,0,-0.29285,-0.208395,-
 0.780516\C,0,-1.162269,-1.134729,-0.629992\C,0,-2.9022,-0.201188,0.448
 73\C,0,-2.512822,0.973749,-0.121523\C,0,-2.965493,1.383627,-1.488977\F
 e,0,1.436344,0.122561,0.002979\Cl,0,2.046071,2.046247,-0.836377\C,0,-1
 .613268,1.956287,0.553357\Cl,0,2.612287,-1.614184,-0.635967\Cl,0,1.171
 452,0.175714,2.195648\H,0,-3.651855,-0.781365,-0.086105\H,0,-2.193518,
 2.858586,0.792442\H,0,-1.16403,1.586207,1.473378\H,0,-0.813162,2.27200
 1,-0.126229\H,0,-3.414784,2.383328,-1.436103\H,0,-2.102358,1.469166,-2
 .162162\H,0,-3.701437,0.700815,-1.919114\C,0,-2.782655,-0.506299,1.923
 581\H,0,-3.566217,0.033163,2.471132\H,0,-2.927501,-1.570379,2.124487\H
 ,0,-1.821025,-0.208708,2.347745\C,0,-0.91092,-2.210311,0.394846\H,0,-1
 .7791,-2.853175,0.546561\H,0,-0.096496,-2.819067,-0.023944\H,0,-0.5582
 1,-1.807811,1.343505\C,0,-1.868649,-1.586225,-1.886472\H,0,-1.155216,-
 2.247333,-2.397511\H,0,-2.773999,-2.159701,-1.680582\H,0,-2.080373,-0.
 756836,-2.558302\\Version=ES64L-G16RevA.03\HF=-3034.6252209\S2=8.75954
 3\S2-1=0.\S2A=8.750029\RMSD=7.882e-09\PG=C01 [X(C8H16Cl3Fe1O1)]\\@


 Change starts when someone sees the next step.
                            -- William Drayton
 Job cpu time:       0 days  0 hours 50 minutes 46.7 seconds.
 Elapsed time:       0 days  0 hours 13 minutes  5.9 seconds.
 File lengths (MBytes):  RWF=    174 Int=      0 D2E=      0 Chk=     13 Scr=      1
 Normal termination of Gaussian 16 at Wed Feb 12 09:13:08 2020.
