 Entering Gaussian System, Link 0=g16
 Input=simple-grid-185-245-b3lyp_d3bj-631gd-gas-singlepoint-DFT-juldz2-gas.gjf
 Output=simple-grid-185-245-b3lyp_d3bj-631gd-gas-singlepoint-DFT-juldz2-gas.out
 Initial command:
 /n/sw/g16_nehalem/g16/l1.exe "/scratch/Gau-290208.inp" -scrdir="/scratch/"
 Entering Link 1 = /n/sw/g16_nehalem/g16/l1.exe PID=    290210.
  
 Copyright (c) 1988,1990,1992,1993,1995,1998,2003,2009,2016,
            Gaussian, Inc.  All Rights Reserved.
  
 This is part of the Gaussian(R) 16 program.  It is based on
 the Gaussian(R) 09 system (copyright 2009, Gaussian, Inc.),
 the Gaussian(R) 03 system (copyright 2003, Gaussian, Inc.),
 the Gaussian(R) 98 system (copyright 1998, Gaussian, Inc.),
 the Gaussian(R) 94 system (copyright 1995, Gaussian, Inc.),
 the Gaussian 92(TM) system (copyright 1992, Gaussian, Inc.),
 the Gaussian 90(TM) system (copyright 1990, Gaussian, Inc.),
 the Gaussian 88(TM) system (copyright 1988, Gaussian, Inc.),
 the Gaussian 86(TM) system (copyright 1986, Carnegie Mellon
 University), and the Gaussian 82(TM) system (copyright 1983,
 Carnegie Mellon University). Gaussian is a federally registered
 trademark of Gaussian, Inc.
  
 This software contains proprietary and confidential information,
 including trade secrets, belonging to Gaussian, Inc.
  
 This software is provided under written license and may be
 used, copied, transmitted, or stored only in accord with that
 written license.
  
 The following legend is applicable only to US Government
 contracts under FAR:
  
                    RESTRICTED RIGHTS LEGEND
  
 Use, reproduction and disclosure by the US Government is
 subject to restrictions as set forth in subparagraphs (a)
 and (c) of the Commercial Computer Software - Restricted
 Rights clause in FAR 52.227-19.
  
 Gaussian, Inc.
 340 Quinnipiac St., Bldg. 40, Wallingford CT 06492
  
  
 ---------------------------------------------------------------
 Warning -- This program may not be used in any manner that
 competes with the business of Gaussian, Inc. or will provide
 assistance to any competitor of Gaussian, Inc.  The licensee
 of this program is prohibited from giving any competitor of
 Gaussian, Inc. access to this program.  By using this program,
 the user acknowledges that Gaussian, Inc. is engaged in the
 business of creating and licensing software in the field of
 computational chemistry and represents and warrants to the
 licensee that it is not a competitor of Gaussian, Inc. and that
 it will not use this program in any manner prohibited above.
 ---------------------------------------------------------------
  

 Cite this work as:
 Gaussian 16, Revision A.03,
 M. J. Frisch, G. W. Trucks, H. B. Schlegel, G. E. Scuseria, 
 M. A. Robb, J. R. Cheeseman, G. Scalmani, V. Barone, 
 G. A. Petersson, H. Nakatsuji, X. Li, M. Caricato, A. V. Marenich, 
 J. Bloino, B. G. Janesko, R. Gomperts, B. Mennucci, H. P. Hratchian, 
 J. V. Ortiz, A. F. Izmaylov, J. L. Sonnenberg, D. Williams-Young, 
 F. Ding, F. Lipparini, F. Egidi, J. Goings, B. Peng, A. Petrone, 
 T. Henderson, D. Ranasinghe, V. G. Zakrzewski, J. Gao, N. Rega, 
 G. Zheng, W. Liang, M. Hada, M. Ehara, K. Toyota, R. Fukuda, 
 J. Hasegawa, M. Ishida, T. Nakajima, Y. Honda, O. Kitao, H. Nakai, 
 T. Vreven, K. Throssell, J. A. Montgomery, Jr., J. E. Peralta, 
 F. Ogliaro, M. J. Bearpark, J. J. Heyd, E. N. Brothers, K. N. Kudin, 
 V. N. Staroverov, T. A. Keith, R. Kobayashi, J. Normand, 
 K. Raghavachari, A. P. Rendell, J. C. Burant, S. S. Iyengar, 
 J. Tomasi, M. Cossi, J. M. Millam, M. Klene, C. Adamo, R. Cammi, 
 J. W. Ochterski, R. L. Martin, K. Morokuma, O. Farkas, 
 J. B. Foresman, and D. J. Fox, Gaussian, Inc., Wallingford CT, 2016.
 
 ******************************************
 Gaussian 16:  ES64L-G16RevA.03 25-Dec-2016
                11-Feb-2020 
 ******************************************
 %chk=checkpoint.chk
 %mem=3GB
 %nprocshared=4
 Will use up to    4 processors via shared memory.
 --------------------------------
 #t pop=none jul-cc-pvdz upbe1pbe
 --------------------------------
 ------------------------
 theory_abbreviation pbe0
 ------------------------
 Symbolic Z-matrix:
 Charge =  0 Multiplicity = 6
 O                    -0.32721  -0.18037  -0.69742 
 C                    -1.28831  -1.10493  -0.54092 
 C                    -2.71733  -0.30713   0.32159 
 C                    -2.39885   0.99336  -0.12028 
 C                    -2.80962   1.49643  -1.45346 
 Fe                    1.38558   0.10519  -0.019 
 Cl                    1.87435   2.13036  -0.74939 
 C                    -1.59359   1.92381   0.69838 
 Cl                    2.6697   -1.52762  -0.73846 
 Cl                    1.17164   0.07359   2.20717 
 H                    -3.55483  -0.75674  -0.21141 
 H                    -2.31439   2.57364   1.22429 
 H                    -0.98685   1.42756   1.45491 
 H                    -0.96171   2.56535   0.0776 
 H                    -3.15714   2.53279  -1.36407 
 H                    -1.90622   1.53277  -2.07989 
 H                    -3.57511   0.88985  -1.93806 
 C                    -2.72648  -0.59571   1.81727 
 H                    -3.50521   0.00094   2.30619 
 H                    -2.95516  -1.64748   1.9994 
 H                    -1.77225  -0.36962   2.29729 
 C                    -0.90657  -2.27981   0.34873 
 H                    -1.7294   -2.9875    0.47845 
 H                    -0.08533  -2.79075  -0.16952 
 H                    -0.53014  -1.95832   1.31943 
 C                    -1.84238  -1.5746   -1.88315 
 H                    -1.02682  -2.10708  -2.38499 
 H                    -2.68678  -2.25958  -1.76491 
 H                    -2.12818  -0.74401  -2.52893 
 
                    Distance matrix (angstroms):
                    1          2          3          4          5
     1  O    0.000000
     2  C    1.342769   0.000000
     3  C    2.601372   1.850001   0.000000
     4  C    2.449993   2.411035   1.409949   0.000000
     5  C    3.089598   3.148680   2.532221   1.482961   0.000000
     6  Fe   1.864257   2.981025   4.137621   3.888583   4.646821
     7  Cl   3.192033   4.529135   5.307723   4.466413   4.778826
     8  C    2.824811   3.286690   2.526232   1.477965   2.508344
     9  Cl   3.286062   3.985416   5.624355   5.694533   6.299126
    10  Cl   3.278374   3.871994   4.338721   4.360214   5.592418
    11  H    3.314504   2.316660   1.089786   2.099388   2.678580
    12  H    3.902110   4.207222   3.045665   2.076602   2.928473
    13  H    2.766424   3.238479   2.699657   2.159515   3.433049
    14  H    2.922709   3.736335   3.375330   2.139082   2.627069
    15  H    3.976698   4.171698   3.331664   2.119391   1.096719
    16  H    2.709121   3.115717   3.132126   2.091344   1.099937
    17  H    3.637781   3.340753   2.697143   2.167633   1.090302
    18  C    3.500384   2.808682   1.523294   2.527170   3.883507
    19  H    4.376552   3.774067   2.157378   2.845462   4.105517
    20  H    4.041214   3.086419   2.160592   3.431701   4.672001
    21  H    3.330502   2.971583   2.191001   2.845172   4.315832
    22  C    2.416143   1.522348   2.677885   3.627749   4.596682
    23  H    3.350939   2.185804   2.860945   4.080923   5.000479
    24  H    2.674183   2.104064   3.651984   4.435575   5.239289
    25  H    2.696284   2.182656   2.916491   3.778528   4.981988
    26  C    2.376039   1.526159   2.689407   3.164146   3.248293
    27  H    2.655097   2.115012   3.663774   4.077273   4.126914
    28  H    3.321176   2.187937   2.857708   3.656416   3.770905
    29  H    2.629755   2.188113   2.943374   2.982173   2.576932
                    6          7          8          9         10
     6  Fe   0.000000
     7  Cl   2.207646   0.000000
     8  C    3.563354   3.763684   0.000000
     9  Cl   2.198320   3.743461   5.670313   0.000000
    10  Cl   2.236654   3.669516   3.653254   3.672162   0.000000
    11  H    5.018725   6.172583   3.443760   6.294186   5.373874
    12  H    4.618318   4.651609   1.103820   6.746394   4.400996
    13  H    3.090228   3.679578   1.089370   5.187894   2.656731
    14  H    3.401692   2.986031   1.093713   5.532217   3.910896
    15  H    5.323413   5.084846   2.658800   7.129533   6.126966
    16  H    4.137780   4.052175   2.823020   5.666076   5.475524
    17  H    5.376523   5.713887   3.456346   6.803005   6.354601
    18  C    4.557654   5.931852   2.980490   6.043089   3.974338
    19  H    5.416381   6.542983   3.152260   7.052359   4.678461
    20  H    5.097830   6.719536   4.037404   6.256941   4.476137
    21  H    3.944937   5.369342   2.801473   5.503414   2.978430
    22  C    3.328276   5.328139   4.273721   3.812804   3.648470
    23  H    4.417612   6.378649   4.918106   4.792098   4.557943
    24  H    3.251566   5.328597   5.025450   3.083727   3.928500
    25  H    3.117598   5.174830   4.072778   3.828750   2.795141
    26  C    4.088578   5.369009   4.354889   4.655252   5.341501
    27  H    4.038774   5.389611   5.106512   4.087918   5.538641
    28  H    5.022395   6.411461   4.976306   5.502837   6.009042
    29  H    4.400842   5.239186   4.221208   5.180682   5.829924
                   11         12         13         14         15
    11  H    0.000000
    12  H    3.832926   0.000000
    13  H    3.760625   1.768915   0.000000
    14  H    4.224218   1.773330   1.786658   0.000000
    15  H    3.508239   2.722398   3.725356   2.626663   0.000000
    16  H    3.383925   3.488211   3.653917   2.571596   1.754204
    17  H    2.386002   3.798028   4.301220   3.701358   1.789806
    18  C    2.197185   3.250576   2.692818   4.016607   4.482616
    19  H    2.629603   3.034362   3.016963   4.244071   4.472377
    20  H    2.457783   4.339270   3.691427   5.041336   5.369201
    21  H    3.101777   3.179319   2.134558   3.768026   4.873132
    22  C    3.105927   5.128802   3.869720   4.853054   5.582098
    23  H    2.963850   5.641349   4.582320   5.619978   5.992234
    24  H    4.021988   5.973954   4.609301   5.432944   6.261227
    25  H    3.596667   4.871477   3.419229   4.710830   5.854252
    26  C    2.529056   5.204507   4.570291   4.664685   4.343806
    27  H    3.597048   6.049289   5.219206   5.282061   5.206621
    28  H    2.329257   5.695090   5.181896   5.445242   4.832051
    29  H    2.721476   5.012800   4.678606   4.371101   3.626715
                   16         17         18         19         20
    16  H    0.000000
    17  H    1.794059   0.000000
    18  C    4.515649   4.126693   0.000000
    19  H    4.913340   4.336900   1.096103   0.000000
    20  H    5.277770   4.725041   1.091644   1.764637   0.000000
    21  H    4.774592   4.772296   1.091832   1.772158   1.766621
    22  C    4.629605   4.732579   2.881822   3.973209   2.705792
    23  H    5.197036   4.927481   2.916723   3.927452   2.368850
    24  H    5.065366   5.371514   3.967520   5.061443   3.774552
    25  H    5.063262   5.291048   2.632199   3.696406   2.537665
    26  C    3.114239   3.013123   3.928485   4.774714   4.039535
    27  H    3.756980   3.959188   4.778296   5.709056   4.811723
    28  H    3.884633   3.276899   3.949947   4.727963   3.823187
    29  H    2.331224   2.261031   4.389699   5.082279   4.691055
                   21         22         23         24         25
    21  H    0.000000
    22  C    2.862712   0.000000
    23  H    3.187993   1.093022   0.000000
    24  H    3.846127   1.097303   1.778074   0.000000
    25  H    2.241205   1.089643   1.790166   1.762884   0.000000
    26  C    4.351206   2.520784   2.754312   2.739120   3.482203
    27  H    5.049573   2.741809   3.077024   2.502422   3.740527
    28  H    4.572723   2.763514   2.545410   3.097570   3.775580
    29  H    4.853792   3.483095   3.773148   3.732185   4.340295
                   26         27         28         29
    26  C    0.000000
    27  H    1.095682   0.000000
    28  H    1.093707   1.778548   0.000000
    29  H    1.090226   1.758316   1.786820   0.000000
 Framework group  C1[X(C8H16Cl3FeO)]
 Deg. of freedom    81
                         Standard orientation:                         
 ---------------------------------------------------------------------
 Center     Atomic      Atomic             Coordinates (Angstroms)
 Number     Number       Type             X           Y           Z
 ---------------------------------------------------------------------
      1          8           0       -0.327209   -0.180372   -0.697422
      2          6           0       -1.288314   -1.104933   -0.540920
      3          6           0       -2.717331   -0.307129    0.321590
      4          6           0       -2.398854    0.993364   -0.120278
      5          6           0       -2.809618    1.496431   -1.453458
      6         26           0        1.385583    0.105186   -0.019001
      7         17           0        1.874354    2.130363   -0.749385
      8          6           0       -1.593589    1.923808    0.698381
      9         17           0        2.669698   -1.527616   -0.738456
     10         17           0        1.171644    0.073593    2.207174
     11          1           0       -3.554829   -0.756735   -0.211406
     12          1           0       -2.314391    2.573644    1.224287
     13          1           0       -0.986846    1.427564    1.454907
     14          1           0       -0.961710    2.565347    0.077603
     15          1           0       -3.157135    2.532787   -1.364065
     16          1           0       -1.906222    1.532765   -2.079890
     17          1           0       -3.575113    0.889854   -1.938061
     18          6           0       -2.726480   -0.595709    1.817271
     19          1           0       -3.505205    0.000940    2.306188
     20          1           0       -2.955164   -1.647478    1.999403
     21          1           0       -1.772245   -0.369622    2.297290
     22          6           0       -0.906572   -2.279814    0.348727
     23          1           0       -1.729401   -2.987501    0.478451
     24          1           0       -0.085330   -2.790749   -0.169520
     25          1           0       -0.530137   -1.958317    1.319427
     26          6           0       -1.842378   -1.574598   -1.883153
     27          1           0       -1.026816   -2.107078   -2.384992
     28          1           0       -2.686778   -2.259582   -1.764911
     29          1           0       -2.128178   -0.744009   -2.528934
 ---------------------------------------------------------------------
 Rotational constants (GHZ):           0.5752797           0.3522415           0.3263463
   427 basis functions,  1056 primitive gaussians,   461 cartesian basis functions
    77 alpha electrons       72 beta electrons
       nuclear repulsion energy      1657.7584907745 Hartrees.
 NAtoms=   29 NActive=   29 NUniq=   29 SFac= 1.00D+00 NAtFMM=   60 NAOKFM=F Big=F
 ExpMin= 1.40D-02 ExpMax= 4.32D+06 ExpMxC= 4.91D+03 IAcc=3 IRadAn=         5 AccDes= 0.00D+00
 Harris functional with IExCor= 1009 and IRadAn=       5 diagonalized for initial guess.
 HarFok:  IExCor= 1009 AccDes= 0.00D+00 IRadAn=         5 IDoV= 1 UseB2=F ITyADJ=14
 ICtDFT=  3500011 ScaDFX=  1.000000  1.000000  1.000000  1.000000
 FoFCou: FMM=F IPFlag=           0 FMFlag=      100000 FMFlg1=           0
         NFxFlg=           0 DoJE=T BraDBF=F KetDBF=T FulRan=T
         wScrn=  0.000000 ICntrl=       500 IOpCl=  0 I1Cent=   200000004 NGrid=           0
         NMat0=    1 NMatS0=      1 NMatT0=    0 NMatD0=    1 NMtDS0=    0 NMtDT0=    0
 Petite list used in FoFCou.
 Initial guess <Sx>= 0.0000 <Sy>= 0.0000 <Sz>= 2.5000 <S**2>= 8.7500 S= 2.5000
 EnCoef did   100 forward-backward iterations
 Restarting incremental Fock formation.
 SCF Done:  E(UPBE1PBE) =  -3033.10554013     A.U. after   21 cycles
            NFock= 21  Conv=0.73D-08     -V/T= 2.0021
 <Sx>= 0.0000 <Sy>= 0.0000 <Sz>= 2.5000 <S**2>= 8.7620 S= 2.5020
 <L.S>= 0.000000000000E+00
 Annihilation of the first spin contaminant:
 S**2 before annihilation     8.7620,   after     8.7500
 1\1\GINC-HOLY7C06507\SP\UPBE1PBE\Jul-CC-pVDZ\C8H16Cl3Fe1O1(6)\EKWAN\11
 -Feb-2020\0\\#t pop=none jul-cc-pvdz upbe1pbe\\theory_abbreviation pbe
 0\\0,6\O,0,-0.327209,-0.180372,-0.697422\C,0,-1.288314,-1.104933,-0.54
 092\C,0,-2.717331,-0.307129,0.32159\C,0,-2.398854,0.993364,-0.120278\C
 ,0,-2.809618,1.496431,-1.453458\Fe,0,1.385583,0.105186,-0.019001\Cl,0,
 1.874354,2.130363,-0.749385\C,0,-1.593589,1.923808,0.698381\Cl,0,2.669
 698,-1.527616,-0.738456\Cl,0,1.171644,0.073593,2.207174\H,0,-3.554829,
 -0.756735,-0.211406\H,0,-2.314391,2.573644,1.224287\H,0,-0.986846,1.42
 7564,1.454907\H,0,-0.96171,2.565347,0.077603\H,0,-3.157135,2.532787,-1
 .364065\H,0,-1.906222,1.532765,-2.07989\H,0,-3.575113,0.889854,-1.9380
 61\C,0,-2.72648,-0.595709,1.817271\H,0,-3.505205,0.00094,2.306188\H,0,
 -2.955164,-1.647478,1.999403\H,0,-1.772245,-0.369622,2.29729\C,0,-0.90
 6572,-2.279814,0.348727\H,0,-1.729401,-2.987501,0.478451\H,0,-0.08533,
 -2.790749,-0.16952\H,0,-0.530137,-1.958317,1.319427\C,0,-1.842378,-1.5
 74598,-1.883153\H,0,-1.026816,-2.107078,-2.384992\H,0,-2.686778,-2.259
 582,-1.764911\H,0,-2.128178,-0.744009,-2.528934\\Version=ES64L-G16RevA
 .03\HF=-3033.1055401\S2=8.76204\S2-1=0.\S2A=8.750045\RMSD=7.344e-09\PG
 =C01 [X(C8H16Cl3Fe1O1)]\\@


 A FOOL CAN ASK MORE QUESTIONS THAN
 A WISE MAN CAN ANSWER.
 Job cpu time:       0 days  1 hours 42 minutes 29.5 seconds.
 Elapsed time:       0 days  0 hours 25 minutes 41.8 seconds.
 File lengths (MBytes):  RWF=    173 Int=      0 D2E=      0 Chk=     13 Scr=      1
 Normal termination of Gaussian 16 at Tue Feb 11 14:49:06 2020.
 Initial command:
 /n/sw/g16_nehalem/g16/l1.exe "/scratch/Gau-290208.inp" -scrdir="/scratch/"
 Entering Link 1 = /n/sw/g16_nehalem/g16/l1.exe PID=    293225.
  
 Copyright (c) 1988,1990,1992,1993,1995,1998,2003,2009,2016,
            Gaussian, Inc.  All Rights Reserved.
  
 This is part of the Gaussian(R) 16 program.  It is based on
 the Gaussian(R) 09 system (copyright 2009, Gaussian, Inc.),
 the Gaussian(R) 03 system (copyright 2003, Gaussian, Inc.),
 the Gaussian(R) 98 system (copyright 1998, Gaussian, Inc.),
 the Gaussian(R) 94 system (copyright 1995, Gaussian, Inc.),
 the Gaussian 92(TM) system (copyright 1992, Gaussian, Inc.),
 the Gaussian 90(TM) system (copyright 1990, Gaussian, Inc.),
 the Gaussian 88(TM) system (copyright 1988, Gaussian, Inc.),
 the Gaussian 86(TM) system (copyright 1986, Carnegie Mellon
 University), and the Gaussian 82(TM) system (copyright 1983,
 Carnegie Mellon University). Gaussian is a federally registered
 trademark of Gaussian, Inc.
  
 This software contains proprietary and confidential information,
 including trade secrets, belonging to Gaussian, Inc.
  
 This software is provided under written license and may be
 used, copied, transmitted, or stored only in accord with that
 written license.
  
 The following legend is applicable only to US Government
 contracts under FAR:
  
                    RESTRICTED RIGHTS LEGEND
  
 Use, reproduction and disclosure by the US Government is
 subject to restrictions as set forth in subparagraphs (a)
 and (c) of the Commercial Computer Software - Restricted
 Rights clause in FAR 52.227-19.
  
 Gaussian, Inc.
 340 Quinnipiac St., Bldg. 40, Wallingford CT 06492
  
  
 ---------------------------------------------------------------
 Warning -- This program may not be used in any manner that
 competes with the business of Gaussian, Inc. or will provide
 assistance to any competitor of Gaussian, Inc.  The licensee
 of this program is prohibited from giving any competitor of
 Gaussian, Inc. access to this program.  By using this program,
 the user acknowledges that Gaussian, Inc. is engaged in the
 business of creating and licensing software in the field of
 computational chemistry and represents and warrants to the
 licensee that it is not a competitor of Gaussian, Inc. and that
 it will not use this program in any manner prohibited above.
 ---------------------------------------------------------------
  

 Cite this work as:
 Gaussian 16, Revision A.03,
 M. J. Frisch, G. W. Trucks, H. B. Schlegel, G. E. Scuseria, 
 M. A. Robb, J. R. Cheeseman, G. Scalmani, V. Barone, 
 G. A. Petersson, H. Nakatsuji, X. Li, M. Caricato, A. V. Marenich, 
 J. Bloino, B. G. Janesko, R. Gomperts, B. Mennucci, H. P. Hratchian, 
 J. V. Ortiz, A. F. Izmaylov, J. L. Sonnenberg, D. Williams-Young, 
 F. Ding, F. Lipparini, F. Egidi, J. Goings, B. Peng, A. Petrone, 
 T. Henderson, D. Ranasinghe, V. G. Zakrzewski, J. Gao, N. Rega, 
 G. Zheng, W. Liang, M. Hada, M. Ehara, K. Toyota, R. Fukuda, 
 J. Hasegawa, M. Ishida, T. Nakajima, Y. Honda, O. Kitao, H. Nakai, 
 T. Vreven, K. Throssell, J. A. Montgomery, Jr., J. E. Peralta, 
 F. Ogliaro, M. J. Bearpark, J. J. Heyd, E. N. Brothers, K. N. Kudin, 
 V. N. Staroverov, T. A. Keith, R. Kobayashi, J. Normand, 
 K. Raghavachari, A. P. Rendell, J. C. Burant, S. S. Iyengar, 
 J. Tomasi, M. Cossi, J. M. Millam, M. Klene, C. Adamo, R. Cammi, 
 J. W. Ochterski, R. L. Martin, K. Morokuma, O. Farkas, 
 J. B. Foresman, and D. J. Fox, Gaussian, Inc., Wallingford CT, 2016.
 
 ******************************************
 Gaussian 16:  ES64L-G16RevA.03 25-Dec-2016
                11-Feb-2020 
 ******************************************
 %chk=checkpoint.chk
 %mem=3GB
 %nprocshared=4
 Will use up to    4 processors via shared memory.
 ---------------------------------------------------------------------
 #t pop=none jul-cc-pvdz guess=read upbe1pbe empiricaldispersion=gd3bj
 ---------------------------------------------------------------------
 -----------------------------
 theory_abbreviation pbe0_d3bj
 -----------------------------
 Symbolic Z-matrix:
 Charge =  0 Multiplicity = 6
 O                    -0.32721  -0.18037  -0.69742 
 C                    -1.28831  -1.10493  -0.54092 
 C                    -2.71733  -0.30713   0.32159 
 C                    -2.39885   0.99336  -0.12028 
 C                    -2.80962   1.49643  -1.45346 
 Fe                    1.38558   0.10519  -0.019 
 Cl                    1.87435   2.13036  -0.74939 
 C                    -1.59359   1.92381   0.69838 
 Cl                    2.6697   -1.52762  -0.73846 
 Cl                    1.17164   0.07359   2.20717 
 H                    -3.55483  -0.75674  -0.21141 
 H                    -2.31439   2.57364   1.22429 
 H                    -0.98685   1.42756   1.45491 
 H                    -0.96171   2.56535   0.0776 
 H                    -3.15714   2.53279  -1.36407 
 H                    -1.90622   1.53277  -2.07989 
 H                    -3.57511   0.88985  -1.93806 
 C                    -2.72648  -0.59571   1.81727 
 H                    -3.50521   0.00094   2.30619 
 H                    -2.95516  -1.64748   1.9994 
 H                    -1.77225  -0.36962   2.29729 
 C                    -0.90657  -2.27981   0.34873 
 H                    -1.7294   -2.9875    0.47845 
 H                    -0.08533  -2.79075  -0.16952 
 H                    -0.53014  -1.95832   1.31943 
 C                    -1.84238  -1.5746   -1.88315 
 H                    -1.02682  -2.10708  -2.38499 
 H                    -2.68678  -2.25958  -1.76491 
 H                    -2.12818  -0.74401  -2.52893 
 
                    Distance matrix (angstroms):
                    1          2          3          4          5
     1  O    0.000000
     2  C    1.342769   0.000000
     3  C    2.601372   1.850001   0.000000
     4  C    2.449993   2.411035   1.409949   0.000000
     5  C    3.089598   3.148680   2.532221   1.482961   0.000000
     6  Fe   1.864257   2.981025   4.137621   3.888583   4.646821
     7  Cl   3.192033   4.529135   5.307723   4.466413   4.778826
     8  C    2.824811   3.286690   2.526232   1.477965   2.508344
     9  Cl   3.286062   3.985416   5.624355   5.694533   6.299126
    10  Cl   3.278374   3.871994   4.338721   4.360214   5.592418
    11  H    3.314504   2.316660   1.089786   2.099388   2.678580
    12  H    3.902110   4.207222   3.045665   2.076602   2.928473
    13  H    2.766424   3.238479   2.699657   2.159515   3.433049
    14  H    2.922709   3.736335   3.375330   2.139082   2.627069
    15  H    3.976698   4.171698   3.331664   2.119391   1.096719
    16  H    2.709121   3.115717   3.132126   2.091344   1.099937
    17  H    3.637781   3.340753   2.697143   2.167633   1.090302
    18  C    3.500384   2.808682   1.523294   2.527170   3.883507
    19  H    4.376552   3.774067   2.157378   2.845462   4.105517
    20  H    4.041214   3.086419   2.160592   3.431701   4.672001
    21  H    3.330502   2.971583   2.191001   2.845172   4.315832
    22  C    2.416143   1.522348   2.677885   3.627749   4.596682
    23  H    3.350939   2.185804   2.860945   4.080923   5.000479
    24  H    2.674183   2.104064   3.651984   4.435575   5.239289
    25  H    2.696284   2.182656   2.916491   3.778528   4.981988
    26  C    2.376039   1.526159   2.689407   3.164146   3.248293
    27  H    2.655097   2.115012   3.663774   4.077273   4.126914
    28  H    3.321176   2.187937   2.857708   3.656416   3.770905
    29  H    2.629755   2.188113   2.943374   2.982173   2.576932
                    6          7          8          9         10
     6  Fe   0.000000
     7  Cl   2.207646   0.000000
     8  C    3.563354   3.763684   0.000000
     9  Cl   2.198320   3.743461   5.670313   0.000000
    10  Cl   2.236654   3.669516   3.653254   3.672162   0.000000
    11  H    5.018725   6.172583   3.443760   6.294186   5.373874
    12  H    4.618318   4.651609   1.103820   6.746394   4.400996
    13  H    3.090228   3.679578   1.089370   5.187894   2.656731
    14  H    3.401692   2.986031   1.093713   5.532217   3.910896
    15  H    5.323413   5.084846   2.658800   7.129533   6.126966
    16  H    4.137780   4.052175   2.823020   5.666076   5.475524
    17  H    5.376523   5.713887   3.456346   6.803005   6.354601
    18  C    4.557654   5.931852   2.980490   6.043089   3.974338
    19  H    5.416381   6.542983   3.152260   7.052359   4.678461
    20  H    5.097830   6.719536   4.037404   6.256941   4.476137
    21  H    3.944937   5.369342   2.801473   5.503414   2.978430
    22  C    3.328276   5.328139   4.273721   3.812804   3.648470
    23  H    4.417612   6.378649   4.918106   4.792098   4.557943
    24  H    3.251566   5.328597   5.025450   3.083727   3.928500
    25  H    3.117598   5.174830   4.072778   3.828750   2.795141
    26  C    4.088578   5.369009   4.354889   4.655252   5.341501
    27  H    4.038774   5.389611   5.106512   4.087918   5.538641
    28  H    5.022395   6.411461   4.976306   5.502837   6.009042
    29  H    4.400842   5.239186   4.221208   5.180682   5.829924
                   11         12         13         14         15
    11  H    0.000000
    12  H    3.832926   0.000000
    13  H    3.760625   1.768915   0.000000
    14  H    4.224218   1.773330   1.786658   0.000000
    15  H    3.508239   2.722398   3.725356   2.626663   0.000000
    16  H    3.383925   3.488211   3.653917   2.571596   1.754204
    17  H    2.386002   3.798028   4.301220   3.701358   1.789806
    18  C    2.197185   3.250576   2.692818   4.016607   4.482616
    19  H    2.629603   3.034362   3.016963   4.244071   4.472377
    20  H    2.457783   4.339270   3.691427   5.041336   5.369201
    21  H    3.101777   3.179319   2.134558   3.768026   4.873132
    22  C    3.105927   5.128802   3.869720   4.853054   5.582098
    23  H    2.963850   5.641349   4.582320   5.619978   5.992234
    24  H    4.021988   5.973954   4.609301   5.432944   6.261227
    25  H    3.596667   4.871477   3.419229   4.710830   5.854252
    26  C    2.529056   5.204507   4.570291   4.664685   4.343806
    27  H    3.597048   6.049289   5.219206   5.282061   5.206621
    28  H    2.329257   5.695090   5.181896   5.445242   4.832051
    29  H    2.721476   5.012800   4.678606   4.371101   3.626715
                   16         17         18         19         20
    16  H    0.000000
    17  H    1.794059   0.000000
    18  C    4.515649   4.126693   0.000000
    19  H    4.913340   4.336900   1.096103   0.000000
    20  H    5.277770   4.725041   1.091644   1.764637   0.000000
    21  H    4.774592   4.772296   1.091832   1.772158   1.766621
    22  C    4.629605   4.732579   2.881822   3.973209   2.705792
    23  H    5.197036   4.927481   2.916723   3.927452   2.368850
    24  H    5.065366   5.371514   3.967520   5.061443   3.774552
    25  H    5.063262   5.291048   2.632199   3.696406   2.537665
    26  C    3.114239   3.013123   3.928485   4.774714   4.039535
    27  H    3.756980   3.959188   4.778296   5.709056   4.811723
    28  H    3.884633   3.276899   3.949947   4.727963   3.823187
    29  H    2.331224   2.261031   4.389699   5.082279   4.691055
                   21         22         23         24         25
    21  H    0.000000
    22  C    2.862712   0.000000
    23  H    3.187993   1.093022   0.000000
    24  H    3.846127   1.097303   1.778074   0.000000
    25  H    2.241205   1.089643   1.790166   1.762884   0.000000
    26  C    4.351206   2.520784   2.754312   2.739120   3.482203
    27  H    5.049573   2.741809   3.077024   2.502422   3.740527
    28  H    4.572723   2.763514   2.545410   3.097570   3.775580
    29  H    4.853792   3.483095   3.773148   3.732185   4.340295
                   26         27         28         29
    26  C    0.000000
    27  H    1.095682   0.000000
    28  H    1.093707   1.778548   0.000000
    29  H    1.090226   1.758316   1.786820   0.000000
 Framework group  C1[X(C8H16Cl3FeO)]
 Deg. of freedom    81
                         Standard orientation:                         
 ---------------------------------------------------------------------
 Center     Atomic      Atomic             Coordinates (Angstroms)
 Number     Number       Type             X           Y           Z
 ---------------------------------------------------------------------
      1          8           0       -0.327209   -0.180372   -0.697422
      2          6           0       -1.288314   -1.104933   -0.540920
      3          6           0       -2.717331   -0.307129    0.321590
      4          6           0       -2.398854    0.993364   -0.120278
      5          6           0       -2.809618    1.496431   -1.453458
      6         26           0        1.385583    0.105186   -0.019001
      7         17           0        1.874354    2.130363   -0.749385
      8          6           0       -1.593589    1.923808    0.698381
      9         17           0        2.669698   -1.527616   -0.738456
     10         17           0        1.171644    0.073593    2.207174
     11          1           0       -3.554829   -0.756735   -0.211406
     12          1           0       -2.314391    2.573644    1.224287
     13          1           0       -0.986846    1.427564    1.454907
     14          1           0       -0.961710    2.565347    0.077603
     15          1           0       -3.157135    2.532787   -1.364065
     16          1           0       -1.906222    1.532765   -2.079890
     17          1           0       -3.575113    0.889854   -1.938061
     18          6           0       -2.726480   -0.595709    1.817271
     19          1           0       -3.505205    0.000940    2.306188
     20          1           0       -2.955164   -1.647478    1.999403
     21          1           0       -1.772245   -0.369622    2.297290
     22          6           0       -0.906572   -2.279814    0.348727
     23          1           0       -1.729401   -2.987501    0.478451
     24          1           0       -0.085330   -2.790749   -0.169520
     25          1           0       -0.530137   -1.958317    1.319427
     26          6           0       -1.842378   -1.574598   -1.883153
     27          1           0       -1.026816   -2.107078   -2.384992
     28          1           0       -2.686778   -2.259582   -1.764911
     29          1           0       -2.128178   -0.744009   -2.528934
 ---------------------------------------------------------------------
 Rotational constants (GHZ):           0.5752797           0.3522415           0.3263463
   427 basis functions,  1056 primitive gaussians,   461 cartesian basis functions
    77 alpha electrons       72 beta electrons
       nuclear repulsion energy      1657.7584907745 Hartrees.
 NAtoms=   29 NActive=   29 NUniq=   29 SFac= 1.00D+00 NAtFMM=   60 NAOKFM=F Big=F
 Nuclear repulsion after empirical dispersion term =     1657.7213250290 Hartrees.
 Initial guess from the checkpoint file:  "checkpoint.chk"
 B after Tr=     0.000000    0.000000    0.000000
         Rot=    1.000000    0.000000    0.000000    0.000000 Ang=   0.00 deg.
 Initial guess <Sx>= 0.0000 <Sy>= 0.0000 <Sz>= 2.5000 <S**2>= 8.7620 S= 2.5020
 SCF Done:  E(UPBE1PBE) =  -3033.14270588     A.U. after    1 cycles
            NFock=  1  Conv=0.36D-08     -V/T= 2.0021
 <Sx>= 0.0000 <Sy>= 0.0000 <Sz>= 2.5000 <S**2>= 8.7620 S= 2.5020
 <L.S>= 0.000000000000E+00
 Annihilation of the first spin contaminant:
 S**2 before annihilation     8.7620,   after     8.7500
 1\1\GINC-HOLY7C06507\SP\UPBE1PBE\Jul-CC-pVDZ\C8H16Cl3Fe1O1(6)\EKWAN\11
 -Feb-2020\0\\#t pop=none jul-cc-pvdz guess=read upbe1pbe empiricaldisp
 ersion=gd3bj\\theory_abbreviation pbe0_d3bj\\0,6\O,0,-0.327209,-0.1803
 72,-0.697422\C,0,-1.288314,-1.104933,-0.54092\C,0,-2.717331,-0.307129,
 0.32159\C,0,-2.398854,0.993364,-0.120278\C,0,-2.809618,1.496431,-1.453
 458\Fe,0,1.385583,0.105186,-0.019001\Cl,0,1.874354,2.130363,-0.749385\
 C,0,-1.593589,1.923808,0.698381\Cl,0,2.669698,-1.527616,-0.738456\Cl,0
 ,1.171644,0.073593,2.207174\H,0,-3.554829,-0.756735,-0.211406\H,0,-2.3
 14391,2.573644,1.224287\H,0,-0.986846,1.427564,1.454907\H,0,-0.96171,2
 .565347,0.077603\H,0,-3.157135,2.532787,-1.364065\H,0,-1.906222,1.5327
 65,-2.07989\H,0,-3.575113,0.889854,-1.938061\C,0,-2.72648,-0.595709,1.
 817271\H,0,-3.505205,0.00094,2.306188\H,0,-2.955164,-1.647478,1.999403
 \H,0,-1.772245,-0.369622,2.29729\C,0,-0.906572,-2.279814,0.348727\H,0,
 -1.729401,-2.987501,0.478451\H,0,-0.08533,-2.790749,-0.16952\H,0,-0.53
 0137,-1.958317,1.319427\C,0,-1.842378,-1.574598,-1.883153\H,0,-1.02681
 6,-2.107078,-2.384992\H,0,-2.686778,-2.259582,-1.764911\H,0,-2.128178,
 -0.744009,-2.528934\\Version=ES64L-G16RevA.03\HF=-3033.1427059\S2=8.76
 204\S2-1=0.\S2A=8.750045\RMSD=3.650e-09\PG=C01 [X(C8H16Cl3Fe1O1)]\\@


 WHEN A MATHEMATICIAN ENGAGED IN INVESTIGATING
 PHYSICAL ACTIONS AND RESULTS HAS ARRIVED AT HIS
 CONCLUSIONS, MAY THEY NOT BE EXPRESSED IN COMMON
 LANGUAGE AS FULLY, CLEARLY, AND DEFINITELY AS IN
 MATHEMATICAL FORMULAE?
           - LETTER FROM M. FARADAY TO J.C. MAXWELL, 1857.
 Job cpu time:       0 days  0 hours  5 minutes  8.3 seconds.
 Elapsed time:       0 days  0 hours  1 minutes 17.6 seconds.
 File lengths (MBytes):  RWF=    170 Int=      0 D2E=      0 Chk=     13 Scr=      1
 Normal termination of Gaussian 16 at Tue Feb 11 14:50:24 2020.
 Initial command:
 /n/sw/g16_nehalem/g16/l1.exe "/scratch/Gau-290208.inp" -scrdir="/scratch/"
 Entering Link 1 = /n/sw/g16_nehalem/g16/l1.exe PID=    293412.
  
 Copyright (c) 1988,1990,1992,1993,1995,1998,2003,2009,2016,
            Gaussian, Inc.  All Rights Reserved.
  
 This is part of the Gaussian(R) 16 program.  It is based on
 the Gaussian(R) 09 system (copyright 2009, Gaussian, Inc.),
 the Gaussian(R) 03 system (copyright 2003, Gaussian, Inc.),
 the Gaussian(R) 98 system (copyright 1998, Gaussian, Inc.),
 the Gaussian(R) 94 system (copyright 1995, Gaussian, Inc.),
 the Gaussian 92(TM) system (copyright 1992, Gaussian, Inc.),
 the Gaussian 90(TM) system (copyright 1990, Gaussian, Inc.),
 the Gaussian 88(TM) system (copyright 1988, Gaussian, Inc.),
 the Gaussian 86(TM) system (copyright 1986, Carnegie Mellon
 University), and the Gaussian 82(TM) system (copyright 1983,
 Carnegie Mellon University). Gaussian is a federally registered
 trademark of Gaussian, Inc.
  
 This software contains proprietary and confidential information,
 including trade secrets, belonging to Gaussian, Inc.
  
 This software is provided under written license and may be
 used, copied, transmitted, or stored only in accord with that
 written license.
  
 The following legend is applicable only to US Government
 contracts under FAR:
  
                    RESTRICTED RIGHTS LEGEND
  
 Use, reproduction and disclosure by the US Government is
 subject to restrictions as set forth in subparagraphs (a)
 and (c) of the Commercial Computer Software - Restricted
 Rights clause in FAR 52.227-19.
  
 Gaussian, Inc.
 340 Quinnipiac St., Bldg. 40, Wallingford CT 06492
  
  
 ---------------------------------------------------------------
 Warning -- This program may not be used in any manner that
 competes with the business of Gaussian, Inc. or will provide
 assistance to any competitor of Gaussian, Inc.  The licensee
 of this program is prohibited from giving any competitor of
 Gaussian, Inc. access to this program.  By using this program,
 the user acknowledges that Gaussian, Inc. is engaged in the
 business of creating and licensing software in the field of
 computational chemistry and represents and warrants to the
 licensee that it is not a competitor of Gaussian, Inc. and that
 it will not use this program in any manner prohibited above.
 ---------------------------------------------------------------
  

 Cite this work as:
 Gaussian 16, Revision A.03,
 M. J. Frisch, G. W. Trucks, H. B. Schlegel, G. E. Scuseria, 
 M. A. Robb, J. R. Cheeseman, G. Scalmani, V. Barone, 
 G. A. Petersson, H. Nakatsuji, X. Li, M. Caricato, A. V. Marenich, 
 J. Bloino, B. G. Janesko, R. Gomperts, B. Mennucci, H. P. Hratchian, 
 J. V. Ortiz, A. F. Izmaylov, J. L. Sonnenberg, D. Williams-Young, 
 F. Ding, F. Lipparini, F. Egidi, J. Goings, B. Peng, A. Petrone, 
 T. Henderson, D. Ranasinghe, V. G. Zakrzewski, J. Gao, N. Rega, 
 G. Zheng, W. Liang, M. Hada, M. Ehara, K. Toyota, R. Fukuda, 
 J. Hasegawa, M. Ishida, T. Nakajima, Y. Honda, O. Kitao, H. Nakai, 
 T. Vreven, K. Throssell, J. A. Montgomery, Jr., J. E. Peralta, 
 F. Ogliaro, M. J. Bearpark, J. J. Heyd, E. N. Brothers, K. N. Kudin, 
 V. N. Staroverov, T. A. Keith, R. Kobayashi, J. Normand, 
 K. Raghavachari, A. P. Rendell, J. C. Burant, S. S. Iyengar, 
 J. Tomasi, M. Cossi, J. M. Millam, M. Klene, C. Adamo, R. Cammi, 
 J. W. Ochterski, R. L. Martin, K. Morokuma, O. Farkas, 
 J. B. Foresman, and D. J. Fox, Gaussian, Inc., Wallingford CT, 2016.
 
 ******************************************
 Gaussian 16:  ES64L-G16RevA.03 25-Dec-2016
                11-Feb-2020 
 ******************************************
 %chk=checkpoint.chk
 %mem=3GB
 %nprocshared=4
 Will use up to    4 processors via shared memory.
 -----------------------------------------
 #t pop=none jul-cc-pvdz guess=read ub3lyp
 -----------------------------------------
 -------------------------
 theory_abbreviation b3lyp
 -------------------------
 Symbolic Z-matrix:
 Charge =  0 Multiplicity = 6
 O                    -0.32721  -0.18037  -0.69742 
 C                    -1.28831  -1.10493  -0.54092 
 C                    -2.71733  -0.30713   0.32159 
 C                    -2.39885   0.99336  -0.12028 
 C                    -2.80962   1.49643  -1.45346 
 Fe                    1.38558   0.10519  -0.019 
 Cl                    1.87435   2.13036  -0.74939 
 C                    -1.59359   1.92381   0.69838 
 Cl                    2.6697   -1.52762  -0.73846 
 Cl                    1.17164   0.07359   2.20717 
 H                    -3.55483  -0.75674  -0.21141 
 H                    -2.31439   2.57364   1.22429 
 H                    -0.98685   1.42756   1.45491 
 H                    -0.96171   2.56535   0.0776 
 H                    -3.15714   2.53279  -1.36407 
 H                    -1.90622   1.53277  -2.07989 
 H                    -3.57511   0.88985  -1.93806 
 C                    -2.72648  -0.59571   1.81727 
 H                    -3.50521   0.00094   2.30619 
 H                    -2.95516  -1.64748   1.9994 
 H                    -1.77225  -0.36962   2.29729 
 C                    -0.90657  -2.27981   0.34873 
 H                    -1.7294   -2.9875    0.47845 
 H                    -0.08533  -2.79075  -0.16952 
 H                    -0.53014  -1.95832   1.31943 
 C                    -1.84238  -1.5746   -1.88315 
 H                    -1.02682  -2.10708  -2.38499 
 H                    -2.68678  -2.25958  -1.76491 
 H                    -2.12818  -0.74401  -2.52893 
 
                    Distance matrix (angstroms):
                    1          2          3          4          5
     1  O    0.000000
     2  C    1.342769   0.000000
     3  C    2.601372   1.850001   0.000000
     4  C    2.449993   2.411035   1.409949   0.000000
     5  C    3.089598   3.148680   2.532221   1.482961   0.000000
     6  Fe   1.864257   2.981025   4.137621   3.888583   4.646821
     7  Cl   3.192033   4.529135   5.307723   4.466413   4.778826
     8  C    2.824811   3.286690   2.526232   1.477965   2.508344
     9  Cl   3.286062   3.985416   5.624355   5.694533   6.299126
    10  Cl   3.278374   3.871994   4.338721   4.360214   5.592418
    11  H    3.314504   2.316660   1.089786   2.099388   2.678580
    12  H    3.902110   4.207222   3.045665   2.076602   2.928473
    13  H    2.766424   3.238479   2.699657   2.159515   3.433049
    14  H    2.922709   3.736335   3.375330   2.139082   2.627069
    15  H    3.976698   4.171698   3.331664   2.119391   1.096719
    16  H    2.709121   3.115717   3.132126   2.091344   1.099937
    17  H    3.637781   3.340753   2.697143   2.167633   1.090302
    18  C    3.500384   2.808682   1.523294   2.527170   3.883507
    19  H    4.376552   3.774067   2.157378   2.845462   4.105517
    20  H    4.041214   3.086419   2.160592   3.431701   4.672001
    21  H    3.330502   2.971583   2.191001   2.845172   4.315832
    22  C    2.416143   1.522348   2.677885   3.627749   4.596682
    23  H    3.350939   2.185804   2.860945   4.080923   5.000479
    24  H    2.674183   2.104064   3.651984   4.435575   5.239289
    25  H    2.696284   2.182656   2.916491   3.778528   4.981988
    26  C    2.376039   1.526159   2.689407   3.164146   3.248293
    27  H    2.655097   2.115012   3.663774   4.077273   4.126914
    28  H    3.321176   2.187937   2.857708   3.656416   3.770905
    29  H    2.629755   2.188113   2.943374   2.982173   2.576932
                    6          7          8          9         10
     6  Fe   0.000000
     7  Cl   2.207646   0.000000
     8  C    3.563354   3.763684   0.000000
     9  Cl   2.198320   3.743461   5.670313   0.000000
    10  Cl   2.236654   3.669516   3.653254   3.672162   0.000000
    11  H    5.018725   6.172583   3.443760   6.294186   5.373874
    12  H    4.618318   4.651609   1.103820   6.746394   4.400996
    13  H    3.090228   3.679578   1.089370   5.187894   2.656731
    14  H    3.401692   2.986031   1.093713   5.532217   3.910896
    15  H    5.323413   5.084846   2.658800   7.129533   6.126966
    16  H    4.137780   4.052175   2.823020   5.666076   5.475524
    17  H    5.376523   5.713887   3.456346   6.803005   6.354601
    18  C    4.557654   5.931852   2.980490   6.043089   3.974338
    19  H    5.416381   6.542983   3.152260   7.052359   4.678461
    20  H    5.097830   6.719536   4.037404   6.256941   4.476137
    21  H    3.944937   5.369342   2.801473   5.503414   2.978430
    22  C    3.328276   5.328139   4.273721   3.812804   3.648470
    23  H    4.417612   6.378649   4.918106   4.792098   4.557943
    24  H    3.251566   5.328597   5.025450   3.083727   3.928500
    25  H    3.117598   5.174830   4.072778   3.828750   2.795141
    26  C    4.088578   5.369009   4.354889   4.655252   5.341501
    27  H    4.038774   5.389611   5.106512   4.087918   5.538641
    28  H    5.022395   6.411461   4.976306   5.502837   6.009042
    29  H    4.400842   5.239186   4.221208   5.180682   5.829924
                   11         12         13         14         15
    11  H    0.000000
    12  H    3.832926   0.000000
    13  H    3.760625   1.768915   0.000000
    14  H    4.224218   1.773330   1.786658   0.000000
    15  H    3.508239   2.722398   3.725356   2.626663   0.000000
    16  H    3.383925   3.488211   3.653917   2.571596   1.754204
    17  H    2.386002   3.798028   4.301220   3.701358   1.789806
    18  C    2.197185   3.250576   2.692818   4.016607   4.482616
    19  H    2.629603   3.034362   3.016963   4.244071   4.472377
    20  H    2.457783   4.339270   3.691427   5.041336   5.369201
    21  H    3.101777   3.179319   2.134558   3.768026   4.873132
    22  C    3.105927   5.128802   3.869720   4.853054   5.582098
    23  H    2.963850   5.641349   4.582320   5.619978   5.992234
    24  H    4.021988   5.973954   4.609301   5.432944   6.261227
    25  H    3.596667   4.871477   3.419229   4.710830   5.854252
    26  C    2.529056   5.204507   4.570291   4.664685   4.343806
    27  H    3.597048   6.049289   5.219206   5.282061   5.206621
    28  H    2.329257   5.695090   5.181896   5.445242   4.832051
    29  H    2.721476   5.012800   4.678606   4.371101   3.626715
                   16         17         18         19         20
    16  H    0.000000
    17  H    1.794059   0.000000
    18  C    4.515649   4.126693   0.000000
    19  H    4.913340   4.336900   1.096103   0.000000
    20  H    5.277770   4.725041   1.091644   1.764637   0.000000
    21  H    4.774592   4.772296   1.091832   1.772158   1.766621
    22  C    4.629605   4.732579   2.881822   3.973209   2.705792
    23  H    5.197036   4.927481   2.916723   3.927452   2.368850
    24  H    5.065366   5.371514   3.967520   5.061443   3.774552
    25  H    5.063262   5.291048   2.632199   3.696406   2.537665
    26  C    3.114239   3.013123   3.928485   4.774714   4.039535
    27  H    3.756980   3.959188   4.778296   5.709056   4.811723
    28  H    3.884633   3.276899   3.949947   4.727963   3.823187
    29  H    2.331224   2.261031   4.389699   5.082279   4.691055
                   21         22         23         24         25
    21  H    0.000000
    22  C    2.862712   0.000000
    23  H    3.187993   1.093022   0.000000
    24  H    3.846127   1.097303   1.778074   0.000000
    25  H    2.241205   1.089643   1.790166   1.762884   0.000000
    26  C    4.351206   2.520784   2.754312   2.739120   3.482203
    27  H    5.049573   2.741809   3.077024   2.502422   3.740527
    28  H    4.572723   2.763514   2.545410   3.097570   3.775580
    29  H    4.853792   3.483095   3.773148   3.732185   4.340295
                   26         27         28         29
    26  C    0.000000
    27  H    1.095682   0.000000
    28  H    1.093707   1.778548   0.000000
    29  H    1.090226   1.758316   1.786820   0.000000
 Framework group  C1[X(C8H16Cl3FeO)]
 Deg. of freedom    81
                         Standard orientation:                         
 ---------------------------------------------------------------------
 Center     Atomic      Atomic             Coordinates (Angstroms)
 Number     Number       Type             X           Y           Z
 ---------------------------------------------------------------------
      1          8           0       -0.327209   -0.180372   -0.697422
      2          6           0       -1.288314   -1.104933   -0.540920
      3          6           0       -2.717331   -0.307129    0.321590
      4          6           0       -2.398854    0.993364   -0.120278
      5          6           0       -2.809618    1.496431   -1.453458
      6         26           0        1.385583    0.105186   -0.019001
      7         17           0        1.874354    2.130363   -0.749385
      8          6           0       -1.593589    1.923808    0.698381
      9         17           0        2.669698   -1.527616   -0.738456
     10         17           0        1.171644    0.073593    2.207174
     11          1           0       -3.554829   -0.756735   -0.211406
     12          1           0       -2.314391    2.573644    1.224287
     13          1           0       -0.986846    1.427564    1.454907
     14          1           0       -0.961710    2.565347    0.077603
     15          1           0       -3.157135    2.532787   -1.364065
     16          1           0       -1.906222    1.532765   -2.079890
     17          1           0       -3.575113    0.889854   -1.938061
     18          6           0       -2.726480   -0.595709    1.817271
     19          1           0       -3.505205    0.000940    2.306188
     20          1           0       -2.955164   -1.647478    1.999403
     21          1           0       -1.772245   -0.369622    2.297290
     22          6           0       -0.906572   -2.279814    0.348727
     23          1           0       -1.729401   -2.987501    0.478451
     24          1           0       -0.085330   -2.790749   -0.169520
     25          1           0       -0.530137   -1.958317    1.319427
     26          6           0       -1.842378   -1.574598   -1.883153
     27          1           0       -1.026816   -2.107078   -2.384992
     28          1           0       -2.686778   -2.259582   -1.764911
     29          1           0       -2.128178   -0.744009   -2.528934
 ---------------------------------------------------------------------
 Rotational constants (GHZ):           0.5752797           0.3522415           0.3263463
   427 basis functions,  1056 primitive gaussians,   461 cartesian basis functions
    77 alpha electrons       72 beta electrons
       nuclear repulsion energy      1657.7584907745 Hartrees.
 NAtoms=   29 NActive=   29 NUniq=   29 SFac= 1.00D+00 NAtFMM=   60 NAOKFM=F Big=F
 Initial guess from the checkpoint file:  "checkpoint.chk"
 B after Tr=     0.000000    0.000000    0.000000
         Rot=    1.000000    0.000000    0.000000    0.000000 Ang=   0.00 deg.
 Initial guess <Sx>= 0.0000 <Sy>= 0.0000 <Sz>= 2.5000 <S**2>= 8.7620 S= 2.5020
 SCF Done:  E(UB3LYP) =  -3034.31776533     A.U. after   14 cycles
            NFock= 14  Conv=0.75D-08     -V/T= 2.0024
 <Sx>= 0.0000 <Sy>= 0.0000 <Sz>= 2.5000 <S**2>= 8.7613 S= 2.5019
 <L.S>= 0.000000000000E+00
 Annihilation of the first spin contaminant:
 S**2 before annihilation     8.7613,   after     8.7500
 1\1\GINC-HOLY7C06507\SP\UB3LYP\Jul-CC-pVDZ\C8H16Cl3Fe1O1(6)\EKWAN\11-F
 eb-2020\0\\#t pop=none jul-cc-pvdz guess=read ub3lyp\\theory_abbreviat
 ion b3lyp\\0,6\O,0,-0.327209,-0.180372,-0.697422\C,0,-1.288314,-1.1049
 33,-0.54092\C,0,-2.717331,-0.307129,0.32159\C,0,-2.398854,0.993364,-0.
 120278\C,0,-2.809618,1.496431,-1.453458\Fe,0,1.385583,0.105186,-0.0190
 01\Cl,0,1.874354,2.130363,-0.749385\C,0,-1.593589,1.923808,0.698381\Cl
 ,0,2.669698,-1.527616,-0.738456\Cl,0,1.171644,0.073593,2.207174\H,0,-3
 .554829,-0.756735,-0.211406\H,0,-2.314391,2.573644,1.224287\H,0,-0.986
 846,1.427564,1.454907\H,0,-0.96171,2.565347,0.077603\H,0,-3.157135,2.5
 32787,-1.364065\H,0,-1.906222,1.532765,-2.07989\H,0,-3.575113,0.889854
 ,-1.938061\C,0,-2.72648,-0.595709,1.817271\H,0,-3.505205,0.00094,2.306
 188\H,0,-2.955164,-1.647478,1.999403\H,0,-1.772245,-0.369622,2.29729\C
 ,0,-0.906572,-2.279814,0.348727\H,0,-1.729401,-2.987501,0.478451\H,0,-
 0.08533,-2.790749,-0.16952\H,0,-0.530137,-1.958317,1.319427\C,0,-1.842
 378,-1.574598,-1.883153\H,0,-1.026816,-2.107078,-2.384992\H,0,-2.68677
 8,-2.259582,-1.764911\H,0,-2.128178,-0.744009,-2.528934\\Version=ES64L
 -G16RevA.03\HF=-3034.3177653\S2=8.761294\S2-1=0.\S2A=8.75004\RMSD=7.48
 7e-09\PG=C01 [X(C8H16Cl3Fe1O1)]\\@


 Standing in the middle of the road is very dangerous;
 you get knocked down by the traffic from both sides.
                                -- Margaret Thatcher
 Job cpu time:       0 days  1 hours  5 minutes 36.6 seconds.
 Elapsed time:       0 days  0 hours 16 minutes 27.2 seconds.
 File lengths (MBytes):  RWF=    174 Int=      0 D2E=      0 Chk=     13 Scr=      1
 Normal termination of Gaussian 16 at Tue Feb 11 15:06:52 2020.
 Initial command:
 /n/sw/g16_nehalem/g16/l1.exe "/scratch/Gau-290208.inp" -scrdir="/scratch/"
 Entering Link 1 = /n/sw/g16_nehalem/g16/l1.exe PID=    294514.
  
 Copyright (c) 1988,1990,1992,1993,1995,1998,2003,2009,2016,
            Gaussian, Inc.  All Rights Reserved.
  
 This is part of the Gaussian(R) 16 program.  It is based on
 the Gaussian(R) 09 system (copyright 2009, Gaussian, Inc.),
 the Gaussian(R) 03 system (copyright 2003, Gaussian, Inc.),
 the Gaussian(R) 98 system (copyright 1998, Gaussian, Inc.),
 the Gaussian(R) 94 system (copyright 1995, Gaussian, Inc.),
 the Gaussian 92(TM) system (copyright 1992, Gaussian, Inc.),
 the Gaussian 90(TM) system (copyright 1990, Gaussian, Inc.),
 the Gaussian 88(TM) system (copyright 1988, Gaussian, Inc.),
 the Gaussian 86(TM) system (copyright 1986, Carnegie Mellon
 University), and the Gaussian 82(TM) system (copyright 1983,
 Carnegie Mellon University). Gaussian is a federally registered
 trademark of Gaussian, Inc.
  
 This software contains proprietary and confidential information,
 including trade secrets, belonging to Gaussian, Inc.
  
 This software is provided under written license and may be
 used, copied, transmitted, or stored only in accord with that
 written license.
  
 The following legend is applicable only to US Government
 contracts under FAR:
  
                    RESTRICTED RIGHTS LEGEND
  
 Use, reproduction and disclosure by the US Government is
 subject to restrictions as set forth in subparagraphs (a)
 and (c) of the Commercial Computer Software - Restricted
 Rights clause in FAR 52.227-19.
  
 Gaussian, Inc.
 340 Quinnipiac St., Bldg. 40, Wallingford CT 06492
  
  
 ---------------------------------------------------------------
 Warning -- This program may not be used in any manner that
 competes with the business of Gaussian, Inc. or will provide
 assistance to any competitor of Gaussian, Inc.  The licensee
 of this program is prohibited from giving any competitor of
 Gaussian, Inc. access to this program.  By using this program,
 the user acknowledges that Gaussian, Inc. is engaged in the
 business of creating and licensing software in the field of
 computational chemistry and represents and warrants to the
 licensee that it is not a competitor of Gaussian, Inc. and that
 it will not use this program in any manner prohibited above.
 ---------------------------------------------------------------
  

 Cite this work as:
 Gaussian 16, Revision A.03,
 M. J. Frisch, G. W. Trucks, H. B. Schlegel, G. E. Scuseria, 
 M. A. Robb, J. R. Cheeseman, G. Scalmani, V. Barone, 
 G. A. Petersson, H. Nakatsuji, X. Li, M. Caricato, A. V. Marenich, 
 J. Bloino, B. G. Janesko, R. Gomperts, B. Mennucci, H. P. Hratchian, 
 J. V. Ortiz, A. F. Izmaylov, J. L. Sonnenberg, D. Williams-Young, 
 F. Ding, F. Lipparini, F. Egidi, J. Goings, B. Peng, A. Petrone, 
 T. Henderson, D. Ranasinghe, V. G. Zakrzewski, J. Gao, N. Rega, 
 G. Zheng, W. Liang, M. Hada, M. Ehara, K. Toyota, R. Fukuda, 
 J. Hasegawa, M. Ishida, T. Nakajima, Y. Honda, O. Kitao, H. Nakai, 
 T. Vreven, K. Throssell, J. A. Montgomery, Jr., J. E. Peralta, 
 F. Ogliaro, M. J. Bearpark, J. J. Heyd, E. N. Brothers, K. N. Kudin, 
 V. N. Staroverov, T. A. Keith, R. Kobayashi, J. Normand, 
 K. Raghavachari, A. P. Rendell, J. C. Burant, S. S. Iyengar, 
 J. Tomasi, M. Cossi, J. M. Millam, M. Klene, C. Adamo, R. Cammi, 
 J. W. Ochterski, R. L. Martin, K. Morokuma, O. Farkas, 
 J. B. Foresman, and D. J. Fox, Gaussian, Inc., Wallingford CT, 2016.
 
 ******************************************
 Gaussian 16:  ES64L-G16RevA.03 25-Dec-2016
                11-Feb-2020 
 ******************************************
 %chk=checkpoint.chk
 %mem=3GB
 %nprocshared=4
 Will use up to    4 processors via shared memory.
 -------------------------------------------------------------------
 #t pop=none jul-cc-pvdz guess=read ub3lyp empiricaldispersion=gd3bj
 -------------------------------------------------------------------
 ------------------------------
 theory_abbreviation b3lyp_d3bj
 ------------------------------
 Symbolic Z-matrix:
 Charge =  0 Multiplicity = 6
 O                    -0.32721  -0.18037  -0.69742 
 C                    -1.28831  -1.10493  -0.54092 
 C                    -2.71733  -0.30713   0.32159 
 C                    -2.39885   0.99336  -0.12028 
 C                    -2.80962   1.49643  -1.45346 
 Fe                    1.38558   0.10519  -0.019 
 Cl                    1.87435   2.13036  -0.74939 
 C                    -1.59359   1.92381   0.69838 
 Cl                    2.6697   -1.52762  -0.73846 
 Cl                    1.17164   0.07359   2.20717 
 H                    -3.55483  -0.75674  -0.21141 
 H                    -2.31439   2.57364   1.22429 
 H                    -0.98685   1.42756   1.45491 
 H                    -0.96171   2.56535   0.0776 
 H                    -3.15714   2.53279  -1.36407 
 H                    -1.90622   1.53277  -2.07989 
 H                    -3.57511   0.88985  -1.93806 
 C                    -2.72648  -0.59571   1.81727 
 H                    -3.50521   0.00094   2.30619 
 H                    -2.95516  -1.64748   1.9994 
 H                    -1.77225  -0.36962   2.29729 
 C                    -0.90657  -2.27981   0.34873 
 H                    -1.7294   -2.9875    0.47845 
 H                    -0.08533  -2.79075  -0.16952 
 H                    -0.53014  -1.95832   1.31943 
 C                    -1.84238  -1.5746   -1.88315 
 H                    -1.02682  -2.10708  -2.38499 
 H                    -2.68678  -2.25958  -1.76491 
 H                    -2.12818  -0.74401  -2.52893 
 
                    Distance matrix (angstroms):
                    1          2          3          4          5
     1  O    0.000000
     2  C    1.342769   0.000000
     3  C    2.601372   1.850001   0.000000
     4  C    2.449993   2.411035   1.409949   0.000000
     5  C    3.089598   3.148680   2.532221   1.482961   0.000000
     6  Fe   1.864257   2.981025   4.137621   3.888583   4.646821
     7  Cl   3.192033   4.529135   5.307723   4.466413   4.778826
     8  C    2.824811   3.286690   2.526232   1.477965   2.508344
     9  Cl   3.286062   3.985416   5.624355   5.694533   6.299126
    10  Cl   3.278374   3.871994   4.338721   4.360214   5.592418
    11  H    3.314504   2.316660   1.089786   2.099388   2.678580
    12  H    3.902110   4.207222   3.045665   2.076602   2.928473
    13  H    2.766424   3.238479   2.699657   2.159515   3.433049
    14  H    2.922709   3.736335   3.375330   2.139082   2.627069
    15  H    3.976698   4.171698   3.331664   2.119391   1.096719
    16  H    2.709121   3.115717   3.132126   2.091344   1.099937
    17  H    3.637781   3.340753   2.697143   2.167633   1.090302
    18  C    3.500384   2.808682   1.523294   2.527170   3.883507
    19  H    4.376552   3.774067   2.157378   2.845462   4.105517
    20  H    4.041214   3.086419   2.160592   3.431701   4.672001
    21  H    3.330502   2.971583   2.191001   2.845172   4.315832
    22  C    2.416143   1.522348   2.677885   3.627749   4.596682
    23  H    3.350939   2.185804   2.860945   4.080923   5.000479
    24  H    2.674183   2.104064   3.651984   4.435575   5.239289
    25  H    2.696284   2.182656   2.916491   3.778528   4.981988
    26  C    2.376039   1.526159   2.689407   3.164146   3.248293
    27  H    2.655097   2.115012   3.663774   4.077273   4.126914
    28  H    3.321176   2.187937   2.857708   3.656416   3.770905
    29  H    2.629755   2.188113   2.943374   2.982173   2.576932
                    6          7          8          9         10
     6  Fe   0.000000
     7  Cl   2.207646   0.000000
     8  C    3.563354   3.763684   0.000000
     9  Cl   2.198320   3.743461   5.670313   0.000000
    10  Cl   2.236654   3.669516   3.653254   3.672162   0.000000
    11  H    5.018725   6.172583   3.443760   6.294186   5.373874
    12  H    4.618318   4.651609   1.103820   6.746394   4.400996
    13  H    3.090228   3.679578   1.089370   5.187894   2.656731
    14  H    3.401692   2.986031   1.093713   5.532217   3.910896
    15  H    5.323413   5.084846   2.658800   7.129533   6.126966
    16  H    4.137780   4.052175   2.823020   5.666076   5.475524
    17  H    5.376523   5.713887   3.456346   6.803005   6.354601
    18  C    4.557654   5.931852   2.980490   6.043089   3.974338
    19  H    5.416381   6.542983   3.152260   7.052359   4.678461
    20  H    5.097830   6.719536   4.037404   6.256941   4.476137
    21  H    3.944937   5.369342   2.801473   5.503414   2.978430
    22  C    3.328276   5.328139   4.273721   3.812804   3.648470
    23  H    4.417612   6.378649   4.918106   4.792098   4.557943
    24  H    3.251566   5.328597   5.025450   3.083727   3.928500
    25  H    3.117598   5.174830   4.072778   3.828750   2.795141
    26  C    4.088578   5.369009   4.354889   4.655252   5.341501
    27  H    4.038774   5.389611   5.106512   4.087918   5.538641
    28  H    5.022395   6.411461   4.976306   5.502837   6.009042
    29  H    4.400842   5.239186   4.221208   5.180682   5.829924
                   11         12         13         14         15
    11  H    0.000000
    12  H    3.832926   0.000000
    13  H    3.760625   1.768915   0.000000
    14  H    4.224218   1.773330   1.786658   0.000000
    15  H    3.508239   2.722398   3.725356   2.626663   0.000000
    16  H    3.383925   3.488211   3.653917   2.571596   1.754204
    17  H    2.386002   3.798028   4.301220   3.701358   1.789806
    18  C    2.197185   3.250576   2.692818   4.016607   4.482616
    19  H    2.629603   3.034362   3.016963   4.244071   4.472377
    20  H    2.457783   4.339270   3.691427   5.041336   5.369201
    21  H    3.101777   3.179319   2.134558   3.768026   4.873132
    22  C    3.105927   5.128802   3.869720   4.853054   5.582098
    23  H    2.963850   5.641349   4.582320   5.619978   5.992234
    24  H    4.021988   5.973954   4.609301   5.432944   6.261227
    25  H    3.596667   4.871477   3.419229   4.710830   5.854252
    26  C    2.529056   5.204507   4.570291   4.664685   4.343806
    27  H    3.597048   6.049289   5.219206   5.282061   5.206621
    28  H    2.329257   5.695090   5.181896   5.445242   4.832051
    29  H    2.721476   5.012800   4.678606   4.371101   3.626715
                   16         17         18         19         20
    16  H    0.000000
    17  H    1.794059   0.000000
    18  C    4.515649   4.126693   0.000000
    19  H    4.913340   4.336900   1.096103   0.000000
    20  H    5.277770   4.725041   1.091644   1.764637   0.000000
    21  H    4.774592   4.772296   1.091832   1.772158   1.766621
    22  C    4.629605   4.732579   2.881822   3.973209   2.705792
    23  H    5.197036   4.927481   2.916723   3.927452   2.368850
    24  H    5.065366   5.371514   3.967520   5.061443   3.774552
    25  H    5.063262   5.291048   2.632199   3.696406   2.537665
    26  C    3.114239   3.013123   3.928485   4.774714   4.039535
    27  H    3.756980   3.959188   4.778296   5.709056   4.811723
    28  H    3.884633   3.276899   3.949947   4.727963   3.823187
    29  H    2.331224   2.261031   4.389699   5.082279   4.691055
                   21         22         23         24         25
    21  H    0.000000
    22  C    2.862712   0.000000
    23  H    3.187993   1.093022   0.000000
    24  H    3.846127   1.097303   1.778074   0.000000
    25  H    2.241205   1.089643   1.790166   1.762884   0.000000
    26  C    4.351206   2.520784   2.754312   2.739120   3.482203
    27  H    5.049573   2.741809   3.077024   2.502422   3.740527
    28  H    4.572723   2.763514   2.545410   3.097570   3.775580
    29  H    4.853792   3.483095   3.773148   3.732185   4.340295
                   26         27         28         29
    26  C    0.000000
    27  H    1.095682   0.000000
    28  H    1.093707   1.778548   0.000000
    29  H    1.090226   1.758316   1.786820   0.000000
 Framework group  C1[X(C8H16Cl3FeO)]
 Deg. of freedom    81
                         Standard orientation:                         
 ---------------------------------------------------------------------
 Center     Atomic      Atomic             Coordinates (Angstroms)
 Number     Number       Type             X           Y           Z
 ---------------------------------------------------------------------
      1          8           0       -0.327209   -0.180372   -0.697422
      2          6           0       -1.288314   -1.104933   -0.540920
      3          6           0       -2.717331   -0.307129    0.321590
      4          6           0       -2.398854    0.993364   -0.120278
      5          6           0       -2.809618    1.496431   -1.453458
      6         26           0        1.385583    0.105186   -0.019001
      7         17           0        1.874354    2.130363   -0.749385
      8          6           0       -1.593589    1.923808    0.698381
      9         17           0        2.669698   -1.527616   -0.738456
     10         17           0        1.171644    0.073593    2.207174
     11          1           0       -3.554829   -0.756735   -0.211406
     12          1           0       -2.314391    2.573644    1.224287
     13          1           0       -0.986846    1.427564    1.454907
     14          1           0       -0.961710    2.565347    0.077603
     15          1           0       -3.157135    2.532787   -1.364065
     16          1           0       -1.906222    1.532765   -2.079890
     17          1           0       -3.575113    0.889854   -1.938061
     18          6           0       -2.726480   -0.595709    1.817271
     19          1           0       -3.505205    0.000940    2.306188
     20          1           0       -2.955164   -1.647478    1.999403
     21          1           0       -1.772245   -0.369622    2.297290
     22          6           0       -0.906572   -2.279814    0.348727
     23          1           0       -1.729401   -2.987501    0.478451
     24          1           0       -0.085330   -2.790749   -0.169520
     25          1           0       -0.530137   -1.958317    1.319427
     26          6           0       -1.842378   -1.574598   -1.883153
     27          1           0       -1.026816   -2.107078   -2.384992
     28          1           0       -2.686778   -2.259582   -1.764911
     29          1           0       -2.128178   -0.744009   -2.528934
 ---------------------------------------------------------------------
 Rotational constants (GHZ):           0.5752797           0.3522415           0.3263463
   427 basis functions,  1056 primitive gaussians,   461 cartesian basis functions
    77 alpha electrons       72 beta electrons
       nuclear repulsion energy      1657.7584907745 Hartrees.
 NAtoms=   29 NActive=   29 NUniq=   29 SFac= 1.00D+00 NAtFMM=   60 NAOKFM=F Big=F
 Nuclear repulsion after empirical dispersion term =     1657.6891953208 Hartrees.
 Initial guess from the checkpoint file:  "checkpoint.chk"
 B after Tr=     0.000000    0.000000    0.000000
         Rot=    1.000000    0.000000    0.000000    0.000000 Ang=   0.00 deg.
 Initial guess <Sx>= 0.0000 <Sy>= 0.0000 <Sz>= 2.5000 <S**2>= 8.7613 S= 2.5019
 SCF Done:  E(UB3LYP) =  -3034.38706079     A.U. after    1 cycles
            NFock=  1  Conv=0.42D-08     -V/T= 2.0024
 <Sx>= 0.0000 <Sy>= 0.0000 <Sz>= 2.5000 <S**2>= 8.7613 S= 2.5019
 <L.S>= 0.000000000000E+00
 Annihilation of the first spin contaminant:
 S**2 before annihilation     8.7613,   after     8.7500
 1\1\GINC-HOLY7C06507\SP\UB3LYP\Jul-CC-pVDZ\C8H16Cl3Fe1O1(6)\EKWAN\11-F
 eb-2020\0\\#t pop=none jul-cc-pvdz guess=read ub3lyp empiricaldispersi
 on=gd3bj\\theory_abbreviation b3lyp_d3bj\\0,6\O,0,-0.327209,-0.180372,
 -0.697422\C,0,-1.288314,-1.104933,-0.54092\C,0,-2.717331,-0.307129,0.3
 2159\C,0,-2.398854,0.993364,-0.120278\C,0,-2.809618,1.496431,-1.453458
 \Fe,0,1.385583,0.105186,-0.019001\Cl,0,1.874354,2.130363,-0.749385\C,0
 ,-1.593589,1.923808,0.698381\Cl,0,2.669698,-1.527616,-0.738456\Cl,0,1.
 171644,0.073593,2.207174\H,0,-3.554829,-0.756735,-0.211406\H,0,-2.3143
 91,2.573644,1.224287\H,0,-0.986846,1.427564,1.454907\H,0,-0.96171,2.56
 5347,0.077603\H,0,-3.157135,2.532787,-1.364065\H,0,-1.906222,1.532765,
 -2.07989\H,0,-3.575113,0.889854,-1.938061\C,0,-2.72648,-0.595709,1.817
 271\H,0,-3.505205,0.00094,2.306188\H,0,-2.955164,-1.647478,1.999403\H,
 0,-1.772245,-0.369622,2.29729\C,0,-0.906572,-2.279814,0.348727\H,0,-1.
 729401,-2.987501,0.478451\H,0,-0.08533,-2.790749,-0.16952\H,0,-0.53013
 7,-1.958317,1.319427\C,0,-1.842378,-1.574598,-1.883153\H,0,-1.026816,-
 2.107078,-2.384992\H,0,-2.686778,-2.259582,-1.764911\H,0,-2.128178,-0.
 744009,-2.528934\\Version=ES64L-G16RevA.03\HF=-3034.3870608\S2=8.76129
 4\S2-1=0.\S2A=8.75004\RMSD=4.223e-09\PG=C01 [X(C8H16Cl3Fe1O1)]\\@


 The most important thing in communication is to hear what isn't being said.
 -- Peter F. Drucker
 Job cpu time:       0 days  0 hours  5 minutes  6.7 seconds.
 Elapsed time:       0 days  0 hours  1 minutes 17.2 seconds.
 File lengths (MBytes):  RWF=    170 Int=      0 D2E=      0 Chk=     13 Scr=      1
 Normal termination of Gaussian 16 at Tue Feb 11 15:08:10 2020.
 Initial command:
 /n/sw/g16_nehalem/g16/l1.exe "/scratch/Gau-290208.inp" -scrdir="/scratch/"
 Entering Link 1 = /n/sw/g16_nehalem/g16/l1.exe PID=    294688.
  
 Copyright (c) 1988,1990,1992,1993,1995,1998,2003,2009,2016,
            Gaussian, Inc.  All Rights Reserved.
  
 This is part of the Gaussian(R) 16 program.  It is based on
 the Gaussian(R) 09 system (copyright 2009, Gaussian, Inc.),
 the Gaussian(R) 03 system (copyright 2003, Gaussian, Inc.),
 the Gaussian(R) 98 system (copyright 1998, Gaussian, Inc.),
 the Gaussian(R) 94 system (copyright 1995, Gaussian, Inc.),
 the Gaussian 92(TM) system (copyright 1992, Gaussian, Inc.),
 the Gaussian 90(TM) system (copyright 1990, Gaussian, Inc.),
 the Gaussian 88(TM) system (copyright 1988, Gaussian, Inc.),
 the Gaussian 86(TM) system (copyright 1986, Carnegie Mellon
 University), and the Gaussian 82(TM) system (copyright 1983,
 Carnegie Mellon University). Gaussian is a federally registered
 trademark of Gaussian, Inc.
  
 This software contains proprietary and confidential information,
 including trade secrets, belonging to Gaussian, Inc.
  
 This software is provided under written license and may be
 used, copied, transmitted, or stored only in accord with that
 written license.
  
 The following legend is applicable only to US Government
 contracts under FAR:
  
                    RESTRICTED RIGHTS LEGEND
  
 Use, reproduction and disclosure by the US Government is
 subject to restrictions as set forth in subparagraphs (a)
 and (c) of the Commercial Computer Software - Restricted
 Rights clause in FAR 52.227-19.
  
 Gaussian, Inc.
 340 Quinnipiac St., Bldg. 40, Wallingford CT 06492
  
  
 ---------------------------------------------------------------
 Warning -- This program may not be used in any manner that
 competes with the business of Gaussian, Inc. or will provide
 assistance to any competitor of Gaussian, Inc.  The licensee
 of this program is prohibited from giving any competitor of
 Gaussian, Inc. access to this program.  By using this program,
 the user acknowledges that Gaussian, Inc. is engaged in the
 business of creating and licensing software in the field of
 computational chemistry and represents and warrants to the
 licensee that it is not a competitor of Gaussian, Inc. and that
 it will not use this program in any manner prohibited above.
 ---------------------------------------------------------------
  

 Cite this work as:
 Gaussian 16, Revision A.03,
 M. J. Frisch, G. W. Trucks, H. B. Schlegel, G. E. Scuseria, 
 M. A. Robb, J. R. Cheeseman, G. Scalmani, V. Barone, 
 G. A. Petersson, H. Nakatsuji, X. Li, M. Caricato, A. V. Marenich, 
 J. Bloino, B. G. Janesko, R. Gomperts, B. Mennucci, H. P. Hratchian, 
 J. V. Ortiz, A. F. Izmaylov, J. L. Sonnenberg, D. Williams-Young, 
 F. Ding, F. Lipparini, F. Egidi, J. Goings, B. Peng, A. Petrone, 
 T. Henderson, D. Ranasinghe, V. G. Zakrzewski, J. Gao, N. Rega, 
 G. Zheng, W. Liang, M. Hada, M. Ehara, K. Toyota, R. Fukuda, 
 J. Hasegawa, M. Ishida, T. Nakajima, Y. Honda, O. Kitao, H. Nakai, 
 T. Vreven, K. Throssell, J. A. Montgomery, Jr., J. E. Peralta, 
 F. Ogliaro, M. J. Bearpark, J. J. Heyd, E. N. Brothers, K. N. Kudin, 
 V. N. Staroverov, T. A. Keith, R. Kobayashi, J. Normand, 
 K. Raghavachari, A. P. Rendell, J. C. Burant, S. S. Iyengar, 
 J. Tomasi, M. Cossi, J. M. Millam, M. Klene, C. Adamo, R. Cammi, 
 J. W. Ochterski, R. L. Martin, K. Morokuma, O. Farkas, 
 J. B. Foresman, and D. J. Fox, Gaussian, Inc., Wallingford CT, 2016.
 
 ******************************************
 Gaussian 16:  ES64L-G16RevA.03 25-Dec-2016
                11-Feb-2020 
 ******************************************
 %chk=checkpoint.chk
 %mem=3GB
 %nprocshared=4
 Will use up to    4 processors via shared memory.
 ----------------------------------------
 #t pop=none jul-cc-pvdz guess=read ub97d
 ----------------------------------------
 ------------------------
 theory_abbreviation b97d
 ------------------------
 Symbolic Z-matrix:
 Charge =  0 Multiplicity = 6
 O                    -0.32721  -0.18037  -0.69742 
 C                    -1.28831  -1.10493  -0.54092 
 C                    -2.71733  -0.30713   0.32159 
 C                    -2.39885   0.99336  -0.12028 
 C                    -2.80962   1.49643  -1.45346 
 Fe                    1.38558   0.10519  -0.019 
 Cl                    1.87435   2.13036  -0.74939 
 C                    -1.59359   1.92381   0.69838 
 Cl                    2.6697   -1.52762  -0.73846 
 Cl                    1.17164   0.07359   2.20717 
 H                    -3.55483  -0.75674  -0.21141 
 H                    -2.31439   2.57364   1.22429 
 H                    -0.98685   1.42756   1.45491 
 H                    -0.96171   2.56535   0.0776 
 H                    -3.15714   2.53279  -1.36407 
 H                    -1.90622   1.53277  -2.07989 
 H                    -3.57511   0.88985  -1.93806 
 C                    -2.72648  -0.59571   1.81727 
 H                    -3.50521   0.00094   2.30619 
 H                    -2.95516  -1.64748   1.9994 
 H                    -1.77225  -0.36962   2.29729 
 C                    -0.90657  -2.27981   0.34873 
 H                    -1.7294   -2.9875    0.47845 
 H                    -0.08533  -2.79075  -0.16952 
 H                    -0.53014  -1.95832   1.31943 
 C                    -1.84238  -1.5746   -1.88315 
 H                    -1.02682  -2.10708  -2.38499 
 H                    -2.68678  -2.25958  -1.76491 
 H                    -2.12818  -0.74401  -2.52893 
 
                    Distance matrix (angstroms):
                    1          2          3          4          5
     1  O    0.000000
     2  C    1.342769   0.000000
     3  C    2.601372   1.850001   0.000000
     4  C    2.449993   2.411035   1.409949   0.000000
     5  C    3.089598   3.148680   2.532221   1.482961   0.000000
     6  Fe   1.864257   2.981025   4.137621   3.888583   4.646821
     7  Cl   3.192033   4.529135   5.307723   4.466413   4.778826
     8  C    2.824811   3.286690   2.526232   1.477965   2.508344
     9  Cl   3.286062   3.985416   5.624355   5.694533   6.299126
    10  Cl   3.278374   3.871994   4.338721   4.360214   5.592418
    11  H    3.314504   2.316660   1.089786   2.099388   2.678580
    12  H    3.902110   4.207222   3.045665   2.076602   2.928473
    13  H    2.766424   3.238479   2.699657   2.159515   3.433049
    14  H    2.922709   3.736335   3.375330   2.139082   2.627069
    15  H    3.976698   4.171698   3.331664   2.119391   1.096719
    16  H    2.709121   3.115717   3.132126   2.091344   1.099937
    17  H    3.637781   3.340753   2.697143   2.167633   1.090302
    18  C    3.500384   2.808682   1.523294   2.527170   3.883507
    19  H    4.376552   3.774067   2.157378   2.845462   4.105517
    20  H    4.041214   3.086419   2.160592   3.431701   4.672001
    21  H    3.330502   2.971583   2.191001   2.845172   4.315832
    22  C    2.416143   1.522348   2.677885   3.627749   4.596682
    23  H    3.350939   2.185804   2.860945   4.080923   5.000479
    24  H    2.674183   2.104064   3.651984   4.435575   5.239289
    25  H    2.696284   2.182656   2.916491   3.778528   4.981988
    26  C    2.376039   1.526159   2.689407   3.164146   3.248293
    27  H    2.655097   2.115012   3.663774   4.077273   4.126914
    28  H    3.321176   2.187937   2.857708   3.656416   3.770905
    29  H    2.629755   2.188113   2.943374   2.982173   2.576932
                    6          7          8          9         10
     6  Fe   0.000000
     7  Cl   2.207646   0.000000
     8  C    3.563354   3.763684   0.000000
     9  Cl   2.198320   3.743461   5.670313   0.000000
    10  Cl   2.236654   3.669516   3.653254   3.672162   0.000000
    11  H    5.018725   6.172583   3.443760   6.294186   5.373874
    12  H    4.618318   4.651609   1.103820   6.746394   4.400996
    13  H    3.090228   3.679578   1.089370   5.187894   2.656731
    14  H    3.401692   2.986031   1.093713   5.532217   3.910896
    15  H    5.323413   5.084846   2.658800   7.129533   6.126966
    16  H    4.137780   4.052175   2.823020   5.666076   5.475524
    17  H    5.376523   5.713887   3.456346   6.803005   6.354601
    18  C    4.557654   5.931852   2.980490   6.043089   3.974338
    19  H    5.416381   6.542983   3.152260   7.052359   4.678461
    20  H    5.097830   6.719536   4.037404   6.256941   4.476137
    21  H    3.944937   5.369342   2.801473   5.503414   2.978430
    22  C    3.328276   5.328139   4.273721   3.812804   3.648470
    23  H    4.417612   6.378649   4.918106   4.792098   4.557943
    24  H    3.251566   5.328597   5.025450   3.083727   3.928500
    25  H    3.117598   5.174830   4.072778   3.828750   2.795141
    26  C    4.088578   5.369009   4.354889   4.655252   5.341501
    27  H    4.038774   5.389611   5.106512   4.087918   5.538641
    28  H    5.022395   6.411461   4.976306   5.502837   6.009042
    29  H    4.400842   5.239186   4.221208   5.180682   5.829924
                   11         12         13         14         15
    11  H    0.000000
    12  H    3.832926   0.000000
    13  H    3.760625   1.768915   0.000000
    14  H    4.224218   1.773330   1.786658   0.000000
    15  H    3.508239   2.722398   3.725356   2.626663   0.000000
    16  H    3.383925   3.488211   3.653917   2.571596   1.754204
    17  H    2.386002   3.798028   4.301220   3.701358   1.789806
    18  C    2.197185   3.250576   2.692818   4.016607   4.482616
    19  H    2.629603   3.034362   3.016963   4.244071   4.472377
    20  H    2.457783   4.339270   3.691427   5.041336   5.369201
    21  H    3.101777   3.179319   2.134558   3.768026   4.873132
    22  C    3.105927   5.128802   3.869720   4.853054   5.582098
    23  H    2.963850   5.641349   4.582320   5.619978   5.992234
    24  H    4.021988   5.973954   4.609301   5.432944   6.261227
    25  H    3.596667   4.871477   3.419229   4.710830   5.854252
    26  C    2.529056   5.204507   4.570291   4.664685   4.343806
    27  H    3.597048   6.049289   5.219206   5.282061   5.206621
    28  H    2.329257   5.695090   5.181896   5.445242   4.832051
    29  H    2.721476   5.012800   4.678606   4.371101   3.626715
                   16         17         18         19         20
    16  H    0.000000
    17  H    1.794059   0.000000
    18  C    4.515649   4.126693   0.000000
    19  H    4.913340   4.336900   1.096103   0.000000
    20  H    5.277770   4.725041   1.091644   1.764637   0.000000
    21  H    4.774592   4.772296   1.091832   1.772158   1.766621
    22  C    4.629605   4.732579   2.881822   3.973209   2.705792
    23  H    5.197036   4.927481   2.916723   3.927452   2.368850
    24  H    5.065366   5.371514   3.967520   5.061443   3.774552
[...]
    77 alpha electrons       72 beta electrons
       nuclear repulsion energy      1657.7584907745 Hartrees.
 NAtoms=   29 NActive=   29 NUniq=   29 SFac= 1.00D+00 NAtFMM=   60 NAOKFM=F Big=F
 Nuclear repulsion after empirical dispersion term =     1657.7560956745 Hartrees.
 Initial guess from the checkpoint file:  "checkpoint.chk"
 B after Tr=     0.000000    0.000000    0.000000
         Rot=    1.000000    0.000000    0.000000    0.000000 Ang=   0.00 deg.
 Initial guess <Sx>= 0.0000 <Sy>= 0.0000 <Sz>= 2.5000 <S**2>= 8.7610 S= 2.5018
 SCF Done:  E(UM06L) =  -3034.18548391     A.U. after   18 cycles
            NFock= 18  Conv=0.18D-08     -V/T= 2.0020
 <Sx>= 0.0000 <Sy>= 0.0000 <Sz>= 2.5000 <S**2>= 8.7613 S= 2.5019
 <L.S>= 0.000000000000E+00
 Annihilation of the first spin contaminant:
 S**2 before annihilation     8.7613,   after     8.7500
 1\1\GINC-HOLY7C06507\SP\UM06L\Jul-CC-pVDZ\C8H16Cl3Fe1O1(6)\EKWAN\12-Fe
 b-2020\0\\#t pop=none jul-cc-pvdz guess=read um06l empiricaldispersion
 =gd3\\theory_abbreviation m06l_d3\\0,6\O,0,-0.327209,-0.180372,-0.6974
 22\C,0,-1.288314,-1.104933,-0.54092\C,0,-2.717331,-0.307129,0.32159\C,
 0,-2.398854,0.993364,-0.120278\C,0,-2.809618,1.496431,-1.453458\Fe,0,1
 .385583,0.105186,-0.019001\Cl,0,1.874354,2.130363,-0.749385\C,0,-1.593
 589,1.923808,0.698381\Cl,0,2.669698,-1.527616,-0.738456\Cl,0,1.171644,
 0.073593,2.207174\H,0,-3.554829,-0.756735,-0.211406\H,0,-2.314391,2.57
 3644,1.224287\H,0,-0.986846,1.427564,1.454907\H,0,-0.96171,2.565347,0.
 077603\H,0,-3.157135,2.532787,-1.364065\H,0,-1.906222,1.532765,-2.0798
 9\H,0,-3.575113,0.889854,-1.938061\C,0,-2.72648,-0.595709,1.817271\H,0
 ,-3.505205,0.00094,2.306188\H,0,-2.955164,-1.647478,1.999403\H,0,-1.77
 2245,-0.369622,2.29729\C,0,-0.906572,-2.279814,0.348727\H,0,-1.729401,
 -2.987501,0.478451\H,0,-0.08533,-2.790749,-0.16952\H,0,-0.530137,-1.95
 8317,1.319427\C,0,-1.842378,-1.574598,-1.883153\H,0,-1.026816,-2.10707
 8,-2.384992\H,0,-2.686778,-2.259582,-1.764911\H,0,-2.128178,-0.744009,
 -2.528934\\Version=ES64L-G16RevA.03\HF=-3034.1854839\S2=8.7613\S2-1=0.
 \S2A=8.750041\RMSD=1.820e-09\PG=C01 [X(C8H16Cl3Fe1O1)]\\@


 KNIGHT- SIRE, I'VE JUST RETURNED FROM THE FRONT
 KING-   HOW GOES THE BATTLE                    
 KNIGHT- THE SITUATION IS QUITE FLUID           
 KING-   WHAT DOES *THAT* MEAN                  
 KNIGHT- WE'RE UP THE CREEK                     
                THE WIZARD OF ID                
 Job cpu time:       0 days  1 hours 18 minutes 28.8 seconds.
 Elapsed time:       0 days  0 hours 19 minutes 40.8 seconds.
 File lengths (MBytes):  RWF=    174 Int=      0 D2E=      0 Chk=     13 Scr=      1
 Normal termination of Gaussian 16 at Wed Feb 12 00:30:51 2020.
 Initial command:
 /n/sw/g16_nehalem/g16/l1.exe "/scratch/Gau-290208.inp" -scrdir="/scratch/"
 Entering Link 1 = /n/sw/g16_nehalem/g16/l1.exe PID=    360020.
  
 Copyright (c) 1988,1990,1992,1993,1995,1998,2003,2009,2016,
            Gaussian, Inc.  All Rights Reserved.
  
 This is part of the Gaussian(R) 16 program.  It is based on
 the Gaussian(R) 09 system (copyright 2009, Gaussian, Inc.),
 the Gaussian(R) 03 system (copyright 2003, Gaussian, Inc.),
 the Gaussian(R) 98 system (copyright 1998, Gaussian, Inc.),
 the Gaussian(R) 94 system (copyright 1995, Gaussian, Inc.),
 the Gaussian 92(TM) system (copyright 1992, Gaussian, Inc.),
 the Gaussian 90(TM) system (copyright 1990, Gaussian, Inc.),
 the Gaussian 88(TM) system (copyright 1988, Gaussian, Inc.),
 the Gaussian 86(TM) system (copyright 1986, Carnegie Mellon
 University), and the Gaussian 82(TM) system (copyright 1983,
 Carnegie Mellon University). Gaussian is a federally registered
 trademark of Gaussian, Inc.
  
 This software contains proprietary and confidential information,
 including trade secrets, belonging to Gaussian, Inc.
  
 This software is provided under written license and may be
 used, copied, transmitted, or stored only in accord with that
 written license.
  
 The following legend is applicable only to US Government
 contracts under FAR:
  
                    RESTRICTED RIGHTS LEGEND
  
 Use, reproduction and disclosure by the US Government is
 subject to restrictions as set forth in subparagraphs (a)
 and (c) of the Commercial Computer Software - Restricted
 Rights clause in FAR 52.227-19.
  
 Gaussian, Inc.
 340 Quinnipiac St., Bldg. 40, Wallingford CT 06492
  
  
 ---------------------------------------------------------------
 Warning -- This program may not be used in any manner that
 competes with the business of Gaussian, Inc. or will provide
 assistance to any competitor of Gaussian, Inc.  The licensee
 of this program is prohibited from giving any competitor of
 Gaussian, Inc. access to this program.  By using this program,
 the user acknowledges that Gaussian, Inc. is engaged in the
 business of creating and licensing software in the field of
 computational chemistry and represents and warrants to the
 licensee that it is not a competitor of Gaussian, Inc. and that
 it will not use this program in any manner prohibited above.
 ---------------------------------------------------------------
  

 Cite this work as:
 Gaussian 16, Revision A.03,
 M. J. Frisch, G. W. Trucks, H. B. Schlegel, G. E. Scuseria, 
 M. A. Robb, J. R. Cheeseman, G. Scalmani, V. Barone, 
 G. A. Petersson, H. Nakatsuji, X. Li, M. Caricato, A. V. Marenich, 
 J. Bloino, B. G. Janesko, R. Gomperts, B. Mennucci, H. P. Hratchian, 
 J. V. Ortiz, A. F. Izmaylov, J. L. Sonnenberg, D. Williams-Young, 
 F. Ding, F. Lipparini, F. Egidi, J. Goings, B. Peng, A. Petrone, 
 T. Henderson, D. Ranasinghe, V. G. Zakrzewski, J. Gao, N. Rega, 
 G. Zheng, W. Liang, M. Hada, M. Ehara, K. Toyota, R. Fukuda, 
 J. Hasegawa, M. Ishida, T. Nakajima, Y. Honda, O. Kitao, H. Nakai, 
 T. Vreven, K. Throssell, J. A. Montgomery, Jr., J. E. Peralta, 
 F. Ogliaro, M. J. Bearpark, J. J. Heyd, E. N. Brothers, K. N. Kudin, 
 V. N. Staroverov, T. A. Keith, R. Kobayashi, J. Normand, 
 K. Raghavachari, A. P. Rendell, J. C. Burant, S. S. Iyengar, 
 J. Tomasi, M. Cossi, J. M. Millam, M. Klene, C. Adamo, R. Cammi, 
 J. W. Ochterski, R. L. Martin, K. Morokuma, O. Farkas, 
 J. B. Foresman, and D. J. Fox, Gaussian, Inc., Wallingford CT, 2016.
 
 ******************************************
 Gaussian 16:  ES64L-G16RevA.03 25-Dec-2016
                12-Feb-2020 
 ******************************************
 %chk=checkpoint.chk
 %mem=3GB
 %nprocshared=4
 Will use up to    4 processors via shared memory.
 -------------------------------------------------------------------
 #t pop=none jul-cc-pvdz guess=read ub97d3 empiricaldispersion=gd3bj
 -------------------------------------------------------------------
 ------------------------------
 theory_abbreviation b97d3_d3bj
 ------------------------------
 Symbolic Z-matrix:
 Charge =  0 Multiplicity = 6
 O                    -0.32721  -0.18037  -0.69742 
 C                    -1.28831  -1.10493  -0.54092 
 C                    -2.71733  -0.30713   0.32159 
 C                    -2.39885   0.99336  -0.12028 
 C                    -2.80962   1.49643  -1.45346 
 Fe                    1.38558   0.10519  -0.019 
 Cl                    1.87435   2.13036  -0.74939 
 C                    -1.59359   1.92381   0.69838 
 Cl                    2.6697   -1.52762  -0.73846 
 Cl                    1.17164   0.07359   2.20717 
 H                    -3.55483  -0.75674  -0.21141 
 H                    -2.31439   2.57364   1.22429 
 H                    -0.98685   1.42756   1.45491 
 H                    -0.96171   2.56535   0.0776 
 H                    -3.15714   2.53279  -1.36407 
 H                    -1.90622   1.53277  -2.07989 
 H                    -3.57511   0.88985  -1.93806 
 C                    -2.72648  -0.59571   1.81727 
 H                    -3.50521   0.00094   2.30619 
 H                    -2.95516  -1.64748   1.9994 
 H                    -1.77225  -0.36962   2.29729 
 C                    -0.90657  -2.27981   0.34873 
 H                    -1.7294   -2.9875    0.47845 
 H                    -0.08533  -2.79075  -0.16952 
 H                    -0.53014  -1.95832   1.31943 
 C                    -1.84238  -1.5746   -1.88315 
 H                    -1.02682  -2.10708  -2.38499 
 H                    -2.68678  -2.25958  -1.76491 
 H                    -2.12818  -0.74401  -2.52893 
 
                    Distance matrix (angstroms):
                    1          2          3          4          5
     1  O    0.000000
     2  C    1.342769   0.000000
     3  C    2.601372   1.850001   0.000000
     4  C    2.449993   2.411035   1.409949   0.000000
     5  C    3.089598   3.148680   2.532221   1.482961   0.000000
     6  Fe   1.864257   2.981025   4.137621   3.888583   4.646821
     7  Cl   3.192033   4.529135   5.307723   4.466413   4.778826
     8  C    2.824811   3.286690   2.526232   1.477965   2.508344
     9  Cl   3.286062   3.985416   5.624355   5.694533   6.299126
    10  Cl   3.278374   3.871994   4.338721   4.360214   5.592418
    11  H    3.314504   2.316660   1.089786   2.099388   2.678580
    12  H    3.902110   4.207222   3.045665   2.076602   2.928473
    13  H    2.766424   3.238479   2.699657   2.159515   3.433049
    14  H    2.922709   3.736335   3.375330   2.139082   2.627069
    15  H    3.976698   4.171698   3.331664   2.119391   1.096719
    16  H    2.709121   3.115717   3.132126   2.091344   1.099937
    17  H    3.637781   3.340753   2.697143   2.167633   1.090302
    18  C    3.500384   2.808682   1.523294   2.527170   3.883507
    19  H    4.376552   3.774067   2.157378   2.845462   4.105517
    20  H    4.041214   3.086419   2.160592   3.431701   4.672001
    21  H    3.330502   2.971583   2.191001   2.845172   4.315832
    22  C    2.416143   1.522348   2.677885   3.627749   4.596682
    23  H    3.350939   2.185804   2.860945   4.080923   5.000479
    24  H    2.674183   2.104064   3.651984   4.435575   5.239289
    25  H    2.696284   2.182656   2.916491   3.778528   4.981988
    26  C    2.376039   1.526159   2.689407   3.164146   3.248293
    27  H    2.655097   2.115012   3.663774   4.077273   4.126914
    28  H    3.321176   2.187937   2.857708   3.656416   3.770905
    29  H    2.629755   2.188113   2.943374   2.982173   2.576932
                    6          7          8          9         10
     6  Fe   0.000000
     7  Cl   2.207646   0.000000
     8  C    3.563354   3.763684   0.000000
     9  Cl   2.198320   3.743461   5.670313   0.000000
    10  Cl   2.236654   3.669516   3.653254   3.672162   0.000000
    11  H    5.018725   6.172583   3.443760   6.294186   5.373874
    12  H    4.618318   4.651609   1.103820   6.746394   4.400996
    13  H    3.090228   3.679578   1.089370   5.187894   2.656731
    14  H    3.401692   2.986031   1.093713   5.532217   3.910896
    15  H    5.323413   5.084846   2.658800   7.129533   6.126966
    16  H    4.137780   4.052175   2.823020   5.666076   5.475524
    17  H    5.376523   5.713887   3.456346   6.803005   6.354601
    18  C    4.557654   5.931852   2.980490   6.043089   3.974338
    19  H    5.416381   6.542983   3.152260   7.052359   4.678461
    20  H    5.097830   6.719536   4.037404   6.256941   4.476137
    21  H    3.944937   5.369342   2.801473   5.503414   2.978430
    22  C    3.328276   5.328139   4.273721   3.812804   3.648470
    23  H    4.417612   6.378649   4.918106   4.792098   4.557943
    24  H    3.251566   5.328597   5.025450   3.083727   3.928500
    25  H    3.117598   5.174830   4.072778   3.828750   2.795141
    26  C    4.088578   5.369009   4.354889   4.655252   5.341501
    27  H    4.038774   5.389611   5.106512   4.087918   5.538641
    28  H    5.022395   6.411461   4.976306   5.502837   6.009042
    29  H    4.400842   5.239186   4.221208   5.180682   5.829924
                   11         12         13         14         15
    11  H    0.000000
    12  H    3.832926   0.000000
    13  H    3.760625   1.768915   0.000000
    14  H    4.224218   1.773330   1.786658   0.000000
    15  H    3.508239   2.722398   3.725356   2.626663   0.000000
    16  H    3.383925   3.488211   3.653917   2.571596   1.754204
    17  H    2.386002   3.798028   4.301220   3.701358   1.789806
    18  C    2.197185   3.250576   2.692818   4.016607   4.482616
    19  H    2.629603   3.034362   3.016963   4.244071   4.472377
    20  H    2.457783   4.339270   3.691427   5.041336   5.369201
    21  H    3.101777   3.179319   2.134558   3.768026   4.873132
    22  C    3.105927   5.128802   3.869720   4.853054   5.582098
    23  H    2.963850   5.641349   4.582320   5.619978   5.992234
    24  H    4.021988   5.973954   4.609301   5.432944   6.261227
    25  H    3.596667   4.871477   3.419229   4.710830   5.854252
    26  C    2.529056   5.204507   4.570291   4.664685   4.343806
    27  H    3.597048   6.049289   5.219206   5.282061   5.206621
    28  H    2.329257   5.695090   5.181896   5.445242   4.832051
    29  H    2.721476   5.012800   4.678606   4.371101   3.626715
                   16         17         18         19         20
    16  H    0.000000
    17  H    1.794059   0.000000
    18  C    4.515649   4.126693   0.000000
    19  H    4.913340   4.336900   1.096103   0.000000
    20  H    5.277770   4.725041   1.091644   1.764637   0.000000
    21  H    4.774592   4.772296   1.091832   1.772158   1.766621
    22  C    4.629605   4.732579   2.881822   3.973209   2.705792
    23  H    5.197036   4.927481   2.916723   3.927452   2.368850
    24  H    5.065366   5.371514   3.967520   5.061443   3.774552
    25  H    5.063262   5.291048   2.632199   3.696406   2.537665
    26  C    3.114239   3.013123   3.928485   4.774714   4.039535
    27  H    3.756980   3.959188   4.778296   5.709056   4.811723
    28  H    3.884633   3.276899   3.949947   4.727963   3.823187
    29  H    2.331224   2.261031   4.389699   5.082279   4.691055
                   21         22         23         24         25
    21  H    0.000000
    22  C    2.862712   0.000000
    23  H    3.187993   1.093022   0.000000
    24  H    3.846127   1.097303   1.778074   0.000000
    25  H    2.241205   1.089643   1.790166   1.762884   0.000000
    26  C    4.351206   2.520784   2.754312   2.739120   3.482203
    27  H    5.049573   2.741809   3.077024   2.502422   3.740527
    28  H    4.572723   2.763514   2.545410   3.097570   3.775580
    29  H    4.853792   3.483095   3.773148   3.732185   4.340295
                   26         27         28         29
    26  C    0.000000
    27  H    1.095682   0.000000
    28  H    1.093707   1.778548   0.000000
    29  H    1.090226   1.758316   1.786820   0.000000
 Framework group  C1[X(C8H16Cl3FeO)]
 Deg. of freedom    81
                         Standard orientation:                         
 ---------------------------------------------------------------------
 Center     Atomic      Atomic             Coordinates (Angstroms)
 Number     Number       Type             X           Y           Z
 ---------------------------------------------------------------------
      1          8           0       -0.327209   -0.180372   -0.697422
      2          6           0       -1.288314   -1.104933   -0.540920
      3          6           0       -2.717331   -0.307129    0.321590
      4          6           0       -2.398854    0.993364   -0.120278
      5          6           0       -2.809618    1.496431   -1.453458
      6         26           0        1.385583    0.105186   -0.019001
      7         17           0        1.874354    2.130363   -0.749385
      8          6           0       -1.593589    1.923808    0.698381
      9         17           0        2.669698   -1.527616   -0.738456
     10         17           0        1.171644    0.073593    2.207174
     11          1           0       -3.554829   -0.756735   -0.211406
     12          1           0       -2.314391    2.573644    1.224287
     13          1           0       -0.986846    1.427564    1.454907
     14          1           0       -0.961710    2.565347    0.077603
     15          1           0       -3.157135    2.532787   -1.364065
     16          1           0       -1.906222    1.532765   -2.079890
     17          1           0       -3.575113    0.889854   -1.938061
     18          6           0       -2.726480   -0.595709    1.817271
     19          1           0       -3.505205    0.000940    2.306188
     20          1           0       -2.955164   -1.647478    1.999403
     21          1           0       -1.772245   -0.369622    2.297290
     22          6           0       -0.906572   -2.279814    0.348727
     23          1           0       -1.729401   -2.987501    0.478451
     24          1           0       -0.085330   -2.790749   -0.169520
     25          1           0       -0.530137   -1.958317    1.319427
     26          6           0       -1.842378   -1.574598   -1.883153
     27          1           0       -1.026816   -2.107078   -2.384992
     28          1           0       -2.686778   -2.259582   -1.764911
     29          1           0       -2.128178   -0.744009   -2.528934
 ---------------------------------------------------------------------
 Rotational constants (GHZ):           0.5752797           0.3522415           0.3263463
   427 basis functions,  1056 primitive gaussians,   461 cartesian basis functions
    77 alpha electrons       72 beta electrons
       nuclear repulsion energy      1657.7584907745 Hartrees.
 NAtoms=   29 NActive=   29 NUniq=   29 SFac= 1.00D+00 NAtFMM=   60 NAOKFM=F Big=F
 Nuclear repulsion after empirical dispersion term =     1657.6565081886 Hartrees.
 Initial guess from the checkpoint file:  "checkpoint.chk"
 B after Tr=     0.000000    0.000000    0.000000
         Rot=    1.000000    0.000000    0.000000    0.000000 Ang=   0.00 deg.
 Initial guess <Sx>= 0.0000 <Sy>= 0.0000 <Sz>= 2.5000 <S**2>= 8.7613 S= 2.5019
 SCF Done:  E(UB97D3) =  -3034.60451902     A.U. after   16 cycles
            NFock= 16  Conv=0.61D-08     -V/T= 2.0019
 <Sx>= 0.0000 <Sy>= 0.0000 <Sz>= 2.5000 <S**2>= 8.7593 S= 2.5016
 <L.S>= 0.000000000000E+00
 Annihilation of the first spin contaminant:
 S**2 before annihilation     8.7593,   after     8.7500
 1\1\GINC-HOLY7C06507\SP\UB97D3\Jul-CC-pVDZ\C8H16Cl3Fe1O1(6)\EKWAN\12-F
 eb-2020\0\\#t pop=none jul-cc-pvdz guess=read ub97d3 empiricaldispersi
 on=gd3bj\\theory_abbreviation b97d3_d3bj\\0,6\O,0,-0.327209,-0.180372,
 -0.697422\C,0,-1.288314,-1.104933,-0.54092\C,0,-2.717331,-0.307129,0.3
 2159\C,0,-2.398854,0.993364,-0.120278\C,0,-2.809618,1.496431,-1.453458
 \Fe,0,1.385583,0.105186,-0.019001\Cl,0,1.874354,2.130363,-0.749385\C,0
 ,-1.593589,1.923808,0.698381\Cl,0,2.669698,-1.527616,-0.738456\Cl,0,1.
 171644,0.073593,2.207174\H,0,-3.554829,-0.756735,-0.211406\H,0,-2.3143
 91,2.573644,1.224287\H,0,-0.986846,1.427564,1.454907\H,0,-0.96171,2.56
 5347,0.077603\H,0,-3.157135,2.532787,-1.364065\H,0,-1.906222,1.532765,
 -2.07989\H,0,-3.575113,0.889854,-1.938061\C,0,-2.72648,-0.595709,1.817
 271\H,0,-3.505205,0.00094,2.306188\H,0,-2.955164,-1.647478,1.999403\H,
 0,-1.772245,-0.369622,2.29729\C,0,-0.906572,-2.279814,0.348727\H,0,-1.
 729401,-2.987501,0.478451\H,0,-0.08533,-2.790749,-0.16952\H,0,-0.53013
 7,-1.958317,1.319427\C,0,-1.842378,-1.574598,-1.883153\H,0,-1.026816,-
 2.107078,-2.384992\H,0,-2.686778,-2.259582,-1.764911\H,0,-2.128178,-0.
 744009,-2.528934\\Version=ES64L-G16RevA.03\HF=-3034.604519\S2=8.759328
 \S2-1=0.\S2A=8.750028\RMSD=6.109e-09\PG=C01 [X(C8H16Cl3Fe1O1)]\\@


 AS FAR AS THE LAWS OF MATHEMATICS REFER TO REALITY,
 THEY ARE NOT CERTAIN; AND AS FAR AS THEY ARE CERTAIN,
 THEY DO NOT REFER TO REALITY.

                                         -- ALBERT EINSTEIN
 Job cpu time:       0 days  0 hours 50 minutes 37.3 seconds.
 Elapsed time:       0 days  0 hours 13 minutes  7.6 seconds.
 File lengths (MBytes):  RWF=    174 Int=      0 D2E=      0 Chk=     13 Scr=      1
 Normal termination of Gaussian 16 at Wed Feb 12 00:43:59 2020.
