 Entering Gaussian System, Link 0=g16
 Input=simple-grid-215-215-b3lyp_d3bj-631gd-gas-singlepoint-DFT-juldz2-gas.gjf
 Output=simple-grid-215-215-b3lyp_d3bj-631gd-gas-singlepoint-DFT-juldz2-gas.out
 Initial command:
 /n/sw/g16_nehalem/g16/l1.exe "/scratch/Gau-425466.inp" -scrdir="/scratch/"
 Entering Link 1 = /n/sw/g16_nehalem/g16/l1.exe PID=    425481.
  
 Copyright (c) 1988,1990,1992,1993,1995,1998,2003,2009,2016,
            Gaussian, Inc.  All Rights Reserved.
  
 This is part of the Gaussian(R) 16 program.  It is based on
 the Gaussian(R) 09 system (copyright 2009, Gaussian, Inc.),
 the Gaussian(R) 03 system (copyright 2003, Gaussian, Inc.),
 the Gaussian(R) 98 system (copyright 1998, Gaussian, Inc.),
 the Gaussian(R) 94 system (copyright 1995, Gaussian, Inc.),
 the Gaussian 92(TM) system (copyright 1992, Gaussian, Inc.),
 the Gaussian 90(TM) system (copyright 1990, Gaussian, Inc.),
 the Gaussian 88(TM) system (copyright 1988, Gaussian, Inc.),
 the Gaussian 86(TM) system (copyright 1986, Carnegie Mellon
 University), and the Gaussian 82(TM) system (copyright 1983,
 Carnegie Mellon University). Gaussian is a federally registered
 trademark of Gaussian, Inc.
  
 This software contains proprietary and confidential information,
 including trade secrets, belonging to Gaussian, Inc.
  
 This software is provided under written license and may be
 used, copied, transmitted, or stored only in accord with that
 written license.
  
 The following legend is applicable only to US Government
 contracts under FAR:
  
                    RESTRICTED RIGHTS LEGEND
  
 Use, reproduction and disclosure by the US Government is
 subject to restrictions as set forth in subparagraphs (a)
 and (c) of the Commercial Computer Software - Restricted
 Rights clause in FAR 52.227-19.
  
 Gaussian, Inc.
 340 Quinnipiac St., Bldg. 40, Wallingford CT 06492
  
  
 ---------------------------------------------------------------
 Warning -- This program may not be used in any manner that
 competes with the business of Gaussian, Inc. or will provide
 assistance to any competitor of Gaussian, Inc.  The licensee
 of this program is prohibited from giving any competitor of
 Gaussian, Inc. access to this program.  By using this program,
 the user acknowledges that Gaussian, Inc. is engaged in the
 business of creating and licensing software in the field of
 computational chemistry and represents and warrants to the
 licensee that it is not a competitor of Gaussian, Inc. and that
 it will not use this program in any manner prohibited above.
 ---------------------------------------------------------------
  

 Cite this work as:
 Gaussian 16, Revision A.03,
 M. J. Frisch, G. W. Trucks, H. B. Schlegel, G. E. Scuseria, 
 M. A. Robb, J. R. Cheeseman, G. Scalmani, V. Barone, 
 G. A. Petersson, H. Nakatsuji, X. Li, M. Caricato, A. V. Marenich, 
 J. Bloino, B. G. Janesko, R. Gomperts, B. Mennucci, H. P. Hratchian, 
 J. V. Ortiz, A. F. Izmaylov, J. L. Sonnenberg, D. Williams-Young, 
 F. Ding, F. Lipparini, F. Egidi, J. Goings, B. Peng, A. Petrone, 
 T. Henderson, D. Ranasinghe, V. G. Zakrzewski, J. Gao, N. Rega, 
 G. Zheng, W. Liang, M. Hada, M. Ehara, K. Toyota, R. Fukuda, 
 J. Hasegawa, M. Ishida, T. Nakajima, Y. Honda, O. Kitao, H. Nakai, 
 T. Vreven, K. Throssell, J. A. Montgomery, Jr., J. E. Peralta, 
 F. Ogliaro, M. J. Bearpark, J. J. Heyd, E. N. Brothers, K. N. Kudin, 
 V. N. Staroverov, T. A. Keith, R. Kobayashi, J. Normand, 
 K. Raghavachari, A. P. Rendell, J. C. Burant, S. S. Iyengar, 
 J. Tomasi, M. Cossi, J. M. Millam, M. Klene, C. Adamo, R. Cammi, 
 J. W. Ochterski, R. L. Martin, K. Morokuma, O. Farkas, 
 J. B. Foresman, and D. J. Fox, Gaussian, Inc., Wallingford CT, 2016.
 
 ******************************************
 Gaussian 16:  ES64L-G16RevA.03 25-Dec-2016
                11-Feb-2020 
 ******************************************
 %chk=checkpoint.chk
 %mem=3GB
 %nprocshared=4
 Will use up to    4 processors via shared memory.
 --------------------------------
 #t pop=none jul-cc-pvdz upbe1pbe
 --------------------------------
 ------------------------
 theory_abbreviation pbe0
 ------------------------
 Symbolic Z-matrix:
 Charge =  0 Multiplicity = 6
 O                    -0.36351  -0.06264  -0.48342 
 C                    -1.2533   -1.02771  -0.4475 
 C                    -3.10058   0.02629  -0.13265 
 C                    -2.18301   1.05463  -0.23133 
 C                    -1.95301   1.75358  -1.53307 
 Fe                    1.44434   0.05136   0.05659 
 Cl                    2.05036   1.98409  -0.79734 
 C                    -1.60514   1.72211   0.97732 
 Cl                    2.35462  -1.76597  -0.79231 
 Cl                    1.44302   0.03351   2.26474 
 H                    -3.61576  -0.24824  -1.05041 
 H                    -2.35923   2.43119   1.34941 
 H                    -1.37828   1.02809   1.78759 
 H                    -0.70045   2.28072   0.73231 
 H                    -2.5266    2.69151  -1.49166 
 H                    -0.90084   2.01093  -1.67141 
 H                    -2.31855   1.18388  -2.39014 
 C                    -3.78534  -0.40441   1.13828 
 H                    -4.70411   0.18077   1.27781 
 H                    -4.08199  -1.45704   1.09641 
 H                    -3.16878  -0.26005   2.0279 
 C                    -1.22398  -1.93761   0.74803 
 H                    -2.08642  -2.60377   0.79399 
 H                    -0.31972  -2.55181   0.62381 
 H                    -1.10601  -1.38503   1.68063 
 C                    -1.56279  -1.66927  -1.77413 
 H                    -0.6674   -2.25292  -2.0326 
 H                    -2.42261  -2.34094  -1.72434 
 H                    -1.7012   -0.9249   -2.5594 
 
                    Distance matrix (angstroms):
                    1          2          3          4          5
     1  O    0.000000
     2  C    1.313153   0.000000
     3  C    2.760892   2.149999   0.000000
     4  C    2.149991   2.290688   1.381723   0.000000
     5  C    2.631911   3.066532   2.502320   1.495315   0.000000
     6  Fe   1.890217   2.948855   4.548929   3.774540   4.119053
     7  Cl   3.180313   4.484133   5.550401   4.371005   4.076940
     8  C    2.619305   3.116954   2.518764   1.496754   2.534573
     9  Cl   3.222568   3.698783   5.779841   5.372207   5.611743
    10  Cl   3.290164   3.968949   5.137295   4.518972   5.377271
    11  H    3.306523   2.559751   1.087682   2.102650   2.646686
    12  H    3.682584   4.051665   2.920557   2.103495   2.988793
    13  H    2.716060   3.039338   2.767175   2.173553   3.447243
    14  H    2.661365   3.555738   3.404591   2.151713   2.641733
    15  H    3.644292   4.067448   3.046267   2.094243   1.100196
    16  H    2.449434   3.294764   3.338473   2.152277   1.091986
    17  H    3.001933   3.130454   2.654777   2.166925   1.092126
    18  C    3.802062   3.051957   1.506539   2.563608   3.892358
    19  H    4.690631   4.042923   2.141161   3.065460   4.235952
    20  H    4.274035   3.251080   2.161951   3.417239   4.664204
    21  H    3.770314   3.222731   2.180512   2.793604   4.267705
    22  C    2.402577   1.502685   2.855538   3.291256   4.399970
    23  H    3.325289   2.172409   2.967220   3.800595   4.941607
    24  H    2.724674   2.083785   3.866782   4.148439   5.084895
    25  H    2.642564   2.162943   3.042715   3.281380   4.571230
    26  C    2.384413   1.505758   2.816762   3.191322   3.453438
    27  H    2.699931   2.087334   3.837316   4.059755   4.237261
    28  H    3.312163   2.173058   2.932042   3.717042   4.125791
    29  H    2.615828   2.161314   2.958398   3.093638   2.879403
                    6          7          8          9         10
     6  Fe   0.000000
     7  Cl   2.198157   0.000000
     8  C    3.597013   4.071941   0.000000
     9  Cl   2.202703   3.762383   5.565786   0.000000
    10  Cl   2.208229   3.681027   3.714846   3.662608   0.000000
    11  H    5.188435   6.095265   3.469369   6.165682   6.054819
    12  H    4.669283   4.924727   1.099959   6.665099   4.587352
    13  H    3.452186   4.399020   1.090726   5.328902   3.029283
    14  H    3.166505   3.161443   1.091121   5.294671   3.463049
    15  H    5.013566   4.683063   2.807964   6.647144   6.077281
    16  H    3.510806   3.078035   2.755937   5.063180   4.989701
    17  H    4.629089   4.718554   3.484023   5.752673   6.094316
    18  C    5.359792   6.595979   3.049801   6.578763   5.366228
    19  H    6.269894   7.292531   3.474135   7.609261   6.227586
    20  H    5.822104   7.282404   4.031872   6.715111   5.840589
    21  H    5.026322   6.344879   2.734526   6.381951   4.627189
    22  C    3.399121   5.337523   3.686650   3.899806   3.646726
    23  H    4.478812   6.379163   4.356431   4.789687   4.644922
    24  H    3.195335   5.311436   4.477016   3.126510   3.533243
    25  H    3.347390   5.239651   3.224607   4.270422   2.975057
    26  C    3.918530   5.230290   4.367339   4.039730   5.314767
    27  H    3.759502   5.183082   5.073445   3.302734   5.305542
    28  H    4.883454   6.290681   4.947278   4.901149   6.041015
    29  H    4.206049   5.063714   4.418620   4.503296   5.837544
                   11         12         13         14         15
    11  H    0.000000
    12  H    3.810159   0.000000
    13  H    3.832698   1.767195   0.000000
    14  H    4.251205   1.776243   1.772617   0.000000
    15  H    3.165922   2.857876   3.852156   2.906823   0.000000
    16  H    3.586120   3.380662   3.627480   2.427095   1.771607
    17  H    2.351296   3.942295   4.285073   3.683885   1.767341
    18  C    2.200791   3.181040   2.875346   4.109905   4.252731
    19  H    2.605597   3.250837   3.469719   4.553751   4.326117
    20  H    2.507469   4.260313   3.736800   5.053541   5.131063
    21  H    3.110615   2.891103   2.218764   3.771830   4.638037
    22  C    3.436416   4.553775   3.146404   4.250717   5.304876
    23  H    3.359944   5.072848   3.831335   5.077693   5.784282
    24  H    4.355841   5.432902   3.910322   4.848717   6.069425
    25  H    3.879398   4.030362   2.430782   3.808082   5.357205
    26  C    2.599579   5.215799   4.471644   4.756911   4.474937
    27  H    3.698155   6.020070   5.085693   5.310339   5.310052
    28  H    2.501439   5.676722   4.977412   5.510051   5.038894
    29  H    2.529919   5.193756   4.776478   4.702421   3.860016
                   16         17         18         19         20
    16  H    0.000000
    17  H    1.791784   0.000000
    18  C    4.695586   4.138100   0.000000
    19  H    5.148998   4.488982   1.098201   0.000000
    20  H    5.459610   4.715954   1.094431   1.761353   0.000000
    21  H    4.897524   4.725136   1.091984   1.764711   1.770436
    22  C    4.642089   4.559589   3.010571   4.108465   2.918999
    23  H    5.364625   4.953670   2.800364   3.852280   2.321372
    24  H    5.140458   5.199482   4.109318   5.207452   3.946715
    25  H    4.776061   4.963943   2.904232   3.944655   3.033642
    26  C    3.740660   3.015144   3.875782   4.754456   3.825104
    27  H    4.285484   3.829591   4.815913   5.759925   4.699320
    28  H    4.610565   3.588657   3.715066   4.536203   3.389902
    29  H    3.169880   2.203794   4.276371   4.996413   4.395031
                   21         22         23         24         25
    21  H    0.000000
    22  C    2.869585   0.000000
    23  H    2.861309   1.090729   0.000000
    24  H    3.916728   1.100163   1.775634   0.000000
    25  H    2.375118   1.090419   1.797966   1.759687   0.000000
    26  C    4.361252   2.558914   2.782569   2.841512   3.496395
    27  H    5.168765   2.853259   3.182186   2.695686   3.838450
    28  H    4.355018   2.777045   2.554225   3.159180   3.773728
    29  H    4.862009   3.491756   3.769906   3.832509   4.306251
                   26         27         28         29
    26  C    0.000000
    27  H    1.099631   0.000000
    28  H    1.092211   1.784253   0.000000
    29  H    1.090823   1.763495   1.795255   0.000000
 Framework group  C1[X(C8H16Cl3FeO)]
 Deg. of freedom    81
                         Standard orientation:                         
 ---------------------------------------------------------------------
 Center     Atomic      Atomic             Coordinates (Angstroms)
 Number     Number       Type             X           Y           Z
 ---------------------------------------------------------------------
      1          8           0       -0.363505   -0.062643   -0.483424
      2          6           0       -1.253296   -1.027709   -0.447503
      3          6           0       -3.100579    0.026289   -0.132652
      4          6           0       -2.183011    1.054633   -0.231326
      5          6           0       -1.953014    1.753576   -1.533074
      6         26           0        1.444343    0.051358    0.056586
      7         17           0        2.050359    1.984089   -0.797339
      8          6           0       -1.605140    1.722110    0.977315
      9         17           0        2.354623   -1.765968   -0.792306
     10         17           0        1.443015    0.033512    2.264742
     11          1           0       -3.615763   -0.248235   -1.050407
     12          1           0       -2.359234    2.431192    1.349409
     13          1           0       -1.378280    1.028088    1.787593
     14          1           0       -0.700445    2.280717    0.732306
     15          1           0       -2.526600    2.691507   -1.491661
     16          1           0       -0.900841    2.010926   -1.671409
     17          1           0       -2.318553    1.183879   -2.390142
     18          6           0       -3.785340   -0.404414    1.138276
     19          1           0       -4.704107    0.180773    1.277810
     20          1           0       -4.081994   -1.457041    1.096409
     21          1           0       -3.168775   -0.260047    2.027902
     22          6           0       -1.223981   -1.937607    0.748025
     23          1           0       -2.086420   -2.603772    0.793985
     24          1           0       -0.319723   -2.551812    0.623810
     25          1           0       -1.106009   -1.385028    1.680630
     26          6           0       -1.562786   -1.669266   -1.774126
     27          1           0       -0.667396   -2.252924   -2.032600
     28          1           0       -2.422613   -2.340938   -1.724339
     29          1           0       -1.701195   -0.924896   -2.559397
 ---------------------------------------------------------------------
 Rotational constants (GHZ):           0.5927334           0.3406851           0.3176590
   427 basis functions,  1056 primitive gaussians,   461 cartesian basis functions
    77 alpha electrons       72 beta electrons
       nuclear repulsion energy      1655.7557656790 Hartrees.
 NAtoms=   29 NActive=   29 NUniq=   29 SFac= 1.00D+00 NAtFMM=   60 NAOKFM=F Big=F
 ExpMin= 1.40D-02 ExpMax= 4.32D+06 ExpMxC= 4.91D+03 IAcc=3 IRadAn=         5 AccDes= 0.00D+00
 Harris functional with IExCor= 1009 and IRadAn=       5 diagonalized for initial guess.
 HarFok:  IExCor= 1009 AccDes= 0.00D+00 IRadAn=         5 IDoV= 1 UseB2=F ITyADJ=14
 ICtDFT=  3500011 ScaDFX=  1.000000  1.000000  1.000000  1.000000
 FoFCou: FMM=F IPFlag=           0 FMFlag=      100000 FMFlg1=           0
         NFxFlg=           0 DoJE=T BraDBF=F KetDBF=T FulRan=T
         wScrn=  0.000000 ICntrl=       500 IOpCl=  0 I1Cent=   200000004 NGrid=           0
         NMat0=    1 NMatS0=      1 NMatT0=    0 NMatD0=    1 NMtDS0=    0 NMtDT0=    0
 Petite list used in FoFCou.
 Initial guess <Sx>= 0.0000 <Sy>= 0.0000 <Sz>= 2.5000 <S**2>= 8.7500 S= 2.5000
 EnCoef did   100 forward-backward iterations
 SCF Done:  E(UPBE1PBE) =  -3033.09605980     A.U. after   20 cycles
            NFock= 20  Conv=0.54D-08     -V/T= 2.0021
 <Sx>= 0.0000 <Sy>= 0.0000 <Sz>= 2.5000 <S**2>= 8.7627 S= 2.5021
 <L.S>= 0.000000000000E+00
 Annihilation of the first spin contaminant:
 S**2 before annihilation     8.7627,   after     8.7501
 1\1\GINC-HOLY7C08610\SP\UPBE1PBE\Jul-CC-pVDZ\C8H16Cl3Fe1O1(6)\EKWAN\11
 -Feb-2020\0\\#t pop=none jul-cc-pvdz upbe1pbe\\theory_abbreviation pbe
 0\\0,6\O,0,-0.363505,-0.062643,-0.483424\C,0,-1.253296,-1.027709,-0.44
 7503\C,0,-3.100579,0.026289,-0.132652\C,0,-2.183011,1.054633,-0.231326
 \C,0,-1.953014,1.753576,-1.533074\Fe,0,1.444343,0.051358,0.056586\Cl,0
 ,2.050359,1.984089,-0.797339\C,0,-1.60514,1.72211,0.977315\Cl,0,2.3546
 23,-1.765968,-0.792306\Cl,0,1.443015,0.033512,2.264742\H,0,-3.615763,-
 0.248235,-1.050407\H,0,-2.359234,2.431192,1.349409\H,0,-1.37828,1.0280
 88,1.787593\H,0,-0.700445,2.280717,0.732306\H,0,-2.5266,2.691507,-1.49
 1661\H,0,-0.900841,2.010926,-1.671409\H,0,-2.318553,1.183879,-2.390142
 \C,0,-3.78534,-0.404414,1.138276\H,0,-4.704107,0.180773,1.27781\H,0,-4
 .081994,-1.457041,1.096409\H,0,-3.168775,-0.260047,2.027902\C,0,-1.223
 981,-1.937607,0.748025\H,0,-2.08642,-2.603772,0.793985\H,0,-0.319723,-
 2.551812,0.62381\H,0,-1.106009,-1.385028,1.68063\C,0,-1.562786,-1.6692
 66,-1.774126\H,0,-0.667396,-2.252924,-2.0326\H,0,-2.422613,-2.340938,-
 1.724339\H,0,-1.701195,-0.924896,-2.559397\\Version=ES64L-G16RevA.03\H
 F=-3033.0960598\S2=8.762731\S2-1=0.\S2A=8.75005\RMSD=5.418e-09\PG=C01 
 [X(C8H16Cl3Fe1O1)]\\@


 ONLY THE DAY DAWNS TO WHICH YOU ARE AWAKE.

                                 -- THOREAU
 Job cpu time:       0 days  1 hours 28 minutes  8.9 seconds.
 Elapsed time:       0 days  0 hours 22 minutes  7.0 seconds.
 File lengths (MBytes):  RWF=    173 Int=      0 D2E=      0 Chk=     13 Scr=      1
 Normal termination of Gaussian 16 at Tue Feb 11 13:58:51 2020.
 Initial command:
 /n/sw/g16_nehalem/g16/l1.exe "/scratch/Gau-425466.inp" -scrdir="/scratch/"
 Entering Link 1 = /n/sw/g16_nehalem/g16/l1.exe PID=    427139.
  
 Copyright (c) 1988,1990,1992,1993,1995,1998,2003,2009,2016,
            Gaussian, Inc.  All Rights Reserved.
  
 This is part of the Gaussian(R) 16 program.  It is based on
 the Gaussian(R) 09 system (copyright 2009, Gaussian, Inc.),
 the Gaussian(R) 03 system (copyright 2003, Gaussian, Inc.),
 the Gaussian(R) 98 system (copyright 1998, Gaussian, Inc.),
 the Gaussian(R) 94 system (copyright 1995, Gaussian, Inc.),
 the Gaussian 92(TM) system (copyright 1992, Gaussian, Inc.),
 the Gaussian 90(TM) system (copyright 1990, Gaussian, Inc.),
 the Gaussian 88(TM) system (copyright 1988, Gaussian, Inc.),
 the Gaussian 86(TM) system (copyright 1986, Carnegie Mellon
 University), and the Gaussian 82(TM) system (copyright 1983,
 Carnegie Mellon University). Gaussian is a federally registered
 trademark of Gaussian, Inc.
  
 This software contains proprietary and confidential information,
 including trade secrets, belonging to Gaussian, Inc.
  
 This software is provided under written license and may be
 used, copied, transmitted, or stored only in accord with that
 written license.
  
 The following legend is applicable only to US Government
 contracts under FAR:
  
                    RESTRICTED RIGHTS LEGEND
  
 Use, reproduction and disclosure by the US Government is
 subject to restrictions as set forth in subparagraphs (a)
 and (c) of the Commercial Computer Software - Restricted
 Rights clause in FAR 52.227-19.
  
 Gaussian, Inc.
 340 Quinnipiac St., Bldg. 40, Wallingford CT 06492
  
  
 ---------------------------------------------------------------
 Warning -- This program may not be used in any manner that
 competes with the business of Gaussian, Inc. or will provide
 assistance to any competitor of Gaussian, Inc.  The licensee
 of this program is prohibited from giving any competitor of
 Gaussian, Inc. access to this program.  By using this program,
 the user acknowledges that Gaussian, Inc. is engaged in the
 business of creating and licensing software in the field of
 computational chemistry and represents and warrants to the
 licensee that it is not a competitor of Gaussian, Inc. and that
 it will not use this program in any manner prohibited above.
 ---------------------------------------------------------------
  

 Cite this work as:
 Gaussian 16, Revision A.03,
 M. J. Frisch, G. W. Trucks, H. B. Schlegel, G. E. Scuseria, 
 M. A. Robb, J. R. Cheeseman, G. Scalmani, V. Barone, 
 G. A. Petersson, H. Nakatsuji, X. Li, M. Caricato, A. V. Marenich, 
 J. Bloino, B. G. Janesko, R. Gomperts, B. Mennucci, H. P. Hratchian, 
 J. V. Ortiz, A. F. Izmaylov, J. L. Sonnenberg, D. Williams-Young, 
 F. Ding, F. Lipparini, F. Egidi, J. Goings, B. Peng, A. Petrone, 
 T. Henderson, D. Ranasinghe, V. G. Zakrzewski, J. Gao, N. Rega, 
 G. Zheng, W. Liang, M. Hada, M. Ehara, K. Toyota, R. Fukuda, 
 J. Hasegawa, M. Ishida, T. Nakajima, Y. Honda, O. Kitao, H. Nakai, 
 T. Vreven, K. Throssell, J. A. Montgomery, Jr., J. E. Peralta, 
 F. Ogliaro, M. J. Bearpark, J. J. Heyd, E. N. Brothers, K. N. Kudin, 
 V. N. Staroverov, T. A. Keith, R. Kobayashi, J. Normand, 
 K. Raghavachari, A. P. Rendell, J. C. Burant, S. S. Iyengar, 
 J. Tomasi, M. Cossi, J. M. Millam, M. Klene, C. Adamo, R. Cammi, 
 J. W. Ochterski, R. L. Martin, K. Morokuma, O. Farkas, 
 J. B. Foresman, and D. J. Fox, Gaussian, Inc., Wallingford CT, 2016.
 
 ******************************************
 Gaussian 16:  ES64L-G16RevA.03 25-Dec-2016
                11-Feb-2020 
 ******************************************
 %chk=checkpoint.chk
 %mem=3GB
 %nprocshared=4
 Will use up to    4 processors via shared memory.
 ---------------------------------------------------------------------
 #t pop=none jul-cc-pvdz guess=read upbe1pbe empiricaldispersion=gd3bj
 ---------------------------------------------------------------------
 -----------------------------
 theory_abbreviation pbe0_d3bj
 -----------------------------
 Symbolic Z-matrix:
 Charge =  0 Multiplicity = 6
 O                    -0.36351  -0.06264  -0.48342 
 C                    -1.2533   -1.02771  -0.4475 
 C                    -3.10058   0.02629  -0.13265 
 C                    -2.18301   1.05463  -0.23133 
 C                    -1.95301   1.75358  -1.53307 
 Fe                    1.44434   0.05136   0.05659 
 Cl                    2.05036   1.98409  -0.79734 
 C                    -1.60514   1.72211   0.97732 
 Cl                    2.35462  -1.76597  -0.79231 
 Cl                    1.44302   0.03351   2.26474 
 H                    -3.61576  -0.24824  -1.05041 
 H                    -2.35923   2.43119   1.34941 
 H                    -1.37828   1.02809   1.78759 
 H                    -0.70045   2.28072   0.73231 
 H                    -2.5266    2.69151  -1.49166 
 H                    -0.90084   2.01093  -1.67141 
 H                    -2.31855   1.18388  -2.39014 
 C                    -3.78534  -0.40441   1.13828 
 H                    -4.70411   0.18077   1.27781 
 H                    -4.08199  -1.45704   1.09641 
 H                    -3.16878  -0.26005   2.0279 
 C                    -1.22398  -1.93761   0.74803 
 H                    -2.08642  -2.60377   0.79399 
 H                    -0.31972  -2.55181   0.62381 
 H                    -1.10601  -1.38503   1.68063 
 C                    -1.56279  -1.66927  -1.77413 
 H                    -0.6674   -2.25292  -2.0326 
 H                    -2.42261  -2.34094  -1.72434 
 H                    -1.7012   -0.9249   -2.5594 
 
                    Distance matrix (angstroms):
                    1          2          3          4          5
     1  O    0.000000
     2  C    1.313153   0.000000
     3  C    2.760892   2.149999   0.000000
     4  C    2.149991   2.290688   1.381723   0.000000
     5  C    2.631911   3.066532   2.502320   1.495315   0.000000
     6  Fe   1.890217   2.948855   4.548929   3.774540   4.119053
     7  Cl   3.180313   4.484133   5.550401   4.371005   4.076940
     8  C    2.619305   3.116954   2.518764   1.496754   2.534573
     9  Cl   3.222568   3.698783   5.779841   5.372207   5.611743
    10  Cl   3.290164   3.968949   5.137295   4.518972   5.377271
    11  H    3.306523   2.559751   1.087682   2.102650   2.646686
    12  H    3.682584   4.051665   2.920557   2.103495   2.988793
    13  H    2.716060   3.039338   2.767175   2.173553   3.447243
    14  H    2.661365   3.555738   3.404591   2.151713   2.641733
    15  H    3.644292   4.067448   3.046267   2.094243   1.100196
    16  H    2.449434   3.294764   3.338473   2.152277   1.091986
    17  H    3.001933   3.130454   2.654777   2.166925   1.092126
    18  C    3.802062   3.051957   1.506539   2.563608   3.892358
    19  H    4.690631   4.042923   2.141161   3.065460   4.235952
    20  H    4.274035   3.251080   2.161951   3.417239   4.664204
    21  H    3.770314   3.222731   2.180512   2.793604   4.267705
    22  C    2.402577   1.502685   2.855538   3.291256   4.399970
    23  H    3.325289   2.172409   2.967220   3.800595   4.941607
    24  H    2.724674   2.083785   3.866782   4.148439   5.084895
    25  H    2.642564   2.162943   3.042715   3.281380   4.571230
    26  C    2.384413   1.505758   2.816762   3.191322   3.453438
    27  H    2.699931   2.087334   3.837316   4.059755   4.237261
    28  H    3.312163   2.173058   2.932042   3.717042   4.125791
    29  H    2.615828   2.161314   2.958398   3.093638   2.879403
                    6          7          8          9         10
     6  Fe   0.000000
     7  Cl   2.198157   0.000000
     8  C    3.597013   4.071941   0.000000
     9  Cl   2.202703   3.762383   5.565786   0.000000
    10  Cl   2.208229   3.681027   3.714846   3.662608   0.000000
    11  H    5.188435   6.095265   3.469369   6.165682   6.054819
    12  H    4.669283   4.924727   1.099959   6.665099   4.587352
    13  H    3.452186   4.399020   1.090726   5.328902   3.029283
    14  H    3.166505   3.161443   1.091121   5.294671   3.463049
    15  H    5.013566   4.683063   2.807964   6.647144   6.077281
    16  H    3.510806   3.078035   2.755937   5.063180   4.989701
    17  H    4.629089   4.718554   3.484023   5.752673   6.094316
    18  C    5.359792   6.595979   3.049801   6.578763   5.366228
    19  H    6.269894   7.292531   3.474135   7.609261   6.227586
    20  H    5.822104   7.282404   4.031872   6.715111   5.840589
    21  H    5.026322   6.344879   2.734526   6.381951   4.627189
    22  C    3.399121   5.337523   3.686650   3.899806   3.646726
    23  H    4.478812   6.379163   4.356431   4.789687   4.644922
    24  H    3.195335   5.311436   4.477016   3.126510   3.533243
    25  H    3.347390   5.239651   3.224607   4.270422   2.975057
    26  C    3.918530   5.230290   4.367339   4.039730   5.314767
    27  H    3.759502   5.183082   5.073445   3.302734   5.305542
    28  H    4.883454   6.290681   4.947278   4.901149   6.041015
    29  H    4.206049   5.063714   4.418620   4.503296   5.837544
                   11         12         13         14         15
    11  H    0.000000
    12  H    3.810159   0.000000
    13  H    3.832698   1.767195   0.000000
    14  H    4.251205   1.776243   1.772617   0.000000
    15  H    3.165922   2.857876   3.852156   2.906823   0.000000
    16  H    3.586120   3.380662   3.627480   2.427095   1.771607
    17  H    2.351296   3.942295   4.285073   3.683885   1.767341
    18  C    2.200791   3.181040   2.875346   4.109905   4.252731
    19  H    2.605597   3.250837   3.469719   4.553751   4.326117
    20  H    2.507469   4.260313   3.736800   5.053541   5.131063
    21  H    3.110615   2.891103   2.218764   3.771830   4.638037
    22  C    3.436416   4.553775   3.146404   4.250717   5.304876
    23  H    3.359944   5.072848   3.831335   5.077693   5.784282
    24  H    4.355841   5.432902   3.910322   4.848717   6.069425
    25  H    3.879398   4.030362   2.430782   3.808082   5.357205
    26  C    2.599579   5.215799   4.471644   4.756911   4.474937
    27  H    3.698155   6.020070   5.085693   5.310339   5.310052
    28  H    2.501439   5.676722   4.977412   5.510051   5.038894
    29  H    2.529919   5.193756   4.776478   4.702421   3.860016
                   16         17         18         19         20
    16  H    0.000000
    17  H    1.791784   0.000000
    18  C    4.695586   4.138100   0.000000
    19  H    5.148998   4.488982   1.098201   0.000000
    20  H    5.459610   4.715954   1.094431   1.761353   0.000000
    21  H    4.897524   4.725136   1.091984   1.764711   1.770436
    22  C    4.642089   4.559589   3.010571   4.108465   2.918999
    23  H    5.364625   4.953670   2.800364   3.852280   2.321372
    24  H    5.140458   5.199482   4.109318   5.207452   3.946715
    25  H    4.776061   4.963943   2.904232   3.944655   3.033642
    26  C    3.740660   3.015144   3.875782   4.754456   3.825104
    27  H    4.285484   3.829591   4.815913   5.759925   4.699320
    28  H    4.610565   3.588657   3.715066   4.536203   3.389902
    29  H    3.169880   2.203794   4.276371   4.996413   4.395031
                   21         22         23         24         25
    21  H    0.000000
    22  C    2.869585   0.000000
    23  H    2.861309   1.090729   0.000000
    24  H    3.916728   1.100163   1.775634   0.000000
    25  H    2.375118   1.090419   1.797966   1.759687   0.000000
    26  C    4.361252   2.558914   2.782569   2.841512   3.496395
    27  H    5.168765   2.853259   3.182186   2.695686   3.838450
    28  H    4.355018   2.777045   2.554225   3.159180   3.773728
    29  H    4.862009   3.491756   3.769906   3.832509   4.306251
                   26         27         28         29
    26  C    0.000000
    27  H    1.099631   0.000000
    28  H    1.092211   1.784253   0.000000
    29  H    1.090823   1.763495   1.795255   0.000000
 Framework group  C1[X(C8H16Cl3FeO)]
 Deg. of freedom    81
                         Standard orientation:                         
 ---------------------------------------------------------------------
 Center     Atomic      Atomic             Coordinates (Angstroms)
 Number     Number       Type             X           Y           Z
 ---------------------------------------------------------------------
      1          8           0       -0.363505   -0.062643   -0.483424
      2          6           0       -1.253296   -1.027709   -0.447503
      3          6           0       -3.100579    0.026289   -0.132652
      4          6           0       -2.183011    1.054633   -0.231326
      5          6           0       -1.953014    1.753576   -1.533074
      6         26           0        1.444343    0.051358    0.056586
      7         17           0        2.050359    1.984089   -0.797339
      8          6           0       -1.605140    1.722110    0.977315
      9         17           0        2.354623   -1.765968   -0.792306
     10         17           0        1.443015    0.033512    2.264742
     11          1           0       -3.615763   -0.248235   -1.050407
     12          1           0       -2.359234    2.431192    1.349409
     13          1           0       -1.378280    1.028088    1.787593
     14          1           0       -0.700445    2.280717    0.732306
     15          1           0       -2.526600    2.691507   -1.491661
     16          1           0       -0.900841    2.010926   -1.671409
     17          1           0       -2.318553    1.183879   -2.390142
     18          6           0       -3.785340   -0.404414    1.138276
     19          1           0       -4.704107    0.180773    1.277810
     20          1           0       -4.081994   -1.457041    1.096409
     21          1           0       -3.168775   -0.260047    2.027902
     22          6           0       -1.223981   -1.937607    0.748025
     23          1           0       -2.086420   -2.603772    0.793985
     24          1           0       -0.319723   -2.551812    0.623810
     25          1           0       -1.106009   -1.385028    1.680630
     26          6           0       -1.562786   -1.669266   -1.774126
     27          1           0       -0.667396   -2.252924   -2.032600
     28          1           0       -2.422613   -2.340938   -1.724339
     29          1           0       -1.701195   -0.924896   -2.559397
 ---------------------------------------------------------------------
 Rotational constants (GHZ):           0.5927334           0.3406851           0.3176590
   427 basis functions,  1056 primitive gaussians,   461 cartesian basis functions
    77 alpha electrons       72 beta electrons
       nuclear repulsion energy      1655.7557656790 Hartrees.
 NAtoms=   29 NActive=   29 NUniq=   29 SFac= 1.00D+00 NAtFMM=   60 NAOKFM=F Big=F
 Nuclear repulsion after empirical dispersion term =     1655.7177445721 Hartrees.
 Initial guess from the checkpoint file:  "checkpoint.chk"
 B after Tr=     0.000000    0.000000    0.000000
         Rot=    1.000000    0.000000    0.000000    0.000000 Ang=   0.00 deg.
 Initial guess <Sx>= 0.0000 <Sy>= 0.0000 <Sz>= 2.5000 <S**2>= 8.7627 S= 2.5021
 SCF Done:  E(UPBE1PBE) =  -3033.13408091     A.U. after    1 cycles
            NFock=  1  Conv=0.24D-08     -V/T= 2.0021
 <Sx>= 0.0000 <Sy>= 0.0000 <Sz>= 2.5000 <S**2>= 8.7627 S= 2.5021
 <L.S>= 0.000000000000E+00
 Annihilation of the first spin contaminant:
 S**2 before annihilation     8.7627,   after     8.7501
 1\1\GINC-HOLY7C08610\SP\UPBE1PBE\Jul-CC-pVDZ\C8H16Cl3Fe1O1(6)\EKWAN\11
 -Feb-2020\0\\#t pop=none jul-cc-pvdz guess=read upbe1pbe empiricaldisp
 ersion=gd3bj\\theory_abbreviation pbe0_d3bj\\0,6\O,0,-0.363505,-0.0626
 43,-0.483424\C,0,-1.253296,-1.027709,-0.447503\C,0,-3.100579,0.026289,
 -0.132652\C,0,-2.183011,1.054633,-0.231326\C,0,-1.953014,1.753576,-1.5
 33074\Fe,0,1.444343,0.051358,0.056586\Cl,0,2.050359,1.984089,-0.797339
 \C,0,-1.60514,1.72211,0.977315\Cl,0,2.354623,-1.765968,-0.792306\Cl,0,
 1.443015,0.033512,2.264742\H,0,-3.615763,-0.248235,-1.050407\H,0,-2.35
 9234,2.431192,1.349409\H,0,-1.37828,1.028088,1.787593\H,0,-0.700445,2.
 280717,0.732306\H,0,-2.5266,2.691507,-1.491661\H,0,-0.900841,2.010926,
 -1.671409\H,0,-2.318553,1.183879,-2.390142\C,0,-3.78534,-0.404414,1.13
 8276\H,0,-4.704107,0.180773,1.27781\H,0,-4.081994,-1.457041,1.096409\H
 ,0,-3.168775,-0.260047,2.027902\C,0,-1.223981,-1.937607,0.748025\H,0,-
 2.08642,-2.603772,0.793985\H,0,-0.319723,-2.551812,0.62381\H,0,-1.1060
 09,-1.385028,1.68063\C,0,-1.562786,-1.669266,-1.774126\H,0,-0.667396,-
 2.252924,-2.0326\H,0,-2.422613,-2.340938,-1.724339\H,0,-1.701195,-0.92
 4896,-2.559397\\Version=ES64L-G16RevA.03\HF=-3033.1340809\S2=8.762731\
 S2-1=0.\S2A=8.75005\RMSD=2.350e-09\PG=C01 [X(C8H16Cl3Fe1O1)]\\@


 THERE'S SMALL CHOICE IN A BOWL OF ROTTEN APPLES.
                     SHAKESPEARE
 Job cpu time:       0 days  0 hours  4 minutes 42.6 seconds.
 Elapsed time:       0 days  0 hours  1 minutes 11.1 seconds.
 File lengths (MBytes):  RWF=    170 Int=      0 D2E=      0 Chk=     13 Scr=      1
 Normal termination of Gaussian 16 at Tue Feb 11 14:00:02 2020.
 Initial command:
 /n/sw/g16_nehalem/g16/l1.exe "/scratch/Gau-425466.inp" -scrdir="/scratch/"
 Entering Link 1 = /n/sw/g16_nehalem/g16/l1.exe PID=    427544.
  
 Copyright (c) 1988,1990,1992,1993,1995,1998,2003,2009,2016,
            Gaussian, Inc.  All Rights Reserved.
  
 This is part of the Gaussian(R) 16 program.  It is based on
 the Gaussian(R) 09 system (copyright 2009, Gaussian, Inc.),
 the Gaussian(R) 03 system (copyright 2003, Gaussian, Inc.),
 the Gaussian(R) 98 system (copyright 1998, Gaussian, Inc.),
 the Gaussian(R) 94 system (copyright 1995, Gaussian, Inc.),
 the Gaussian 92(TM) system (copyright 1992, Gaussian, Inc.),
 the Gaussian 90(TM) system (copyright 1990, Gaussian, Inc.),
 the Gaussian 88(TM) system (copyright 1988, Gaussian, Inc.),
 the Gaussian 86(TM) system (copyright 1986, Carnegie Mellon
 University), and the Gaussian 82(TM) system (copyright 1983,
 Carnegie Mellon University). Gaussian is a federally registered
 trademark of Gaussian, Inc.
  
 This software contains proprietary and confidential information,
 including trade secrets, belonging to Gaussian, Inc.
  
 This software is provided under written license and may be
 used, copied, transmitted, or stored only in accord with that
 written license.
  
 The following legend is applicable only to US Government
 contracts under FAR:
  
                    RESTRICTED RIGHTS LEGEND
  
 Use, reproduction and disclosure by the US Government is
 subject to restrictions as set forth in subparagraphs (a)
 and (c) of the Commercial Computer Software - Restricted
 Rights clause in FAR 52.227-19.
  
 Gaussian, Inc.
 340 Quinnipiac St., Bldg. 40, Wallingford CT 06492
  
  
 ---------------------------------------------------------------
 Warning -- This program may not be used in any manner that
 competes with the business of Gaussian, Inc. or will provide
 assistance to any competitor of Gaussian, Inc.  The licensee
 of this program is prohibited from giving any competitor of
 Gaussian, Inc. access to this program.  By using this program,
 the user acknowledges that Gaussian, Inc. is engaged in the
 business of creating and licensing software in the field of
 computational chemistry and represents and warrants to the
 licensee that it is not a competitor of Gaussian, Inc. and that
 it will not use this program in any manner prohibited above.
 ---------------------------------------------------------------
  

 Cite this work as:
 Gaussian 16, Revision A.03,
 M. J. Frisch, G. W. Trucks, H. B. Schlegel, G. E. Scuseria, 
 M. A. Robb, J. R. Cheeseman, G. Scalmani, V. Barone, 
 G. A. Petersson, H. Nakatsuji, X. Li, M. Caricato, A. V. Marenich, 
 J. Bloino, B. G. Janesko, R. Gomperts, B. Mennucci, H. P. Hratchian, 
 J. V. Ortiz, A. F. Izmaylov, J. L. Sonnenberg, D. Williams-Young, 
 F. Ding, F. Lipparini, F. Egidi, J. Goings, B. Peng, A. Petrone, 
 T. Henderson, D. Ranasinghe, V. G. Zakrzewski, J. Gao, N. Rega, 
 G. Zheng, W. Liang, M. Hada, M. Ehara, K. Toyota, R. Fukuda, 
 J. Hasegawa, M. Ishida, T. Nakajima, Y. Honda, O. Kitao, H. Nakai, 
 T. Vreven, K. Throssell, J. A. Montgomery, Jr., J. E. Peralta, 
 F. Ogliaro, M. J. Bearpark, J. J. Heyd, E. N. Brothers, K. N. Kudin, 
 V. N. Staroverov, T. A. Keith, R. Kobayashi, J. Normand, 
 K. Raghavachari, A. P. Rendell, J. C. Burant, S. S. Iyengar, 
 J. Tomasi, M. Cossi, J. M. Millam, M. Klene, C. Adamo, R. Cammi, 
 J. W. Ochterski, R. L. Martin, K. Morokuma, O. Farkas, 
 J. B. Foresman, and D. J. Fox, Gaussian, Inc., Wallingford CT, 2016.
 
 ******************************************
 Gaussian 16:  ES64L-G16RevA.03 25-Dec-2016
                11-Feb-2020 
 ******************************************
 %chk=checkpoint.chk
 %mem=3GB
 %nprocshared=4
 Will use up to    4 processors via shared memory.
 -----------------------------------------
 #t pop=none jul-cc-pvdz guess=read ub3lyp
 -----------------------------------------
 -------------------------
 theory_abbreviation b3lyp
 -------------------------
 Symbolic Z-matrix:
 Charge =  0 Multiplicity = 6
 O                    -0.36351  -0.06264  -0.48342 
 C                    -1.2533   -1.02771  -0.4475 
 C                    -3.10058   0.02629  -0.13265 
 C                    -2.18301   1.05463  -0.23133 
 C                    -1.95301   1.75358  -1.53307 
 Fe                    1.44434   0.05136   0.05659 
 Cl                    2.05036   1.98409  -0.79734 
 C                    -1.60514   1.72211   0.97732 
 Cl                    2.35462  -1.76597  -0.79231 
 Cl                    1.44302   0.03351   2.26474 
 H                    -3.61576  -0.24824  -1.05041 
 H                    -2.35923   2.43119   1.34941 
 H                    -1.37828   1.02809   1.78759 
 H                    -0.70045   2.28072   0.73231 
 H                    -2.5266    2.69151  -1.49166 
 H                    -0.90084   2.01093  -1.67141 
 H                    -2.31855   1.18388  -2.39014 
 C                    -3.78534  -0.40441   1.13828 
 H                    -4.70411   0.18077   1.27781 
 H                    -4.08199  -1.45704   1.09641 
 H                    -3.16878  -0.26005   2.0279 
 C                    -1.22398  -1.93761   0.74803 
 H                    -2.08642  -2.60377   0.79399 
 H                    -0.31972  -2.55181   0.62381 
 H                    -1.10601  -1.38503   1.68063 
 C                    -1.56279  -1.66927  -1.77413 
 H                    -0.6674   -2.25292  -2.0326 
 H                    -2.42261  -2.34094  -1.72434 
 H                    -1.7012   -0.9249   -2.5594 
 
                    Distance matrix (angstroms):
                    1          2          3          4          5
     1  O    0.000000
     2  C    1.313153   0.000000
     3  C    2.760892   2.149999   0.000000
     4  C    2.149991   2.290688   1.381723   0.000000
     5  C    2.631911   3.066532   2.502320   1.495315   0.000000
     6  Fe   1.890217   2.948855   4.548929   3.774540   4.119053
     7  Cl   3.180313   4.484133   5.550401   4.371005   4.076940
     8  C    2.619305   3.116954   2.518764   1.496754   2.534573
     9  Cl   3.222568   3.698783   5.779841   5.372207   5.611743
    10  Cl   3.290164   3.968949   5.137295   4.518972   5.377271
    11  H    3.306523   2.559751   1.087682   2.102650   2.646686
    12  H    3.682584   4.051665   2.920557   2.103495   2.988793
    13  H    2.716060   3.039338   2.767175   2.173553   3.447243
    14  H    2.661365   3.555738   3.404591   2.151713   2.641733
    15  H    3.644292   4.067448   3.046267   2.094243   1.100196
    16  H    2.449434   3.294764   3.338473   2.152277   1.091986
    17  H    3.001933   3.130454   2.654777   2.166925   1.092126
    18  C    3.802062   3.051957   1.506539   2.563608   3.892358
    19  H    4.690631   4.042923   2.141161   3.065460   4.235952
    20  H    4.274035   3.251080   2.161951   3.417239   4.664204
    21  H    3.770314   3.222731   2.180512   2.793604   4.267705
    22  C    2.402577   1.502685   2.855538   3.291256   4.399970
    23  H    3.325289   2.172409   2.967220   3.800595   4.941607
    24  H    2.724674   2.083785   3.866782   4.148439   5.084895
    25  H    2.642564   2.162943   3.042715   3.281380   4.571230
    26  C    2.384413   1.505758   2.816762   3.191322   3.453438
    27  H    2.699931   2.087334   3.837316   4.059755   4.237261
    28  H    3.312163   2.173058   2.932042   3.717042   4.125791
    29  H    2.615828   2.161314   2.958398   3.093638   2.879403
                    6          7          8          9         10
     6  Fe   0.000000
     7  Cl   2.198157   0.000000
     8  C    3.597013   4.071941   0.000000
     9  Cl   2.202703   3.762383   5.565786   0.000000
    10  Cl   2.208229   3.681027   3.714846   3.662608   0.000000
    11  H    5.188435   6.095265   3.469369   6.165682   6.054819
    12  H    4.669283   4.924727   1.099959   6.665099   4.587352
    13  H    3.452186   4.399020   1.090726   5.328902   3.029283
    14  H    3.166505   3.161443   1.091121   5.294671   3.463049
    15  H    5.013566   4.683063   2.807964   6.647144   6.077281
    16  H    3.510806   3.078035   2.755937   5.063180   4.989701
    17  H    4.629089   4.718554   3.484023   5.752673   6.094316
    18  C    5.359792   6.595979   3.049801   6.578763   5.366228
    19  H    6.269894   7.292531   3.474135   7.609261   6.227586
    20  H    5.822104   7.282404   4.031872   6.715111   5.840589
    21  H    5.026322   6.344879   2.734526   6.381951   4.627189
    22  C    3.399121   5.337523   3.686650   3.899806   3.646726
    23  H    4.478812   6.379163   4.356431   4.789687   4.644922
    24  H    3.195335   5.311436   4.477016   3.126510   3.533243
    25  H    3.347390   5.239651   3.224607   4.270422   2.975057
    26  C    3.918530   5.230290   4.367339   4.039730   5.314767
    27  H    3.759502   5.183082   5.073445   3.302734   5.305542
    28  H    4.883454   6.290681   4.947278   4.901149   6.041015
    29  H    4.206049   5.063714   4.418620   4.503296   5.837544
                   11         12         13         14         15
    11  H    0.000000
    12  H    3.810159   0.000000
    13  H    3.832698   1.767195   0.000000
    14  H    4.251205   1.776243   1.772617   0.000000
    15  H    3.165922   2.857876   3.852156   2.906823   0.000000
    16  H    3.586120   3.380662   3.627480   2.427095   1.771607
    17  H    2.351296   3.942295   4.285073   3.683885   1.767341
    18  C    2.200791   3.181040   2.875346   4.109905   4.252731
    19  H    2.605597   3.250837   3.469719   4.553751   4.326117
    20  H    2.507469   4.260313   3.736800   5.053541   5.131063
    21  H    3.110615   2.891103   2.218764   3.771830   4.638037
    22  C    3.436416   4.553775   3.146404   4.250717   5.304876
    23  H    3.359944   5.072848   3.831335   5.077693   5.784282
    24  H    4.355841   5.432902   3.910322   4.848717   6.069425
    25  H    3.879398   4.030362   2.430782   3.808082   5.357205
    26  C    2.599579   5.215799   4.471644   4.756911   4.474937
    27  H    3.698155   6.020070   5.085693   5.310339   5.310052
    28  H    2.501439   5.676722   4.977412   5.510051   5.038894
    29  H    2.529919   5.193756   4.776478   4.702421   3.860016
                   16         17         18         19         20
    16  H    0.000000
    17  H    1.791784   0.000000
    18  C    4.695586   4.138100   0.000000
    19  H    5.148998   4.488982   1.098201   0.000000
    20  H    5.459610   4.715954   1.094431   1.761353   0.000000
    21  H    4.897524   4.725136   1.091984   1.764711   1.770436
    22  C    4.642089   4.559589   3.010571   4.108465   2.918999
    23  H    5.364625   4.953670   2.800364   3.852280   2.321372
    24  H    5.140458   5.199482   4.109318   5.207452   3.946715
    25  H    4.776061   4.963943   2.904232   3.944655   3.033642
    26  C    3.740660   3.015144   3.875782   4.754456   3.825104
    27  H    4.285484   3.829591   4.815913   5.759925   4.699320
    28  H    4.610565   3.588657   3.715066   4.536203   3.389902
    29  H    3.169880   2.203794   4.276371   4.996413   4.395031
                   21         22         23         24         25
    21  H    0.000000
    22  C    2.869585   0.000000
    23  H    2.861309   1.090729   0.000000
    24  H    3.916728   1.100163   1.775634   0.000000
    25  H    2.375118   1.090419   1.797966   1.759687   0.000000
    26  C    4.361252   2.558914   2.782569   2.841512   3.496395
    27  H    5.168765   2.853259   3.182186   2.695686   3.838450
    28  H    4.355018   2.777045   2.554225   3.159180   3.773728
    29  H    4.862009   3.491756   3.769906   3.832509   4.306251
                   26         27         28         29
    26  C    0.000000
    27  H    1.099631   0.000000
    28  H    1.092211   1.784253   0.000000
    29  H    1.090823   1.763495   1.795255   0.000000
 Framework group  C1[X(C8H16Cl3FeO)]
 Deg. of freedom    81
                         Standard orientation:                         
 ---------------------------------------------------------------------
 Center     Atomic      Atomic             Coordinates (Angstroms)
 Number     Number       Type             X           Y           Z
 ---------------------------------------------------------------------
      1          8           0       -0.363505   -0.062643   -0.483424
      2          6           0       -1.253296   -1.027709   -0.447503
      3          6           0       -3.100579    0.026289   -0.132652
      4          6           0       -2.183011    1.054633   -0.231326
      5          6           0       -1.953014    1.753576   -1.533074
      6         26           0        1.444343    0.051358    0.056586
      7         17           0        2.050359    1.984089   -0.797339
      8          6           0       -1.605140    1.722110    0.977315
      9         17           0        2.354623   -1.765968   -0.792306
     10         17           0        1.443015    0.033512    2.264742
     11          1           0       -3.615763   -0.248235   -1.050407
     12          1           0       -2.359234    2.431192    1.349409
     13          1           0       -1.378280    1.028088    1.787593
     14          1           0       -0.700445    2.280717    0.732306
     15          1           0       -2.526600    2.691507   -1.491661
     16          1           0       -0.900841    2.010926   -1.671409
     17          1           0       -2.318553    1.183879   -2.390142
     18          6           0       -3.785340   -0.404414    1.138276
     19          1           0       -4.704107    0.180773    1.277810
     20          1           0       -4.081994   -1.457041    1.096409
     21          1           0       -3.168775   -0.260047    2.027902
     22          6           0       -1.223981   -1.937607    0.748025
     23          1           0       -2.086420   -2.603772    0.793985
     24          1           0       -0.319723   -2.551812    0.623810
     25          1           0       -1.106009   -1.385028    1.680630
     26          6           0       -1.562786   -1.669266   -1.774126
     27          1           0       -0.667396   -2.252924   -2.032600
     28          1           0       -2.422613   -2.340938   -1.724339
     29          1           0       -1.701195   -0.924896   -2.559397
 ---------------------------------------------------------------------
 Rotational constants (GHZ):           0.5927334           0.3406851           0.3176590
   427 basis functions,  1056 primitive gaussians,   461 cartesian basis functions
    77 alpha electrons       72 beta electrons
       nuclear repulsion energy      1655.7557656790 Hartrees.
 NAtoms=   29 NActive=   29 NUniq=   29 SFac= 1.00D+00 NAtFMM=   60 NAOKFM=F Big=F
 Initial guess from the checkpoint file:  "checkpoint.chk"
 B after Tr=     0.000000    0.000000    0.000000
         Rot=    1.000000    0.000000    0.000000    0.000000 Ang=   0.00 deg.
 Initial guess <Sx>= 0.0000 <Sy>= 0.0000 <Sz>= 2.5000 <S**2>= 8.7627 S= 2.5021
 SCF Done:  E(UB3LYP) =  -3034.30921912     A.U. after   15 cycles
            NFock= 15  Conv=0.57D-08     -V/T= 2.0024
 <Sx>= 0.0000 <Sy>= 0.0000 <Sz>= 2.5000 <S**2>= 8.7619 S= 2.5020
 <L.S>= 0.000000000000E+00
 Annihilation of the first spin contaminant:
 S**2 before annihilation     8.7619,   after     8.7500
 1\1\GINC-HOLY7C08610\SP\UB3LYP\Jul-CC-pVDZ\C8H16Cl3Fe1O1(6)\EKWAN\11-F
 eb-2020\0\\#t pop=none jul-cc-pvdz guess=read ub3lyp\\theory_abbreviat
 ion b3lyp\\0,6\O,0,-0.363505,-0.062643,-0.483424\C,0,-1.253296,-1.0277
 09,-0.447503\C,0,-3.100579,0.026289,-0.132652\C,0,-2.183011,1.054633,-
 0.231326\C,0,-1.953014,1.753576,-1.533074\Fe,0,1.444343,0.051358,0.056
 586\Cl,0,2.050359,1.984089,-0.797339\C,0,-1.60514,1.72211,0.977315\Cl,
 0,2.354623,-1.765968,-0.792306\Cl,0,1.443015,0.033512,2.264742\H,0,-3.
 615763,-0.248235,-1.050407\H,0,-2.359234,2.431192,1.349409\H,0,-1.3782
 8,1.028088,1.787593\H,0,-0.700445,2.280717,0.732306\H,0,-2.5266,2.6915
 07,-1.491661\H,0,-0.900841,2.010926,-1.671409\H,0,-2.318553,1.183879,-
 2.390142\C,0,-3.78534,-0.404414,1.138276\H,0,-4.704107,0.180773,1.2778
 1\H,0,-4.081994,-1.457041,1.096409\H,0,-3.168775,-0.260047,2.027902\C,
 0,-1.223981,-1.937607,0.748025\H,0,-2.08642,-2.603772,0.793985\H,0,-0.
 319723,-2.551812,0.62381\H,0,-1.106009,-1.385028,1.68063\C,0,-1.562786
 ,-1.669266,-1.774126\H,0,-0.667396,-2.252924,-2.0326\H,0,-2.422613,-2.
 340938,-1.724339\H,0,-1.701195,-0.924896,-2.559397\\Version=ES64L-G16R
 evA.03\HF=-3034.3092191\S2=8.761935\S2-1=0.\S2A=8.750044\RMSD=5.657e-0
 9\PG=C01 [X(C8H16Cl3Fe1O1)]\\@


 YOU CAN LEAD A BOY TO COLLEGE....
 BUT YOU CANNOT MAKE HIM THINK....
           ELBERT HUBBARD
 Job cpu time:       0 days  1 hours  4 minutes 13.7 seconds.
 Elapsed time:       0 days  0 hours 16 minutes  6.1 seconds.
 File lengths (MBytes):  RWF=    174 Int=      0 D2E=      0 Chk=     13 Scr=      1
 Normal termination of Gaussian 16 at Tue Feb 11 14:16:09 2020.
 Initial command:
 /n/sw/g16_nehalem/g16/l1.exe "/scratch/Gau-425466.inp" -scrdir="/scratch/"
 Entering Link 1 = /n/sw/g16_nehalem/g16/l1.exe PID=    429126.
  
 Copyright (c) 1988,1990,1992,1993,1995,1998,2003,2009,2016,
            Gaussian, Inc.  All Rights Reserved.
  
 This is part of the Gaussian(R) 16 program.  It is based on
 the Gaussian(R) 09 system (copyright 2009, Gaussian, Inc.),
 the Gaussian(R) 03 system (copyright 2003, Gaussian, Inc.),
 the Gaussian(R) 98 system (copyright 1998, Gaussian, Inc.),
 the Gaussian(R) 94 system (copyright 1995, Gaussian, Inc.),
 the Gaussian 92(TM) system (copyright 1992, Gaussian, Inc.),
 the Gaussian 90(TM) system (copyright 1990, Gaussian, Inc.),
 the Gaussian 88(TM) system (copyright 1988, Gaussian, Inc.),
 the Gaussian 86(TM) system (copyright 1986, Carnegie Mellon
 University), and the Gaussian 82(TM) system (copyright 1983,
 Carnegie Mellon University). Gaussian is a federally registered
 trademark of Gaussian, Inc.
  
 This software contains proprietary and confidential information,
 including trade secrets, belonging to Gaussian, Inc.
  
 This software is provided under written license and may be
 used, copied, transmitted, or stored only in accord with that
 written license.
  
 The following legend is applicable only to US Government
 contracts under FAR:
  
                    RESTRICTED RIGHTS LEGEND
  
 Use, reproduction and disclosure by the US Government is
 subject to restrictions as set forth in subparagraphs (a)
 and (c) of the Commercial Computer Software - Restricted
 Rights clause in FAR 52.227-19.
  
 Gaussian, Inc.
 340 Quinnipiac St., Bldg. 40, Wallingford CT 06492
  
  
 ---------------------------------------------------------------
 Warning -- This program may not be used in any manner that
 competes with the business of Gaussian, Inc. or will provide
 assistance to any competitor of Gaussian, Inc.  The licensee
 of this program is prohibited from giving any competitor of
 Gaussian, Inc. access to this program.  By using this program,
 the user acknowledges that Gaussian, Inc. is engaged in the
 business of creating and licensing software in the field of
 computational chemistry and represents and warrants to the
 licensee that it is not a competitor of Gaussian, Inc. and that
 it will not use this program in any manner prohibited above.
 ---------------------------------------------------------------
  

 Cite this work as:
 Gaussian 16, Revision A.03,
 M. J. Frisch, G. W. Trucks, H. B. Schlegel, G. E. Scuseria, 
 M. A. Robb, J. R. Cheeseman, G. Scalmani, V. Barone, 
 G. A. Petersson, H. Nakatsuji, X. Li, M. Caricato, A. V. Marenich, 
 J. Bloino, B. G. Janesko, R. Gomperts, B. Mennucci, H. P. Hratchian, 
 J. V. Ortiz, A. F. Izmaylov, J. L. Sonnenberg, D. Williams-Young, 
 F. Ding, F. Lipparini, F. Egidi, J. Goings, B. Peng, A. Petrone, 
 T. Henderson, D. Ranasinghe, V. G. Zakrzewski, J. Gao, N. Rega, 
 G. Zheng, W. Liang, M. Hada, M. Ehara, K. Toyota, R. Fukuda, 
 J. Hasegawa, M. Ishida, T. Nakajima, Y. Honda, O. Kitao, H. Nakai, 
 T. Vreven, K. Throssell, J. A. Montgomery, Jr., J. E. Peralta, 
 F. Ogliaro, M. J. Bearpark, J. J. Heyd, E. N. Brothers, K. N. Kudin, 
 V. N. Staroverov, T. A. Keith, R. Kobayashi, J. Normand, 
 K. Raghavachari, A. P. Rendell, J. C. Burant, S. S. Iyengar, 
 J. Tomasi, M. Cossi, J. M. Millam, M. Klene, C. Adamo, R. Cammi, 
 J. W. Ochterski, R. L. Martin, K. Morokuma, O. Farkas, 
 J. B. Foresman, and D. J. Fox, Gaussian, Inc., Wallingford CT, 2016.
 
 ******************************************
 Gaussian 16:  ES64L-G16RevA.03 25-Dec-2016
                11-Feb-2020 
 ******************************************
 %chk=checkpoint.chk
 %mem=3GB
 %nprocshared=4
 Will use up to    4 processors via shared memory.
 -------------------------------------------------------------------
 #t pop=none jul-cc-pvdz guess=read ub3lyp empiricaldispersion=gd3bj
 -------------------------------------------------------------------
 ------------------------------
 theory_abbreviation b3lyp_d3bj
 ------------------------------
 Symbolic Z-matrix:
 Charge =  0 Multiplicity = 6
 O                    -0.36351  -0.06264  -0.48342 
 C                    -1.2533   -1.02771  -0.4475 
 C                    -3.10058   0.02629  -0.13265 
 C                    -2.18301   1.05463  -0.23133 
 C                    -1.95301   1.75358  -1.53307 
 Fe                    1.44434   0.05136   0.05659 
 Cl                    2.05036   1.98409  -0.79734 
 C                    -1.60514   1.72211   0.97732 
 Cl                    2.35462  -1.76597  -0.79231 
 Cl                    1.44302   0.03351   2.26474 
 H                    -3.61576  -0.24824  -1.05041 
 H                    -2.35923   2.43119   1.34941 
 H                    -1.37828   1.02809   1.78759 
 H                    -0.70045   2.28072   0.73231 
 H                    -2.5266    2.69151  -1.49166 
 H                    -0.90084   2.01093  -1.67141 
 H                    -2.31855   1.18388  -2.39014 
 C                    -3.78534  -0.40441   1.13828 
 H                    -4.70411   0.18077   1.27781 
 H                    -4.08199  -1.45704   1.09641 
 H                    -3.16878  -0.26005   2.0279 
 C                    -1.22398  -1.93761   0.74803 
 H                    -2.08642  -2.60377   0.79399 
 H                    -0.31972  -2.55181   0.62381 
 H                    -1.10601  -1.38503   1.68063 
 C                    -1.56279  -1.66927  -1.77413 
 H                    -0.6674   -2.25292  -2.0326 
 H                    -2.42261  -2.34094  -1.72434 
 H                    -1.7012   -0.9249   -2.5594 
 
                    Distance matrix (angstroms):
                    1          2          3          4          5
     1  O    0.000000
     2  C    1.313153   0.000000
     3  C    2.760892   2.149999   0.000000
     4  C    2.149991   2.290688   1.381723   0.000000
     5  C    2.631911   3.066532   2.502320   1.495315   0.000000
     6  Fe   1.890217   2.948855   4.548929   3.774540   4.119053
     7  Cl   3.180313   4.484133   5.550401   4.371005   4.076940
     8  C    2.619305   3.116954   2.518764   1.496754   2.534573
     9  Cl   3.222568   3.698783   5.779841   5.372207   5.611743
    10  Cl   3.290164   3.968949   5.137295   4.518972   5.377271
    11  H    3.306523   2.559751   1.087682   2.102650   2.646686
    12  H    3.682584   4.051665   2.920557   2.103495   2.988793
    13  H    2.716060   3.039338   2.767175   2.173553   3.447243
    14  H    2.661365   3.555738   3.404591   2.151713   2.641733
    15  H    3.644292   4.067448   3.046267   2.094243   1.100196
    16  H    2.449434   3.294764   3.338473   2.152277   1.091986
    17  H    3.001933   3.130454   2.654777   2.166925   1.092126
    18  C    3.802062   3.051957   1.506539   2.563608   3.892358
    19  H    4.690631   4.042923   2.141161   3.065460   4.235952
    20  H    4.274035   3.251080   2.161951   3.417239   4.664204
    21  H    3.770314   3.222731   2.180512   2.793604   4.267705
    22  C    2.402577   1.502685   2.855538   3.291256   4.399970
    23  H    3.325289   2.172409   2.967220   3.800595   4.941607
    24  H    2.724674   2.083785   3.866782   4.148439   5.084895
    25  H    2.642564   2.162943   3.042715   3.281380   4.571230
    26  C    2.384413   1.505758   2.816762   3.191322   3.453438
    27  H    2.699931   2.087334   3.837316   4.059755   4.237261
    28  H    3.312163   2.173058   2.932042   3.717042   4.125791
    29  H    2.615828   2.161314   2.958398   3.093638   2.879403
                    6          7          8          9         10
     6  Fe   0.000000
     7  Cl   2.198157   0.000000
     8  C    3.597013   4.071941   0.000000
     9  Cl   2.202703   3.762383   5.565786   0.000000
    10  Cl   2.208229   3.681027   3.714846   3.662608   0.000000
    11  H    5.188435   6.095265   3.469369   6.165682   6.054819
    12  H    4.669283   4.924727   1.099959   6.665099   4.587352
    13  H    3.452186   4.399020   1.090726   5.328902   3.029283
    14  H    3.166505   3.161443   1.091121   5.294671   3.463049
    15  H    5.013566   4.683063   2.807964   6.647144   6.077281
    16  H    3.510806   3.078035   2.755937   5.063180   4.989701
    17  H    4.629089   4.718554   3.484023   5.752673   6.094316
    18  C    5.359792   6.595979   3.049801   6.578763   5.366228
    19  H    6.269894   7.292531   3.474135   7.609261   6.227586
    20  H    5.822104   7.282404   4.031872   6.715111   5.840589
    21  H    5.026322   6.344879   2.734526   6.381951   4.627189
    22  C    3.399121   5.337523   3.686650   3.899806   3.646726
    23  H    4.478812   6.379163   4.356431   4.789687   4.644922
    24  H    3.195335   5.311436   4.477016   3.126510   3.533243
    25  H    3.347390   5.239651   3.224607   4.270422   2.975057
    26  C    3.918530   5.230290   4.367339   4.039730   5.314767
    27  H    3.759502   5.183082   5.073445   3.302734   5.305542
    28  H    4.883454   6.290681   4.947278   4.901149   6.041015
    29  H    4.206049   5.063714   4.418620   4.503296   5.837544
                   11         12         13         14         15
    11  H    0.000000
    12  H    3.810159   0.000000
    13  H    3.832698   1.767195   0.000000
    14  H    4.251205   1.776243   1.772617   0.000000
    15  H    3.165922   2.857876   3.852156   2.906823   0.000000
    16  H    3.586120   3.380662   3.627480   2.427095   1.771607
    17  H    2.351296   3.942295   4.285073   3.683885   1.767341
    18  C    2.200791   3.181040   2.875346   4.109905   4.252731
    19  H    2.605597   3.250837   3.469719   4.553751   4.326117
    20  H    2.507469   4.260313   3.736800   5.053541   5.131063
    21  H    3.110615   2.891103   2.218764   3.771830   4.638037
    22  C    3.436416   4.553775   3.146404   4.250717   5.304876
    23  H    3.359944   5.072848   3.831335   5.077693   5.784282
    24  H    4.355841   5.432902   3.910322   4.848717   6.069425
    25  H    3.879398   4.030362   2.430782   3.808082   5.357205
    26  C    2.599579   5.215799   4.471644   4.756911   4.474937
    27  H    3.698155   6.020070   5.085693   5.310339   5.310052
    28  H    2.501439   5.676722   4.977412   5.510051   5.038894
    29  H    2.529919   5.193756   4.776478   4.702421   3.860016
                   16         17         18         19         20
    16  H    0.000000
    17  H    1.791784   0.000000
    18  C    4.695586   4.138100   0.000000
    19  H    5.148998   4.488982   1.098201   0.000000
    20  H    5.459610   4.715954   1.094431   1.761353   0.000000
    21  H    4.897524   4.725136   1.091984   1.764711   1.770436
    22  C    4.642089   4.559589   3.010571   4.108465   2.918999
    23  H    5.364625   4.953670   2.800364   3.852280   2.321372
    24  H    5.140458   5.199482   4.109318   5.207452   3.946715
    25  H    4.776061   4.963943   2.904232   3.944655   3.033642
    26  C    3.740660   3.015144   3.875782   4.754456   3.825104
    27  H    4.285484   3.829591   4.815913   5.759925   4.699320
    28  H    4.610565   3.588657   3.715066   4.536203   3.389902
    29  H    3.169880   2.203794   4.276371   4.996413   4.395031
                   21         22         23         24         25
    21  H    0.000000
    22  C    2.869585   0.000000
    23  H    2.861309   1.090729   0.000000
    24  H    3.916728   1.100163   1.775634   0.000000
    25  H    2.375118   1.090419   1.797966   1.759687   0.000000
    26  C    4.361252   2.558914   2.782569   2.841512   3.496395
    27  H    5.168765   2.853259   3.182186   2.695686   3.838450
    28  H    4.355018   2.777045   2.554225   3.159180   3.773728
    29  H    4.862009   3.491756   3.769906   3.832509   4.306251
                   26         27         28         29
    26  C    0.000000
    27  H    1.099631   0.000000
    28  H    1.092211   1.784253   0.000000
    29  H    1.090823   1.763495   1.795255   0.000000
 Framework group  C1[X(C8H16Cl3FeO)]
 Deg. of freedom    81
                         Standard orientation:                         
 ---------------------------------------------------------------------
 Center     Atomic      Atomic             Coordinates (Angstroms)
 Number     Number       Type             X           Y           Z
 ---------------------------------------------------------------------
      1          8           0       -0.363505   -0.062643   -0.483424
      2          6           0       -1.253296   -1.027709   -0.447503
      3          6           0       -3.100579    0.026289   -0.132652
      4          6           0       -2.183011    1.054633   -0.231326
      5          6           0       -1.953014    1.753576   -1.533074
      6         26           0        1.444343    0.051358    0.056586
      7         17           0        2.050359    1.984089   -0.797339
      8          6           0       -1.605140    1.722110    0.977315
      9         17           0        2.354623   -1.765968   -0.792306
     10         17           0        1.443015    0.033512    2.264742
     11          1           0       -3.615763   -0.248235   -1.050407
     12          1           0       -2.359234    2.431192    1.349409
     13          1           0       -1.378280    1.028088    1.787593
     14          1           0       -0.700445    2.280717    0.732306
     15          1           0       -2.526600    2.691507   -1.491661
     16          1           0       -0.900841    2.010926   -1.671409
     17          1           0       -2.318553    1.183879   -2.390142
     18          6           0       -3.785340   -0.404414    1.138276
     19          1           0       -4.704107    0.180773    1.277810
     20          1           0       -4.081994   -1.457041    1.096409
     21          1           0       -3.168775   -0.260047    2.027902
     22          6           0       -1.223981   -1.937607    0.748025
     23          1           0       -2.086420   -2.603772    0.793985
     24          1           0       -0.319723   -2.551812    0.623810
     25          1           0       -1.106009   -1.385028    1.680630
     26          6           0       -1.562786   -1.669266   -1.774126
     27          1           0       -0.667396   -2.252924   -2.032600
     28          1           0       -2.422613   -2.340938   -1.724339
     29          1           0       -1.701195   -0.924896   -2.559397
 ---------------------------------------------------------------------
 Rotational constants (GHZ):           0.5927334           0.3406851           0.3176590
   427 basis functions,  1056 primitive gaussians,   461 cartesian basis functions
    77 alpha electrons       72 beta electrons
       nuclear repulsion energy      1655.7557656790 Hartrees.
 NAtoms=   29 NActive=   29 NUniq=   29 SFac= 1.00D+00 NAtFMM=   60 NAOKFM=F Big=F
 Nuclear repulsion after empirical dispersion term =     1655.6848761945 Hartrees.
 Initial guess from the checkpoint file:  "checkpoint.chk"
 B after Tr=     0.000000    0.000000    0.000000
         Rot=    1.000000    0.000000    0.000000    0.000000 Ang=   0.00 deg.
 Initial guess <Sx>= 0.0000 <Sy>= 0.0000 <Sz>= 2.5000 <S**2>= 8.7619 S= 2.5020
 SCF Done:  E(UB3LYP) =  -3034.38010860     A.U. after    1 cycles
            NFock=  1  Conv=0.20D-08     -V/T= 2.0024
 <Sx>= 0.0000 <Sy>= 0.0000 <Sz>= 2.5000 <S**2>= 8.7619 S= 2.5020
 <L.S>= 0.000000000000E+00
 Annihilation of the first spin contaminant:
 S**2 before annihilation     8.7619,   after     8.7500
 1\1\GINC-HOLY7C08610\SP\UB3LYP\Jul-CC-pVDZ\C8H16Cl3Fe1O1(6)\EKWAN\11-F
 eb-2020\0\\#t pop=none jul-cc-pvdz guess=read ub3lyp empiricaldispersi
 on=gd3bj\\theory_abbreviation b3lyp_d3bj\\0,6\O,0,-0.363505,-0.062643,
 -0.483424\C,0,-1.253296,-1.027709,-0.447503\C,0,-3.100579,0.026289,-0.
 132652\C,0,-2.183011,1.054633,-0.231326\C,0,-1.953014,1.753576,-1.5330
 74\Fe,0,1.444343,0.051358,0.056586\Cl,0,2.050359,1.984089,-0.797339\C,
 0,-1.60514,1.72211,0.977315\Cl,0,2.354623,-1.765968,-0.792306\Cl,0,1.4
 43015,0.033512,2.264742\H,0,-3.615763,-0.248235,-1.050407\H,0,-2.35923
 4,2.431192,1.349409\H,0,-1.37828,1.028088,1.787593\H,0,-0.700445,2.280
 717,0.732306\H,0,-2.5266,2.691507,-1.491661\H,0,-0.900841,2.010926,-1.
 671409\H,0,-2.318553,1.183879,-2.390142\C,0,-3.78534,-0.404414,1.13827
 6\H,0,-4.704107,0.180773,1.27781\H,0,-4.081994,-1.457041,1.096409\H,0,
 -3.168775,-0.260047,2.027902\C,0,-1.223981,-1.937607,0.748025\H,0,-2.0
 8642,-2.603772,0.793985\H,0,-0.319723,-2.551812,0.62381\H,0,-1.106009,
 -1.385028,1.68063\C,0,-1.562786,-1.669266,-1.774126\H,0,-0.667396,-2.2
 52924,-2.0326\H,0,-2.422613,-2.340938,-1.724339\H,0,-1.701195,-0.92489
 6,-2.559397\\Version=ES64L-G16RevA.03\HF=-3034.3801086\S2=8.761935\S2-
 1=0.\S2A=8.750044\RMSD=2.050e-09\PG=C01 [X(C8H16Cl3Fe1O1)]\\@


 It takes a long time to grow an old friend.
                            -- John Leonard
 Job cpu time:       0 days  0 hours  4 minutes 39.4 seconds.
 Elapsed time:       0 days  0 hours  1 minutes 10.4 seconds.
 File lengths (MBytes):  RWF=    170 Int=      0 D2E=      0 Chk=     13 Scr=      1
 Normal termination of Gaussian 16 at Tue Feb 11 14:17:20 2020.
 Initial command:
 /n/sw/g16_nehalem/g16/l1.exe "/scratch/Gau-425466.inp" -scrdir="/scratch/"
 Entering Link 1 = /n/sw/g16_nehalem/g16/l1.exe PID=    429440.
  
 Copyright (c) 1988,1990,1992,1993,1995,1998,2003,2009,2016,
            Gaussian, Inc.  All Rights Reserved.
  
 This is part of the Gaussian(R) 16 program.  It is based on
 the Gaussian(R) 09 system (copyright 2009, Gaussian, Inc.),
 the Gaussian(R) 03 system (copyright 2003, Gaussian, Inc.),
 the Gaussian(R) 98 system (copyright 1998, Gaussian, Inc.),
 the Gaussian(R) 94 system (copyright 1995, Gaussian, Inc.),
 the Gaussian 92(TM) system (copyright 1992, Gaussian, Inc.),
 the Gaussian 90(TM) system (copyright 1990, Gaussian, Inc.),
 the Gaussian 88(TM) system (copyright 1988, Gaussian, Inc.),
 the Gaussian 86(TM) system (copyright 1986, Carnegie Mellon
 University), and the Gaussian 82(TM) system (copyright 1983,
 Carnegie Mellon University). Gaussian is a federally registered
 trademark of Gaussian, Inc.
  
 This software contains proprietary and confidential information,
 including trade secrets, belonging to Gaussian, Inc.
  
 This software is provided under written license and may be
 used, copied, transmitted, or stored only in accord with that
 written license.
  
 The following legend is applicable only to US Government
 contracts under FAR:
  
                    RESTRICTED RIGHTS LEGEND
  
 Use, reproduction and disclosure by the US Government is
 subject to restrictions as set forth in subparagraphs (a)
 and (c) of the Commercial Computer Software - Restricted
 Rights clause in FAR 52.227-19.
  
 Gaussian, Inc.
 340 Quinnipiac St., Bldg. 40, Wallingford CT 06492
  
  
 ---------------------------------------------------------------
 Warning -- This program may not be used in any manner that
 competes with the business of Gaussian, Inc. or will provide
 assistance to any competitor of Gaussian, Inc.  The licensee
 of this program is prohibited from giving any competitor of
 Gaussian, Inc. access to this program.  By using this program,
 the user acknowledges that Gaussian, Inc. is engaged in the
 business of creating and licensing software in the field of
 computational chemistry and represents and warrants to the
 licensee that it is not a competitor of Gaussian, Inc. and that
 it will not use this program in any manner prohibited above.
 ---------------------------------------------------------------
  

 Cite this work as:
 Gaussian 16, Revision A.03,
 M. J. Frisch, G. W. Trucks, H. B. Schlegel, G. E. Scuseria, 
 M. A. Robb, J. R. Cheeseman, G. Scalmani, V. Barone, 
 G. A. Petersson, H. Nakatsuji, X. Li, M. Caricato, A. V. Marenich, 
 J. Bloino, B. G. Janesko, R. Gomperts, B. Mennucci, H. P. Hratchian, 
 J. V. Ortiz, A. F. Izmaylov, J. L. Sonnenberg, D. Williams-Young, 
 F. Ding, F. Lipparini, F. Egidi, J. Goings, B. Peng, A. Petrone, 
 T. Henderson, D. Ranasinghe, V. G. Zakrzewski, J. Gao, N. Rega, 
 G. Zheng, W. Liang, M. Hada, M. Ehara, K. Toyota, R. Fukuda, 
 J. Hasegawa, M. Ishida, T. Nakajima, Y. Honda, O. Kitao, H. Nakai, 
 T. Vreven, K. Throssell, J. A. Montgomery, Jr., J. E. Peralta, 
 F. Ogliaro, M. J. Bearpark, J. J. Heyd, E. N. Brothers, K. N. Kudin, 
 V. N. Staroverov, T. A. Keith, R. Kobayashi, J. Normand, 
 K. Raghavachari, A. P. Rendell, J. C. Burant, S. S. Iyengar, 
 J. Tomasi, M. Cossi, J. M. Millam, M. Klene, C. Adamo, R. Cammi, 
 J. W. Ochterski, R. L. Martin, K. Morokuma, O. Farkas, 
 J. B. Foresman, and D. J. Fox, Gaussian, Inc., Wallingford CT, 2016.
 
 ******************************************
 Gaussian 16:  ES64L-G16RevA.03 25-Dec-2016
                11-Feb-2020 
 ******************************************
 %chk=checkpoint.chk
 %mem=3GB
 %nprocshared=4
 Will use up to    4 processors via shared memory.
 ----------------------------------------
 #t pop=none jul-cc-pvdz guess=read ub97d
 ----------------------------------------
 ------------------------
 theory_abbreviation b97d
 ------------------------
 Symbolic Z-matrix:
 Charge =  0 Multiplicity = 6
 O                    -0.36351  -0.06264  -0.48342 
 C                    -1.2533   -1.02771  -0.4475 
 C                    -3.10058   0.02629  -0.13265 
 C                    -2.18301   1.05463  -0.23133 
 C                    -1.95301   1.75358  -1.53307 
 Fe                    1.44434   0.05136   0.05659 
 Cl                    2.05036   1.98409  -0.79734 
 C                    -1.60514   1.72211   0.97732 
 Cl                    2.35462  -1.76597  -0.79231 
 Cl                    1.44302   0.03351   2.26474 
 H                    -3.61576  -0.24824  -1.05041 
 H                    -2.35923   2.43119   1.34941 
 H                    -1.37828   1.02809   1.78759 
 H                    -0.70045   2.28072   0.73231 
 H                    -2.5266    2.69151  -1.49166 
 H                    -0.90084   2.01093  -1.67141 
 H                    -2.31855   1.18388  -2.39014 
 C                    -3.78534  -0.40441   1.13828 
 H                    -4.70411   0.18077   1.27781 
 H                    -4.08199  -1.45704   1.09641 
 H                    -3.16878  -0.26005   2.0279 
 C                    -1.22398  -1.93761   0.74803 
 H                    -2.08642  -2.60377   0.79399 
 H                    -0.31972  -2.55181   0.62381 
 H                    -1.10601  -1.38503   1.68063 
 C                    -1.56279  -1.66927  -1.77413 
 H                    -0.6674   -2.25292  -2.0326 
 H                    -2.42261  -2.34094  -1.72434 
 H                    -1.7012   -0.9249   -2.5594 
 
                    Distance matrix (angstroms):
                    1          2          3          4          5
     1  O    0.000000
     2  C    1.313153   0.000000
     3  C    2.760892   2.149999   0.000000
     4  C    2.149991   2.290688   1.381723   0.000000
     5  C    2.631911   3.066532   2.502320   1.495315   0.000000
     6  Fe   1.890217   2.948855   4.548929   3.774540   4.119053
     7  Cl   3.180313   4.484133   5.550401   4.371005   4.076940
     8  C    2.619305   3.116954   2.518764   1.496754   2.534573
     9  Cl   3.222568   3.698783   5.779841   5.372207   5.611743
    10  Cl   3.290164   3.968949   5.137295   4.518972   5.377271
    11  H    3.306523   2.559751   1.087682   2.102650   2.646686
    12  H    3.682584   4.051665   2.920557   2.103495   2.988793
    13  H    2.716060   3.039338   2.767175   2.173553   3.447243
    14  H    2.661365   3.555738   3.404591   2.151713   2.641733
    15  H    3.644292   4.067448   3.046267   2.094243   1.100196
    16  H    2.449434   3.294764   3.338473   2.152277   1.091986
    17  H    3.001933   3.130454   2.654777   2.166925   1.092126
    18  C    3.802062   3.051957   1.506539   2.563608   3.892358
    19  H    4.690631   4.042923   2.141161   3.065460   4.235952
    20  H    4.274035   3.251080   2.161951   3.417239   4.664204
    21  H    3.770314   3.222731   2.180512   2.793604   4.267705
    22  C    2.402577   1.502685   2.855538   3.291256   4.399970
    23  H    3.325289   2.172409   2.967220   3.800595   4.941607
    24  H    2.724674   2.083785   3.866782   4.148439   5.084895
    25  H    2.642564   2.162943   3.042715   3.281380   4.571230
    26  C    2.384413   1.505758   2.816762   3.191322   3.453438
    27  H    2.699931   2.087334   3.837316   4.059755   4.237261
    28  H    3.312163   2.173058   2.932042   3.717042   4.125791
    29  H    2.615828   2.161314   2.958398   3.093638   2.879403
                    6          7          8          9         10
     6  Fe   0.000000
     7  Cl   2.198157   0.000000
     8  C    3.597013   4.071941   0.000000
     9  Cl   2.202703   3.762383   5.565786   0.000000
    10  Cl   2.208229   3.681027   3.714846   3.662608   0.000000
    11  H    5.188435   6.095265   3.469369   6.165682   6.054819
    12  H    4.669283   4.924727   1.099959   6.665099   4.587352
    13  H    3.452186   4.399020   1.090726   5.328902   3.029283
    14  H    3.166505   3.161443   1.091121   5.294671   3.463049
    15  H    5.013566   4.683063   2.807964   6.647144   6.077281
    16  H    3.510806   3.078035   2.755937   5.063180   4.989701
    17  H    4.629089   4.718554   3.484023   5.752673   6.094316
    18  C    5.359792   6.595979   3.049801   6.578763   5.366228
    19  H    6.269894   7.292531   3.474135   7.609261   6.227586
    20  H    5.822104   7.282404   4.031872   6.715111   5.840589
    21  H    5.026322   6.344879   2.734526   6.381951   4.627189
    22  C    3.399121   5.337523   3.686650   3.899806   3.646726
    23  H    4.478812   6.379163   4.356431   4.789687   4.644922
    24  H    3.195335   5.311436   4.477016   3.126510   3.533243
    25  H    3.347390   5.239651   3.224607   4.270422   2.975057
    26  C    3.918530   5.230290   4.367339   4.039730   5.314767
    27  H    3.759502   5.183082   5.073445   3.302734   5.305542
    28  H    4.883454   6.290681   4.947278   4.901149   6.041015
    29  H    4.206049   5.063714   4.418620   4.503296   5.837544
                   11         12         13         14         15
    11  H    0.000000
    12  H    3.810159   0.000000
    13  H    3.832698   1.767195   0.000000
    14  H    4.251205   1.776243   1.772617   0.000000
    15  H    3.165922   2.857876   3.852156   2.906823   0.000000
    16  H    3.586120   3.380662   3.627480   2.427095   1.771607
    17  H    2.351296   3.942295   4.285073   3.683885   1.767341
    18  C    2.200791   3.181040   2.875346   4.109905   4.252731
    19  H    2.605597   3.250837   3.469719   4.553751   4.326117
    20  H    2.507469   4.260313   3.736800   5.053541   5.131063
    21  H    3.110615   2.891103   2.218764   3.771830   4.638037
    22  C    3.436416   4.553775   3.146404   4.250717   5.304876
    23  H    3.359944   5.072848   3.831335   5.077693   5.784282
    24  H    4.355841   5.432902   3.910322   4.848717   6.069425
    25  H    3.879398   4.030362   2.430782   3.808082   5.357205
    26  C    2.599579   5.215799   4.471644   4.756911   4.474937
    27  H    3.698155   6.020070   5.085693   5.310339   5.310052
    28  H    2.501439   5.676722   4.977412   5.510051   5.038894
    29  H    2.529919   5.193756   4.776478   4.702421   3.860016
                   16         17         18         19         20
    16  H    0.000000
    17  H    1.791784   0.000000
    18  C    4.695586   4.138100   0.000000
    19  H    5.148998   4.488982   1.098201   0.000000
    20  H    5.459610   4.715954   1.094431   1.761353   0.000000
    21  H    4.897524   4.725136   1.091984   1.764711   1.770436
    22  C    4.642089   4.559589   3.010571   4.108465   2.918999
    23  H    5.364625   4.953670   2.800364   3.852280   2.321372
    24  H    5.140458   5.199482   4.109318   5.207452   3.946715
    25  H    4.776061   4.963943   2.904232   3.944655   3.033642
    26  C    3.740660   3.015144   3.875782   4.754456   3.825104
    27  H    4.285484   3.829591   4.815913   5.759925   4.699320
    28  H    4.610565   3.588657   3.715066   4.536203   3.389902
[...]
 NAtoms=   29 NActive=   29 NUniq=   29 SFac= 1.00D+00 NAtFMM=   60 NAOKFM=F Big=F
 Nuclear repulsion after empirical dispersion term =     1655.7533285159 Hartrees.
 Initial guess from the checkpoint file:  "checkpoint.chk"
 B after Tr=     0.000000    0.000000    0.000000
         Rot=    1.000000    0.000000    0.000000    0.000000 Ang=   0.00 deg.
 Initial guess <Sx>= 0.0000 <Sy>= 0.0000 <Sz>= 2.5000 <S**2>= 8.7617 S= 2.5019
 SCF Done:  E(UM06L) =  -3034.17688839     A.U. after   17 cycles
            NFock= 17  Conv=0.71D-08     -V/T= 2.0020
 <Sx>= 0.0000 <Sy>= 0.0000 <Sz>= 2.5000 <S**2>= 8.7618 S= 2.5020
 <L.S>= 0.000000000000E+00
 Annihilation of the first spin contaminant:
 S**2 before annihilation     8.7618,   after     8.7500
 1\1\GINC-HOLY7C08610\SP\UM06L\Jul-CC-pVDZ\C8H16Cl3Fe1O1(6)\EKWAN\11-Fe
 b-2020\0\\#t pop=none jul-cc-pvdz guess=read um06l empiricaldispersion
 =gd3\\theory_abbreviation m06l_d3\\0,6\O,0,-0.363505,-0.062643,-0.4834
 24\C,0,-1.253296,-1.027709,-0.447503\C,0,-3.100579,0.026289,-0.132652\
 C,0,-2.183011,1.054633,-0.231326\C,0,-1.953014,1.753576,-1.533074\Fe,0
 ,1.444343,0.051358,0.056586\Cl,0,2.050359,1.984089,-0.797339\C,0,-1.60
 514,1.72211,0.977315\Cl,0,2.354623,-1.765968,-0.792306\Cl,0,1.443015,0
 .033512,2.264742\H,0,-3.615763,-0.248235,-1.050407\H,0,-2.359234,2.431
 192,1.349409\H,0,-1.37828,1.028088,1.787593\H,0,-0.700445,2.280717,0.7
 32306\H,0,-2.5266,2.691507,-1.491661\H,0,-0.900841,2.010926,-1.671409\
 H,0,-2.318553,1.183879,-2.390142\C,0,-3.78534,-0.404414,1.138276\H,0,-
 4.704107,0.180773,1.27781\H,0,-4.081994,-1.457041,1.096409\H,0,-3.1687
 75,-0.260047,2.027902\C,0,-1.223981,-1.937607,0.748025\H,0,-2.08642,-2
 .603772,0.793985\H,0,-0.319723,-2.551812,0.62381\H,0,-1.106009,-1.3850
 28,1.68063\C,0,-1.562786,-1.669266,-1.774126\H,0,-0.667396,-2.252924,-
 2.0326\H,0,-2.422613,-2.340938,-1.724339\H,0,-1.701195,-0.924896,-2.55
 9397\\Version=ES64L-G16RevA.03\HF=-3034.1768884\S2=8.761831\S2-1=0.\S2
 A=8.750045\RMSD=7.140e-09\PG=C01 [X(C8H16Cl3Fe1O1)]\\@


 THERE IS SOMETHING FASCINATING ABOUT SCIENCE.
 ONE GETS SUCH WHOLESALE CONJECTURE OUT OF SUCH TRIFLING INVESTMENTS.

                                                       -- MARK TWAIN
 Job cpu time:       0 days  1 hours 16 minutes 53.2 seconds.
 Elapsed time:       0 days  0 hours 19 minutes 17.3 seconds.
 File lengths (MBytes):  RWF=    174 Int=      0 D2E=      0 Chk=     13 Scr=      1
 Normal termination of Gaussian 16 at Tue Feb 11 23:35:22 2020.
 Initial command:
 /n/sw/g16_nehalem/g16/l1.exe "/scratch/Gau-425466.inp" -scrdir="/scratch/"
 Entering Link 1 = /n/sw/g16_nehalem/g16/l1.exe PID=     23317.
  
 Copyright (c) 1988,1990,1992,1993,1995,1998,2003,2009,2016,
            Gaussian, Inc.  All Rights Reserved.
  
 This is part of the Gaussian(R) 16 program.  It is based on
 the Gaussian(R) 09 system (copyright 2009, Gaussian, Inc.),
 the Gaussian(R) 03 system (copyright 2003, Gaussian, Inc.),
 the Gaussian(R) 98 system (copyright 1998, Gaussian, Inc.),
 the Gaussian(R) 94 system (copyright 1995, Gaussian, Inc.),
 the Gaussian 92(TM) system (copyright 1992, Gaussian, Inc.),
 the Gaussian 90(TM) system (copyright 1990, Gaussian, Inc.),
 the Gaussian 88(TM) system (copyright 1988, Gaussian, Inc.),
 the Gaussian 86(TM) system (copyright 1986, Carnegie Mellon
 University), and the Gaussian 82(TM) system (copyright 1983,
 Carnegie Mellon University). Gaussian is a federally registered
 trademark of Gaussian, Inc.
  
 This software contains proprietary and confidential information,
 including trade secrets, belonging to Gaussian, Inc.
  
 This software is provided under written license and may be
 used, copied, transmitted, or stored only in accord with that
 written license.
  
 The following legend is applicable only to US Government
 contracts under FAR:
  
                    RESTRICTED RIGHTS LEGEND
  
 Use, reproduction and disclosure by the US Government is
 subject to restrictions as set forth in subparagraphs (a)
 and (c) of the Commercial Computer Software - Restricted
 Rights clause in FAR 52.227-19.
  
 Gaussian, Inc.
 340 Quinnipiac St., Bldg. 40, Wallingford CT 06492
  
  
 ---------------------------------------------------------------
 Warning -- This program may not be used in any manner that
 competes with the business of Gaussian, Inc. or will provide
 assistance to any competitor of Gaussian, Inc.  The licensee
 of this program is prohibited from giving any competitor of
 Gaussian, Inc. access to this program.  By using this program,
 the user acknowledges that Gaussian, Inc. is engaged in the
 business of creating and licensing software in the field of
 computational chemistry and represents and warrants to the
 licensee that it is not a competitor of Gaussian, Inc. and that
 it will not use this program in any manner prohibited above.
 ---------------------------------------------------------------
  

 Cite this work as:
 Gaussian 16, Revision A.03,
 M. J. Frisch, G. W. Trucks, H. B. Schlegel, G. E. Scuseria, 
 M. A. Robb, J. R. Cheeseman, G. Scalmani, V. Barone, 
 G. A. Petersson, H. Nakatsuji, X. Li, M. Caricato, A. V. Marenich, 
 J. Bloino, B. G. Janesko, R. Gomperts, B. Mennucci, H. P. Hratchian, 
 J. V. Ortiz, A. F. Izmaylov, J. L. Sonnenberg, D. Williams-Young, 
 F. Ding, F. Lipparini, F. Egidi, J. Goings, B. Peng, A. Petrone, 
 T. Henderson, D. Ranasinghe, V. G. Zakrzewski, J. Gao, N. Rega, 
 G. Zheng, W. Liang, M. Hada, M. Ehara, K. Toyota, R. Fukuda, 
 J. Hasegawa, M. Ishida, T. Nakajima, Y. Honda, O. Kitao, H. Nakai, 
 T. Vreven, K. Throssell, J. A. Montgomery, Jr., J. E. Peralta, 
 F. Ogliaro, M. J. Bearpark, J. J. Heyd, E. N. Brothers, K. N. Kudin, 
 V. N. Staroverov, T. A. Keith, R. Kobayashi, J. Normand, 
 K. Raghavachari, A. P. Rendell, J. C. Burant, S. S. Iyengar, 
 J. Tomasi, M. Cossi, J. M. Millam, M. Klene, C. Adamo, R. Cammi, 
 J. W. Ochterski, R. L. Martin, K. Morokuma, O. Farkas, 
 J. B. Foresman, and D. J. Fox, Gaussian, Inc., Wallingford CT, 2016.
 
 ******************************************
 Gaussian 16:  ES64L-G16RevA.03 25-Dec-2016
                11-Feb-2020 
 ******************************************
 %chk=checkpoint.chk
 %mem=3GB
 %nprocshared=4
 Will use up to    4 processors via shared memory.
 -------------------------------------------------------------------
 #t pop=none jul-cc-pvdz guess=read ub97d3 empiricaldispersion=gd3bj
 -------------------------------------------------------------------
 ------------------------------
 theory_abbreviation b97d3_d3bj
 ------------------------------
 Symbolic Z-matrix:
 Charge =  0 Multiplicity = 6
 O                    -0.36351  -0.06264  -0.48342 
 C                    -1.2533   -1.02771  -0.4475 
 C                    -3.10058   0.02629  -0.13265 
 C                    -2.18301   1.05463  -0.23133 
 C                    -1.95301   1.75358  -1.53307 
 Fe                    1.44434   0.05136   0.05659 
 Cl                    2.05036   1.98409  -0.79734 
 C                    -1.60514   1.72211   0.97732 
 Cl                    2.35462  -1.76597  -0.79231 
 Cl                    1.44302   0.03351   2.26474 
 H                    -3.61576  -0.24824  -1.05041 
 H                    -2.35923   2.43119   1.34941 
 H                    -1.37828   1.02809   1.78759 
 H                    -0.70045   2.28072   0.73231 
 H                    -2.5266    2.69151  -1.49166 
 H                    -0.90084   2.01093  -1.67141 
 H                    -2.31855   1.18388  -2.39014 
 C                    -3.78534  -0.40441   1.13828 
 H                    -4.70411   0.18077   1.27781 
 H                    -4.08199  -1.45704   1.09641 
 H                    -3.16878  -0.26005   2.0279 
 C                    -1.22398  -1.93761   0.74803 
 H                    -2.08642  -2.60377   0.79399 
 H                    -0.31972  -2.55181   0.62381 
 H                    -1.10601  -1.38503   1.68063 
 C                    -1.56279  -1.66927  -1.77413 
 H                    -0.6674   -2.25292  -2.0326 
 H                    -2.42261  -2.34094  -1.72434 
 H                    -1.7012   -0.9249   -2.5594 
 
                    Distance matrix (angstroms):
                    1          2          3          4          5
     1  O    0.000000
     2  C    1.313153   0.000000
     3  C    2.760892   2.149999   0.000000
     4  C    2.149991   2.290688   1.381723   0.000000
     5  C    2.631911   3.066532   2.502320   1.495315   0.000000
     6  Fe   1.890217   2.948855   4.548929   3.774540   4.119053
     7  Cl   3.180313   4.484133   5.550401   4.371005   4.076940
     8  C    2.619305   3.116954   2.518764   1.496754   2.534573
     9  Cl   3.222568   3.698783   5.779841   5.372207   5.611743
    10  Cl   3.290164   3.968949   5.137295   4.518972   5.377271
    11  H    3.306523   2.559751   1.087682   2.102650   2.646686
    12  H    3.682584   4.051665   2.920557   2.103495   2.988793
    13  H    2.716060   3.039338   2.767175   2.173553   3.447243
    14  H    2.661365   3.555738   3.404591   2.151713   2.641733
    15  H    3.644292   4.067448   3.046267   2.094243   1.100196
    16  H    2.449434   3.294764   3.338473   2.152277   1.091986
    17  H    3.001933   3.130454   2.654777   2.166925   1.092126
    18  C    3.802062   3.051957   1.506539   2.563608   3.892358
    19  H    4.690631   4.042923   2.141161   3.065460   4.235952
    20  H    4.274035   3.251080   2.161951   3.417239   4.664204
    21  H    3.770314   3.222731   2.180512   2.793604   4.267705
    22  C    2.402577   1.502685   2.855538   3.291256   4.399970
    23  H    3.325289   2.172409   2.967220   3.800595   4.941607
    24  H    2.724674   2.083785   3.866782   4.148439   5.084895
    25  H    2.642564   2.162943   3.042715   3.281380   4.571230
    26  C    2.384413   1.505758   2.816762   3.191322   3.453438
    27  H    2.699931   2.087334   3.837316   4.059755   4.237261
    28  H    3.312163   2.173058   2.932042   3.717042   4.125791
    29  H    2.615828   2.161314   2.958398   3.093638   2.879403
                    6          7          8          9         10
     6  Fe   0.000000
     7  Cl   2.198157   0.000000
     8  C    3.597013   4.071941   0.000000
     9  Cl   2.202703   3.762383   5.565786   0.000000
    10  Cl   2.208229   3.681027   3.714846   3.662608   0.000000
    11  H    5.188435   6.095265   3.469369   6.165682   6.054819
    12  H    4.669283   4.924727   1.099959   6.665099   4.587352
    13  H    3.452186   4.399020   1.090726   5.328902   3.029283
    14  H    3.166505   3.161443   1.091121   5.294671   3.463049
    15  H    5.013566   4.683063   2.807964   6.647144   6.077281
    16  H    3.510806   3.078035   2.755937   5.063180   4.989701
    17  H    4.629089   4.718554   3.484023   5.752673   6.094316
    18  C    5.359792   6.595979   3.049801   6.578763   5.366228
    19  H    6.269894   7.292531   3.474135   7.609261   6.227586
    20  H    5.822104   7.282404   4.031872   6.715111   5.840589
    21  H    5.026322   6.344879   2.734526   6.381951   4.627189
    22  C    3.399121   5.337523   3.686650   3.899806   3.646726
    23  H    4.478812   6.379163   4.356431   4.789687   4.644922
    24  H    3.195335   5.311436   4.477016   3.126510   3.533243
    25  H    3.347390   5.239651   3.224607   4.270422   2.975057
    26  C    3.918530   5.230290   4.367339   4.039730   5.314767
    27  H    3.759502   5.183082   5.073445   3.302734   5.305542
    28  H    4.883454   6.290681   4.947278   4.901149   6.041015
    29  H    4.206049   5.063714   4.418620   4.503296   5.837544
                   11         12         13         14         15
    11  H    0.000000
    12  H    3.810159   0.000000
    13  H    3.832698   1.767195   0.000000
    14  H    4.251205   1.776243   1.772617   0.000000
    15  H    3.165922   2.857876   3.852156   2.906823   0.000000
    16  H    3.586120   3.380662   3.627480   2.427095   1.771607
    17  H    2.351296   3.942295   4.285073   3.683885   1.767341
    18  C    2.200791   3.181040   2.875346   4.109905   4.252731
    19  H    2.605597   3.250837   3.469719   4.553751   4.326117
    20  H    2.507469   4.260313   3.736800   5.053541   5.131063
    21  H    3.110615   2.891103   2.218764   3.771830   4.638037
    22  C    3.436416   4.553775   3.146404   4.250717   5.304876
    23  H    3.359944   5.072848   3.831335   5.077693   5.784282
    24  H    4.355841   5.432902   3.910322   4.848717   6.069425
    25  H    3.879398   4.030362   2.430782   3.808082   5.357205
    26  C    2.599579   5.215799   4.471644   4.756911   4.474937
    27  H    3.698155   6.020070   5.085693   5.310339   5.310052
    28  H    2.501439   5.676722   4.977412   5.510051   5.038894
    29  H    2.529919   5.193756   4.776478   4.702421   3.860016
                   16         17         18         19         20
    16  H    0.000000
    17  H    1.791784   0.000000
    18  C    4.695586   4.138100   0.000000
    19  H    5.148998   4.488982   1.098201   0.000000
    20  H    5.459610   4.715954   1.094431   1.761353   0.000000
    21  H    4.897524   4.725136   1.091984   1.764711   1.770436
    22  C    4.642089   4.559589   3.010571   4.108465   2.918999
    23  H    5.364625   4.953670   2.800364   3.852280   2.321372
    24  H    5.140458   5.199482   4.109318   5.207452   3.946715
    25  H    4.776061   4.963943   2.904232   3.944655   3.033642
    26  C    3.740660   3.015144   3.875782   4.754456   3.825104
    27  H    4.285484   3.829591   4.815913   5.759925   4.699320
    28  H    4.610565   3.588657   3.715066   4.536203   3.389902
    29  H    3.169880   2.203794   4.276371   4.996413   4.395031
                   21         22         23         24         25
    21  H    0.000000
    22  C    2.869585   0.000000
    23  H    2.861309   1.090729   0.000000
    24  H    3.916728   1.100163   1.775634   0.000000
    25  H    2.375118   1.090419   1.797966   1.759687   0.000000
    26  C    4.361252   2.558914   2.782569   2.841512   3.496395
    27  H    5.168765   2.853259   3.182186   2.695686   3.838450
    28  H    4.355018   2.777045   2.554225   3.159180   3.773728
    29  H    4.862009   3.491756   3.769906   3.832509   4.306251
                   26         27         28         29
    26  C    0.000000
    27  H    1.099631   0.000000
    28  H    1.092211   1.784253   0.000000
    29  H    1.090823   1.763495   1.795255   0.000000
 Framework group  C1[X(C8H16Cl3FeO)]
 Deg. of freedom    81
                         Standard orientation:                         
 ---------------------------------------------------------------------
 Center     Atomic      Atomic             Coordinates (Angstroms)
 Number     Number       Type             X           Y           Z
 ---------------------------------------------------------------------
      1          8           0       -0.363505   -0.062643   -0.483424
      2          6           0       -1.253296   -1.027709   -0.447503
      3          6           0       -3.100579    0.026289   -0.132652
      4          6           0       -2.183011    1.054633   -0.231326
      5          6           0       -1.953014    1.753576   -1.533074
      6         26           0        1.444343    0.051358    0.056586
      7         17           0        2.050359    1.984089   -0.797339
      8          6           0       -1.605140    1.722110    0.977315
      9         17           0        2.354623   -1.765968   -0.792306
     10         17           0        1.443015    0.033512    2.264742
     11          1           0       -3.615763   -0.248235   -1.050407
     12          1           0       -2.359234    2.431192    1.349409
     13          1           0       -1.378280    1.028088    1.787593
     14          1           0       -0.700445    2.280717    0.732306
     15          1           0       -2.526600    2.691507   -1.491661
     16          1           0       -0.900841    2.010926   -1.671409
     17          1           0       -2.318553    1.183879   -2.390142
     18          6           0       -3.785340   -0.404414    1.138276
     19          1           0       -4.704107    0.180773    1.277810
     20          1           0       -4.081994   -1.457041    1.096409
     21          1           0       -3.168775   -0.260047    2.027902
     22          6           0       -1.223981   -1.937607    0.748025
     23          1           0       -2.086420   -2.603772    0.793985
     24          1           0       -0.319723   -2.551812    0.623810
     25          1           0       -1.106009   -1.385028    1.680630
     26          6           0       -1.562786   -1.669266   -1.774126
     27          1           0       -0.667396   -2.252924   -2.032600
     28          1           0       -2.422613   -2.340938   -1.724339
     29          1           0       -1.701195   -0.924896   -2.559397
 ---------------------------------------------------------------------
 Rotational constants (GHZ):           0.5927334           0.3406851           0.3176590
   427 basis functions,  1056 primitive gaussians,   461 cartesian basis functions
    77 alpha electrons       72 beta electrons
       nuclear repulsion energy      1655.7557656790 Hartrees.
 NAtoms=   29 NActive=   29 NUniq=   29 SFac= 1.00D+00 NAtFMM=   60 NAOKFM=F Big=F
 Nuclear repulsion after empirical dispersion term =     1655.6517237832 Hartrees.
 Initial guess from the checkpoint file:  "checkpoint.chk"
 B after Tr=     0.000000    0.000000    0.000000
         Rot=    1.000000    0.000000    0.000000    0.000000 Ang=   0.00 deg.
 Initial guess <Sx>= 0.0000 <Sy>= 0.0000 <Sz>= 2.5000 <S**2>= 8.7618 S= 2.5020
 EnCoef did     2 forward-backward iterations
 SCF Done:  E(UB97D3) =  -3034.60004735     A.U. after   15 cycles
            NFock= 15  Conv=0.97D-08     -V/T= 2.0019
 <Sx>= 0.0000 <Sy>= 0.0000 <Sz>= 2.5000 <S**2>= 8.7596 S= 2.5016
 <L.S>= 0.000000000000E+00
 Annihilation of the first spin contaminant:
 S**2 before annihilation     8.7596,   after     8.7500
 1\1\GINC-HOLY7C08610\SP\UB97D3\Jul-CC-pVDZ\C8H16Cl3Fe1O1(6)\EKWAN\11-F
 eb-2020\0\\#t pop=none jul-cc-pvdz guess=read ub97d3 empiricaldispersi
 on=gd3bj\\theory_abbreviation b97d3_d3bj\\0,6\O,0,-0.363505,-0.062643,
 -0.483424\C,0,-1.253296,-1.027709,-0.447503\C,0,-3.100579,0.026289,-0.
 132652\C,0,-2.183011,1.054633,-0.231326\C,0,-1.953014,1.753576,-1.5330
 74\Fe,0,1.444343,0.051358,0.056586\Cl,0,2.050359,1.984089,-0.797339\C,
 0,-1.60514,1.72211,0.977315\Cl,0,2.354623,-1.765968,-0.792306\Cl,0,1.4
 43015,0.033512,2.264742\H,0,-3.615763,-0.248235,-1.050407\H,0,-2.35923
 4,2.431192,1.349409\H,0,-1.37828,1.028088,1.787593\H,0,-0.700445,2.280
 717,0.732306\H,0,-2.5266,2.691507,-1.491661\H,0,-0.900841,2.010926,-1.
 671409\H,0,-2.318553,1.183879,-2.390142\C,0,-3.78534,-0.404414,1.13827
 6\H,0,-4.704107,0.180773,1.27781\H,0,-4.081994,-1.457041,1.096409\H,0,
 -3.168775,-0.260047,2.027902\C,0,-1.223981,-1.937607,0.748025\H,0,-2.0
 8642,-2.603772,0.793985\H,0,-0.319723,-2.551812,0.62381\H,0,-1.106009,
 -1.385028,1.68063\C,0,-1.562786,-1.669266,-1.774126\H,0,-0.667396,-2.2
 52924,-2.0326\H,0,-2.422613,-2.340938,-1.724339\H,0,-1.701195,-0.92489
 6,-2.559397\\Version=ES64L-G16RevA.03\HF=-3034.6000474\S2=8.759575\S2-
 1=0.\S2A=8.750029\RMSD=9.725e-09\PG=C01 [X(C8H16Cl3Fe1O1)]\\@


 ADAM SMITH SAID, "THE REAL PRICE OF ANYTHING IS THE TOIL AND TROUBLE
 OF ACQUIRING IT."  BUT IN ALL UNDERTAKINGS WITH NATURE WE SHOULD FIRST
 READ CAREFULLY THE SMALL PRINT IN THE CONTRACT. THIS MIGHT DISCLOSE
 THAT THE REAL PRICE IS TO BE PAID BY THOSE WHO INHERIT THE DEPLETION
 AND DESPOILATION THAT FOLLOWS.
                               -- E. R. HARRISON IN "COSMOLOGY" (1980)
 Job cpu time:       0 days  0 hours 48 minutes 42.8 seconds.
 Elapsed time:       0 days  0 hours 12 minutes 12.9 seconds.
 File lengths (MBytes):  RWF=    174 Int=      0 D2E=      0 Chk=     13 Scr=      1
 Normal termination of Gaussian 16 at Tue Feb 11 23:47:35 2020.
