 Entering Gaussian System, Link 0=g16
 Input=simple-grid-160-235-b3lyp_d3bj-631gd-gas-singlepoint-DFT-juldz2-gas.gjf
 Output=simple-grid-160-235-b3lyp_d3bj-631gd-gas-singlepoint-DFT-juldz2-gas.out
 Initial command:
 /n/sw/g16_nehalem/g16/l1.exe "/scratch/Gau-166863.inp" -scrdir="/scratch/"
 Entering Link 1 = /n/sw/g16_nehalem/g16/l1.exe PID=    166864.
  
 Copyright (c) 1988,1990,1992,1993,1995,1998,2003,2009,2016,
            Gaussian, Inc.  All Rights Reserved.
  
 This is part of the Gaussian(R) 16 program.  It is based on
 the Gaussian(R) 09 system (copyright 2009, Gaussian, Inc.),
 the Gaussian(R) 03 system (copyright 2003, Gaussian, Inc.),
 the Gaussian(R) 98 system (copyright 1998, Gaussian, Inc.),
 the Gaussian(R) 94 system (copyright 1995, Gaussian, Inc.),
 the Gaussian 92(TM) system (copyright 1992, Gaussian, Inc.),
 the Gaussian 90(TM) system (copyright 1990, Gaussian, Inc.),
 the Gaussian 88(TM) system (copyright 1988, Gaussian, Inc.),
 the Gaussian 86(TM) system (copyright 1986, Carnegie Mellon
 University), and the Gaussian 82(TM) system (copyright 1983,
 Carnegie Mellon University). Gaussian is a federally registered
 trademark of Gaussian, Inc.
  
 This software contains proprietary and confidential information,
 including trade secrets, belonging to Gaussian, Inc.
  
 This software is provided under written license and may be
 used, copied, transmitted, or stored only in accord with that
 written license.
  
 The following legend is applicable only to US Government
 contracts under FAR:
  
                    RESTRICTED RIGHTS LEGEND
  
 Use, reproduction and disclosure by the US Government is
 subject to restrictions as set forth in subparagraphs (a)
 and (c) of the Commercial Computer Software - Restricted
 Rights clause in FAR 52.227-19.
  
 Gaussian, Inc.
 340 Quinnipiac St., Bldg. 40, Wallingford CT 06492
  
  
 ---------------------------------------------------------------
 Warning -- This program may not be used in any manner that
 competes with the business of Gaussian, Inc. or will provide
 assistance to any competitor of Gaussian, Inc.  The licensee
 of this program is prohibited from giving any competitor of
 Gaussian, Inc. access to this program.  By using this program,
 the user acknowledges that Gaussian, Inc. is engaged in the
 business of creating and licensing software in the field of
 computational chemistry and represents and warrants to the
 licensee that it is not a competitor of Gaussian, Inc. and that
 it will not use this program in any manner prohibited above.
 ---------------------------------------------------------------
  

 Cite this work as:
 Gaussian 16, Revision A.03,
 M. J. Frisch, G. W. Trucks, H. B. Schlegel, G. E. Scuseria, 
 M. A. Robb, J. R. Cheeseman, G. Scalmani, V. Barone, 
 G. A. Petersson, H. Nakatsuji, X. Li, M. Caricato, A. V. Marenich, 
 J. Bloino, B. G. Janesko, R. Gomperts, B. Mennucci, H. P. Hratchian, 
 J. V. Ortiz, A. F. Izmaylov, J. L. Sonnenberg, D. Williams-Young, 
 F. Ding, F. Lipparini, F. Egidi, J. Goings, B. Peng, A. Petrone, 
 T. Henderson, D. Ranasinghe, V. G. Zakrzewski, J. Gao, N. Rega, 
 G. Zheng, W. Liang, M. Hada, M. Ehara, K. Toyota, R. Fukuda, 
 J. Hasegawa, M. Ishida, T. Nakajima, Y. Honda, O. Kitao, H. Nakai, 
 T. Vreven, K. Throssell, J. A. Montgomery, Jr., J. E. Peralta, 
 F. Ogliaro, M. J. Bearpark, J. J. Heyd, E. N. Brothers, K. N. Kudin, 
 V. N. Staroverov, T. A. Keith, R. Kobayashi, J. Normand, 
 K. Raghavachari, A. P. Rendell, J. C. Burant, S. S. Iyengar, 
 J. Tomasi, M. Cossi, J. M. Millam, M. Klene, C. Adamo, R. Cammi, 
 J. W. Ochterski, R. L. Martin, K. Morokuma, O. Farkas, 
 J. B. Foresman, and D. J. Fox, Gaussian, Inc., Wallingford CT, 2016.
 
 ******************************************
 Gaussian 16:  ES64L-G16RevA.03 25-Dec-2016
                11-Feb-2020 
 ******************************************
 %chk=checkpoint.chk
 %mem=3GB
 %nprocshared=4
 Will use up to    4 processors via shared memory.
 --------------------------------
 #t pop=none jul-cc-pvdz upbe1pbe
 --------------------------------
 ------------------------
 theory_abbreviation pbe0
 ------------------------
 Symbolic Z-matrix:
 Charge =  0 Multiplicity = 6
 O                    -0.29903  -0.36909  -0.71009 
 C                    -1.43527  -1.20958  -0.48726 
 C                    -2.60474  -0.23397   0.00315 
 C                    -2.03536   1.13977  -0.22947 
 C                    -2.02658   1.74098  -1.5723 
 Fe                    1.34602   0.03231   0.00345 
 Cl                    1.63038   2.10659  -0.77037 
 C                    -1.58116   1.96745   0.89163 
 Cl                    2.83504  -1.46012  -0.59197 
 Cl                    1.05715   0.10582   2.23265 
 H                    -3.44411  -0.35204  -0.69446 
 H                    -2.45734   2.18852   1.52164 
 H                    -0.89882   1.3963    1.54101 
 H                    -1.09986   2.89137   0.57173 
 H                    -2.66309   2.64027  -1.54181 
 H                    -1.00634   2.09809  -1.77662 
 H                    -2.36774   1.07207  -2.3604 
 C                    -3.11584  -0.4662    1.42825 
 H                    -3.91541   0.24039   1.67701 
 H                    -3.53341  -1.47244   1.50937 
 H                    -2.3245   -0.37125   2.17522 
 C                    -1.08847  -2.29924   0.52479 
 H                    -1.9201   -2.99414   0.67955 
 H                    -0.24145  -2.86475   0.12179 
 H                    -0.78061  -1.88217   1.48482 
 C                    -1.80756  -1.84606  -1.82832 
 H                    -0.9649   -2.44812  -2.18023 
 H                    -2.68724  -2.49228  -1.72896 
 H                    -2.01321  -1.08501  -2.58668 
 
                    Distance matrix (angstroms):
                    1          2          3          4          5
     1  O    0.000000
     2  C    1.430772   0.000000
     3  C    2.417287   1.600001   0.000000
     4  C    2.349992   2.438443   1.505148   0.000000
     5  C    2.860106   3.198868   2.591666   1.471296   0.000000
     6  Fe   1.837509   3.085229   3.959727   3.565725   4.095960
     7  Cl   3.139306   4.524966   4.900287   3.829479   3.761655
     8  C    3.109465   3.466435   2.585224   1.465686   2.514091
     9  Cl   3.320648   4.278931   5.607929   5.532773   5.902829
    10  Cl   3.274823   3.916674   4.300652   4.085916   5.163407
    11  H    3.145160   2.194026   1.097785   2.103872   2.675949
    12  H    4.022466   4.077668   2.862860   2.084305   3.155674
    13  H    2.922969   3.345480   2.816546   2.119458   3.329157
    14  H    3.593736   4.248731   3.515063   2.141299   2.603657
    15  H    3.916218   4.176238   3.263671   2.089923   1.102180
    16  H    2.779347   3.575911   3.340808   2.090676   1.100075
    17  H    3.013313   3.095821   2.710773   2.157759   1.088548
    18  C    3.537843   2.654457   1.531687   2.548455   3.880905
    19  H    4.375828   3.596887   2.178225   2.824560   4.046905
    20  H    4.074870   2.908235   2.159841   3.477262   4.700346
    21  H    3.525267   2.929560   2.194368   2.854701   4.312093
    22  C    2.423553   1.527047   2.614682   3.645860   4.647709
    23  H    3.383757   2.186583   2.923146   4.234238   5.244375
    24  H    2.631282   2.129724   3.538396   4.402004   5.222005
    25  H    2.709050   2.184049   2.870436   3.693957   4.901596
    26  C    2.389048   1.530408   2.566829   3.394606   3.602821
    27  H    2.631934   2.149738   3.515495   4.221879   4.364087
    28  H    3.354038   2.180495   2.847271   3.983108   4.287360
    29  H    2.640557   2.181074   2.789515   3.241378   3.002556
                    6          7          8          9         10
     6  Fe   0.000000
     7  Cl   2.232103   0.000000
     8  C    3.619667   3.618780   0.000000
     9  Cl   2.190677   3.768884   5.783781   0.000000
    10  Cl   2.249047   3.653745   3.496381   3.686670   0.000000
    11  H    4.855934   5.639236   3.371396   6.376992   5.388779
    12  H    4.628137   4.687157   1.101576   6.766771   4.146666
    13  H    3.043659   3.499119   1.101579   5.162407   2.443267
    14  H    3.805187   3.141861   1.089773   5.981060   3.894954
    15  H    5.026148   4.394741   2.746798   6.924218   5.874536
    16  H    3.601339   2.822207   2.732590   5.368469   4.929644
    17  H    4.523372   4.425311   3.463547   6.050479   5.810309
    18  C    4.710284   5.829216   2.926747   6.362559   4.288135
    19  H    5.525099   6.342561   3.008032   7.321786   5.005315
    20  H    5.323618   6.683664   4.003214   6.706186   4.907880
    21  H    4.283945   5.518811   2.769419   5.955152   3.415622
    22  C    3.410963   5.336751   4.310683   4.164753   3.647572
    23  H    4.503779   6.381658   4.977671   5.155705   4.570102
    24  H    3.305604   5.386455   5.073226   3.456473   3.868635
    25  H    3.222153   5.177739   3.976474   4.190953   2.808682
    26  C    4.102282   5.344352   4.689589   4.819884   5.339279
    27  H    4.032536   5.428494   5.414184   4.235360   5.484965
    28  H    5.063790   6.380462   5.289620   5.731814   6.038618
    29  H    4.386519   5.173101   4.647884   5.255956   5.837046
                   11         12         13         14         15
    11  H    0.000000
    12  H    3.512723   0.000000
    13  H    3.812146   1.748417   0.000000
    14  H    4.197425   1.799743   1.793083   0.000000
    15  H    3.206538   3.103401   3.763486   2.640786   0.000000
    16  H    3.621729   3.604450   3.392741   2.480471   1.758952
    17  H    2.441719   4.040383   4.181366   3.676238   1.793479
    18  C    2.150980   2.736759   2.897716   4.008869   4.321617
    19  H    2.489375   2.438295   3.233324   4.022014   4.205769
    20  H    2.473891   3.815845   3.895086   5.083711   5.194371
    21  H    3.080412   2.645230   2.357758   3.836093   4.795850
    22  C    3.290474   4.796615   3.837405   5.190833   5.581131
    23  H    3.345325   5.278034   4.589228   5.943361   6.101884
    24  H    4.151747   5.692560   4.539032   5.837136   6.239961
    25  H    3.766275   4.402647   3.281081   4.870557   5.758185
    26  C    2.489175   5.284146   4.763509   5.357632   4.576146
    27  H    3.570367   6.117973   5.350842   6.008458   5.402138
    28  H    2.494722   5.703423   5.386288   6.066012   5.136012
    29  H    2.482980   5.271761   4.943328   5.159579   3.923237
                   16         17         18         19         20
    16  H    0.000000
    17  H    1.801931   0.000000
    18  C    4.614844   4.156900   0.000000
    19  H    4.882753   4.403140   1.095654   0.000000
    20  H    5.471060   4.775816   1.092460   1.762902   0.000000
    21  H    4.842750   4.759925   1.092329   1.775753   1.765623
    22  C    4.963847   4.618075   2.878638   3.971017   2.762383
    23  H    5.727000   5.096640   2.894968   3.929171   2.367899
    24  H    5.368316   5.116733   3.965101   5.055551   3.834178
    25  H    5.150773   5.102186   2.731575   3.790673   2.783239
    26  C    4.025041   3.018670   3.771058   4.591691   3.776017
    27  H    4.564282   3.793699   4.644968   5.550848   4.600255
    28  H    4.888682   3.633918   3.775800   4.536131   3.498973
    29  H    3.435423   2.197700   4.209322   4.853255   4.386194
                   21         22         23         24         25
    21  H    0.000000
    22  C    2.822915   0.000000
    23  H    3.046322   1.094733   0.000000
    24  H    3.843591   1.095282   1.773613   0.000000
    25  H    2.267848   1.091052   1.784200   1.764654   0.000000
    26  C    4.297742   2.501919   2.760467   2.700629   3.468843
    27  H    5.013166   2.711931   3.064131   2.448732   3.713072
    28  H    4.457902   2.769966   2.577069   3.089648   3.786274
    29  H    4.825141   3.465649   3.784400   3.693564   4.328036
                   26         27         28         29
    26  C    0.000000
    27  H    1.093801   0.000000
    28  H    1.096042   1.781027   0.000000
    29  H    1.093886   1.766977   1.780564   0.000000
 Framework group  C1[X(C8H16Cl3FeO)]
 Deg. of freedom    81
                         Standard orientation:                         
 ---------------------------------------------------------------------
 Center     Atomic      Atomic             Coordinates (Angstroms)
 Number     Number       Type             X           Y           Z
 ---------------------------------------------------------------------
      1          8           0       -0.299030   -0.369090   -0.710085
      2          6           0       -1.435265   -1.209582   -0.487261
      3          6           0       -2.604744   -0.233970    0.003150
      4          6           0       -2.035355    1.139767   -0.229473
      5          6           0       -2.026575    1.740977   -1.572299
      6         26           0        1.346019    0.032314    0.003446
      7         17           0        1.630376    2.106592   -0.770372
      8          6           0       -1.581157    1.967450    0.891634
      9         17           0        2.835041   -1.460121   -0.591968
     10         17           0        1.057150    0.105816    2.232653
     11          1           0       -3.444105   -0.352039   -0.694464
     12          1           0       -2.457341    2.188517    1.521635
     13          1           0       -0.898824    1.396297    1.541005
     14          1           0       -1.099862    2.891365    0.571725
     15          1           0       -2.663087    2.640268   -1.541809
     16          1           0       -1.006336    2.098094   -1.776617
     17          1           0       -2.367742    1.072070   -2.360402
     18          6           0       -3.115840   -0.466197    1.428252
     19          1           0       -3.915407    0.240394    1.677009
     20          1           0       -3.533411   -1.472439    1.509366
     21          1           0       -2.324503   -0.371254    2.175216
     22          6           0       -1.088465   -2.299243    0.524787
     23          1           0       -1.920096   -2.994137    0.679550
     24          1           0       -0.241446   -2.864748    0.121792
     25          1           0       -0.780606   -1.882172    1.484823
     26          6           0       -1.807562   -1.846056   -1.828322
     27          1           0       -0.964900   -2.448118   -2.180234
     28          1           0       -2.687241   -2.492276   -1.728958
     29          1           0       -2.013206   -1.085009   -2.586678
 ---------------------------------------------------------------------
 Rotational constants (GHZ):           0.5676203           0.3692899           0.3326437
   427 basis functions,  1056 primitive gaussians,   461 cartesian basis functions
    77 alpha electrons       72 beta electrons
       nuclear repulsion energy      1665.0639519913 Hartrees.
 NAtoms=   29 NActive=   29 NUniq=   29 SFac= 1.00D+00 NAtFMM=   60 NAOKFM=F Big=F
 ExpMin= 1.40D-02 ExpMax= 4.32D+06 ExpMxC= 4.91D+03 IAcc=3 IRadAn=         5 AccDes= 0.00D+00
 Harris functional with IExCor= 1009 and IRadAn=       5 diagonalized for initial guess.
 HarFok:  IExCor= 1009 AccDes= 0.00D+00 IRadAn=         5 IDoV= 1 UseB2=F ITyADJ=14
 ICtDFT=  3500011 ScaDFX=  1.000000  1.000000  1.000000  1.000000
 FoFCou: FMM=F IPFlag=           0 FMFlag=      100000 FMFlg1=           0
         NFxFlg=           0 DoJE=T BraDBF=F KetDBF=T FulRan=T
         wScrn=  0.000000 ICntrl=       500 IOpCl=  0 I1Cent=   200000004 NGrid=           0
         NMat0=    1 NMatS0=      1 NMatT0=    0 NMatD0=    1 NMtDS0=    0 NMtDT0=    0
 Petite list used in FoFCou.
 Initial guess <Sx>= 0.0000 <Sy>= 0.0000 <Sz>= 2.5000 <S**2>= 8.7500 S= 2.5000
 EnCoef did   100 forward-backward iterations
 SCF Done:  E(UPBE1PBE) =  -3033.10827095     A.U. after   20 cycles
            NFock= 20  Conv=0.84D-08     -V/T= 2.0021
 <Sx>= 0.0000 <Sy>= 0.0000 <Sz>= 2.5000 <S**2>= 8.7631 S= 2.5022
 <L.S>= 0.000000000000E+00
 Annihilation of the first spin contaminant:
 S**2 before annihilation     8.7631,   after     8.7501
 1\1\GINC-HOLY7C04312\SP\UPBE1PBE\Jul-CC-pVDZ\C8H16Cl3Fe1O1(6)\EKWAN\11
 -Feb-2020\0\\#t pop=none jul-cc-pvdz upbe1pbe\\theory_abbreviation pbe
 0\\0,6\O,0,-0.29903,-0.36909,-0.710085\C,0,-1.435265,-1.209582,-0.4872
 61\C,0,-2.604744,-0.23397,0.00315\C,0,-2.035355,1.139767,-0.229473\C,0
 ,-2.026575,1.740977,-1.572299\Fe,0,1.346019,0.032314,0.003446\Cl,0,1.6
 30376,2.106592,-0.770372\C,0,-1.581157,1.96745,0.891634\Cl,0,2.835041,
 -1.460121,-0.591968\Cl,0,1.05715,0.105816,2.232653\H,0,-3.444105,-0.35
 2039,-0.694464\H,0,-2.457341,2.188517,1.521635\H,0,-0.898824,1.396297,
 1.541005\H,0,-1.099862,2.891365,0.571725\H,0,-2.663087,2.640268,-1.541
 809\H,0,-1.006336,2.098094,-1.776617\H,0,-2.367742,1.07207,-2.360402\C
 ,0,-3.11584,-0.466197,1.428252\H,0,-3.915407,0.240394,1.677009\H,0,-3.
 533411,-1.472439,1.509366\H,0,-2.324503,-0.371254,2.175216\C,0,-1.0884
 65,-2.299243,0.524787\H,0,-1.920096,-2.994137,0.67955\H,0,-0.241446,-2
 .864748,0.121792\H,0,-0.780606,-1.882172,1.484823\C,0,-1.807562,-1.846
 056,-1.828322\H,0,-0.9649,-2.448118,-2.180234\H,0,-2.687241,-2.492276,
 -1.728958\H,0,-2.013206,-1.085009,-2.586678\\Version=ES64L-G16RevA.03\
 HF=-3033.1082709\S2=8.763148\S2-1=0.\S2A=8.750055\RMSD=8.438e-09\PG=C0
 1 [X(C8H16Cl3Fe1O1)]\\@


 ONE THORN OF EXPERIENCE IS WORTH A WHOLE WILDERNESS OF
 WARNING....  LOWELL - AMONG MY BOOKS
 Job cpu time:       0 days  1 hours 27 minutes  5.6 seconds.
 Elapsed time:       0 days  0 hours 21 minutes 50.7 seconds.
 File lengths (MBytes):  RWF=    173 Int=      0 D2E=      0 Chk=     13 Scr=      1
 Normal termination of Gaussian 16 at Tue Feb 11 13:55:54 2020.
 Initial command:
 /n/sw/g16_nehalem/g16/l1.exe "/scratch/Gau-166863.inp" -scrdir="/scratch/"
 Entering Link 1 = /n/sw/g16_nehalem/g16/l1.exe PID=    169537.
  
 Copyright (c) 1988,1990,1992,1993,1995,1998,2003,2009,2016,
            Gaussian, Inc.  All Rights Reserved.
  
 This is part of the Gaussian(R) 16 program.  It is based on
 the Gaussian(R) 09 system (copyright 2009, Gaussian, Inc.),
 the Gaussian(R) 03 system (copyright 2003, Gaussian, Inc.),
 the Gaussian(R) 98 system (copyright 1998, Gaussian, Inc.),
 the Gaussian(R) 94 system (copyright 1995, Gaussian, Inc.),
 the Gaussian 92(TM) system (copyright 1992, Gaussian, Inc.),
 the Gaussian 90(TM) system (copyright 1990, Gaussian, Inc.),
 the Gaussian 88(TM) system (copyright 1988, Gaussian, Inc.),
 the Gaussian 86(TM) system (copyright 1986, Carnegie Mellon
 University), and the Gaussian 82(TM) system (copyright 1983,
 Carnegie Mellon University). Gaussian is a federally registered
 trademark of Gaussian, Inc.
  
 This software contains proprietary and confidential information,
 including trade secrets, belonging to Gaussian, Inc.
  
 This software is provided under written license and may be
 used, copied, transmitted, or stored only in accord with that
 written license.
  
 The following legend is applicable only to US Government
 contracts under FAR:
  
                    RESTRICTED RIGHTS LEGEND
  
 Use, reproduction and disclosure by the US Government is
 subject to restrictions as set forth in subparagraphs (a)
 and (c) of the Commercial Computer Software - Restricted
 Rights clause in FAR 52.227-19.
  
 Gaussian, Inc.
 340 Quinnipiac St., Bldg. 40, Wallingford CT 06492
  
  
 ---------------------------------------------------------------
 Warning -- This program may not be used in any manner that
 competes with the business of Gaussian, Inc. or will provide
 assistance to any competitor of Gaussian, Inc.  The licensee
 of this program is prohibited from giving any competitor of
 Gaussian, Inc. access to this program.  By using this program,
 the user acknowledges that Gaussian, Inc. is engaged in the
 business of creating and licensing software in the field of
 computational chemistry and represents and warrants to the
 licensee that it is not a competitor of Gaussian, Inc. and that
 it will not use this program in any manner prohibited above.
 ---------------------------------------------------------------
  

 Cite this work as:
 Gaussian 16, Revision A.03,
 M. J. Frisch, G. W. Trucks, H. B. Schlegel, G. E. Scuseria, 
 M. A. Robb, J. R. Cheeseman, G. Scalmani, V. Barone, 
 G. A. Petersson, H. Nakatsuji, X. Li, M. Caricato, A. V. Marenich, 
 J. Bloino, B. G. Janesko, R. Gomperts, B. Mennucci, H. P. Hratchian, 
 J. V. Ortiz, A. F. Izmaylov, J. L. Sonnenberg, D. Williams-Young, 
 F. Ding, F. Lipparini, F. Egidi, J. Goings, B. Peng, A. Petrone, 
 T. Henderson, D. Ranasinghe, V. G. Zakrzewski, J. Gao, N. Rega, 
 G. Zheng, W. Liang, M. Hada, M. Ehara, K. Toyota, R. Fukuda, 
 J. Hasegawa, M. Ishida, T. Nakajima, Y. Honda, O. Kitao, H. Nakai, 
 T. Vreven, K. Throssell, J. A. Montgomery, Jr., J. E. Peralta, 
 F. Ogliaro, M. J. Bearpark, J. J. Heyd, E. N. Brothers, K. N. Kudin, 
 V. N. Staroverov, T. A. Keith, R. Kobayashi, J. Normand, 
 K. Raghavachari, A. P. Rendell, J. C. Burant, S. S. Iyengar, 
 J. Tomasi, M. Cossi, J. M. Millam, M. Klene, C. Adamo, R. Cammi, 
 J. W. Ochterski, R. L. Martin, K. Morokuma, O. Farkas, 
 J. B. Foresman, and D. J. Fox, Gaussian, Inc., Wallingford CT, 2016.
 
 ******************************************
 Gaussian 16:  ES64L-G16RevA.03 25-Dec-2016
                11-Feb-2020 
 ******************************************
 %chk=checkpoint.chk
 %mem=3GB
 %nprocshared=4
 Will use up to    4 processors via shared memory.
 ---------------------------------------------------------------------
 #t pop=none jul-cc-pvdz guess=read upbe1pbe empiricaldispersion=gd3bj
 ---------------------------------------------------------------------
 -----------------------------
 theory_abbreviation pbe0_d3bj
 -----------------------------
 Symbolic Z-matrix:
 Charge =  0 Multiplicity = 6
 O                    -0.29903  -0.36909  -0.71009 
 C                    -1.43527  -1.20958  -0.48726 
 C                    -2.60474  -0.23397   0.00315 
 C                    -2.03536   1.13977  -0.22947 
 C                    -2.02658   1.74098  -1.5723 
 Fe                    1.34602   0.03231   0.00345 
 Cl                    1.63038   2.10659  -0.77037 
 C                    -1.58116   1.96745   0.89163 
 Cl                    2.83504  -1.46012  -0.59197 
 Cl                    1.05715   0.10582   2.23265 
 H                    -3.44411  -0.35204  -0.69446 
 H                    -2.45734   2.18852   1.52164 
 H                    -0.89882   1.3963    1.54101 
 H                    -1.09986   2.89137   0.57173 
 H                    -2.66309   2.64027  -1.54181 
 H                    -1.00634   2.09809  -1.77662 
 H                    -2.36774   1.07207  -2.3604 
 C                    -3.11584  -0.4662    1.42825 
 H                    -3.91541   0.24039   1.67701 
 H                    -3.53341  -1.47244   1.50937 
 H                    -2.3245   -0.37125   2.17522 
 C                    -1.08847  -2.29924   0.52479 
 H                    -1.9201   -2.99414   0.67955 
 H                    -0.24145  -2.86475   0.12179 
 H                    -0.78061  -1.88217   1.48482 
 C                    -1.80756  -1.84606  -1.82832 
 H                    -0.9649   -2.44812  -2.18023 
 H                    -2.68724  -2.49228  -1.72896 
 H                    -2.01321  -1.08501  -2.58668 
 
                    Distance matrix (angstroms):
                    1          2          3          4          5
     1  O    0.000000
     2  C    1.430772   0.000000
     3  C    2.417287   1.600001   0.000000
     4  C    2.349992   2.438443   1.505148   0.000000
     5  C    2.860106   3.198868   2.591666   1.471296   0.000000
     6  Fe   1.837509   3.085229   3.959727   3.565725   4.095960
     7  Cl   3.139306   4.524966   4.900287   3.829479   3.761655
     8  C    3.109465   3.466435   2.585224   1.465686   2.514091
     9  Cl   3.320648   4.278931   5.607929   5.532773   5.902829
    10  Cl   3.274823   3.916674   4.300652   4.085916   5.163407
    11  H    3.145160   2.194026   1.097785   2.103872   2.675949
    12  H    4.022466   4.077668   2.862860   2.084305   3.155674
    13  H    2.922969   3.345480   2.816546   2.119458   3.329157
    14  H    3.593736   4.248731   3.515063   2.141299   2.603657
    15  H    3.916218   4.176238   3.263671   2.089923   1.102180
    16  H    2.779347   3.575911   3.340808   2.090676   1.100075
    17  H    3.013313   3.095821   2.710773   2.157759   1.088548
    18  C    3.537843   2.654457   1.531687   2.548455   3.880905
    19  H    4.375828   3.596887   2.178225   2.824560   4.046905
    20  H    4.074870   2.908235   2.159841   3.477262   4.700346
    21  H    3.525267   2.929560   2.194368   2.854701   4.312093
    22  C    2.423553   1.527047   2.614682   3.645860   4.647709
    23  H    3.383757   2.186583   2.923146   4.234238   5.244375
    24  H    2.631282   2.129724   3.538396   4.402004   5.222005
    25  H    2.709050   2.184049   2.870436   3.693957   4.901596
    26  C    2.389048   1.530408   2.566829   3.394606   3.602821
    27  H    2.631934   2.149738   3.515495   4.221879   4.364087
    28  H    3.354038   2.180495   2.847271   3.983108   4.287360
    29  H    2.640557   2.181074   2.789515   3.241378   3.002556
                    6          7          8          9         10
     6  Fe   0.000000
     7  Cl   2.232103   0.000000
     8  C    3.619667   3.618780   0.000000
     9  Cl   2.190677   3.768884   5.783781   0.000000
    10  Cl   2.249047   3.653745   3.496381   3.686670   0.000000
    11  H    4.855934   5.639236   3.371396   6.376992   5.388779
    12  H    4.628137   4.687157   1.101576   6.766771   4.146666
    13  H    3.043659   3.499119   1.101579   5.162407   2.443267
    14  H    3.805187   3.141861   1.089773   5.981060   3.894954
    15  H    5.026148   4.394741   2.746798   6.924218   5.874536
    16  H    3.601339   2.822207   2.732590   5.368469   4.929644
    17  H    4.523372   4.425311   3.463547   6.050479   5.810309
    18  C    4.710284   5.829216   2.926747   6.362559   4.288135
    19  H    5.525099   6.342561   3.008032   7.321786   5.005315
    20  H    5.323618   6.683664   4.003214   6.706186   4.907880
    21  H    4.283945   5.518811   2.769419   5.955152   3.415622
    22  C    3.410963   5.336751   4.310683   4.164753   3.647572
    23  H    4.503779   6.381658   4.977671   5.155705   4.570102
    24  H    3.305604   5.386455   5.073226   3.456473   3.868635
    25  H    3.222153   5.177739   3.976474   4.190953   2.808682
    26  C    4.102282   5.344352   4.689589   4.819884   5.339279
    27  H    4.032536   5.428494   5.414184   4.235360   5.484965
    28  H    5.063790   6.380462   5.289620   5.731814   6.038618
    29  H    4.386519   5.173101   4.647884   5.255956   5.837046
                   11         12         13         14         15
    11  H    0.000000
    12  H    3.512723   0.000000
    13  H    3.812146   1.748417   0.000000
    14  H    4.197425   1.799743   1.793083   0.000000
    15  H    3.206538   3.103401   3.763486   2.640786   0.000000
    16  H    3.621729   3.604450   3.392741   2.480471   1.758952
    17  H    2.441719   4.040383   4.181366   3.676238   1.793479
    18  C    2.150980   2.736759   2.897716   4.008869   4.321617
    19  H    2.489375   2.438295   3.233324   4.022014   4.205769
    20  H    2.473891   3.815845   3.895086   5.083711   5.194371
    21  H    3.080412   2.645230   2.357758   3.836093   4.795850
    22  C    3.290474   4.796615   3.837405   5.190833   5.581131
    23  H    3.345325   5.278034   4.589228   5.943361   6.101884
    24  H    4.151747   5.692560   4.539032   5.837136   6.239961
    25  H    3.766275   4.402647   3.281081   4.870557   5.758185
    26  C    2.489175   5.284146   4.763509   5.357632   4.576146
    27  H    3.570367   6.117973   5.350842   6.008458   5.402138
    28  H    2.494722   5.703423   5.386288   6.066012   5.136012
    29  H    2.482980   5.271761   4.943328   5.159579   3.923237
                   16         17         18         19         20
    16  H    0.000000
    17  H    1.801931   0.000000
    18  C    4.614844   4.156900   0.000000
    19  H    4.882753   4.403140   1.095654   0.000000
    20  H    5.471060   4.775816   1.092460   1.762902   0.000000
    21  H    4.842750   4.759925   1.092329   1.775753   1.765623
    22  C    4.963847   4.618075   2.878638   3.971017   2.762383
    23  H    5.727000   5.096640   2.894968   3.929171   2.367899
    24  H    5.368316   5.116733   3.965101   5.055551   3.834178
    25  H    5.150773   5.102186   2.731575   3.790673   2.783239
    26  C    4.025041   3.018670   3.771058   4.591691   3.776017
    27  H    4.564282   3.793699   4.644968   5.550848   4.600255
    28  H    4.888682   3.633918   3.775800   4.536131   3.498973
    29  H    3.435423   2.197700   4.209322   4.853255   4.386194
                   21         22         23         24         25
    21  H    0.000000
    22  C    2.822915   0.000000
    23  H    3.046322   1.094733   0.000000
    24  H    3.843591   1.095282   1.773613   0.000000
    25  H    2.267848   1.091052   1.784200   1.764654   0.000000
    26  C    4.297742   2.501919   2.760467   2.700629   3.468843
    27  H    5.013166   2.711931   3.064131   2.448732   3.713072
    28  H    4.457902   2.769966   2.577069   3.089648   3.786274
    29  H    4.825141   3.465649   3.784400   3.693564   4.328036
                   26         27         28         29
    26  C    0.000000
    27  H    1.093801   0.000000
    28  H    1.096042   1.781027   0.000000
    29  H    1.093886   1.766977   1.780564   0.000000
 Framework group  C1[X(C8H16Cl3FeO)]
 Deg. of freedom    81
                         Standard orientation:                         
 ---------------------------------------------------------------------
 Center     Atomic      Atomic             Coordinates (Angstroms)
 Number     Number       Type             X           Y           Z
 ---------------------------------------------------------------------
      1          8           0       -0.299030   -0.369090   -0.710085
      2          6           0       -1.435265   -1.209582   -0.487261
      3          6           0       -2.604744   -0.233970    0.003150
      4          6           0       -2.035355    1.139767   -0.229473
      5          6           0       -2.026575    1.740977   -1.572299
      6         26           0        1.346019    0.032314    0.003446
      7         17           0        1.630376    2.106592   -0.770372
      8          6           0       -1.581157    1.967450    0.891634
      9         17           0        2.835041   -1.460121   -0.591968
     10         17           0        1.057150    0.105816    2.232653
     11          1           0       -3.444105   -0.352039   -0.694464
     12          1           0       -2.457341    2.188517    1.521635
     13          1           0       -0.898824    1.396297    1.541005
     14          1           0       -1.099862    2.891365    0.571725
     15          1           0       -2.663087    2.640268   -1.541809
     16          1           0       -1.006336    2.098094   -1.776617
     17          1           0       -2.367742    1.072070   -2.360402
     18          6           0       -3.115840   -0.466197    1.428252
     19          1           0       -3.915407    0.240394    1.677009
     20          1           0       -3.533411   -1.472439    1.509366
     21          1           0       -2.324503   -0.371254    2.175216
     22          6           0       -1.088465   -2.299243    0.524787
     23          1           0       -1.920096   -2.994137    0.679550
     24          1           0       -0.241446   -2.864748    0.121792
     25          1           0       -0.780606   -1.882172    1.484823
     26          6           0       -1.807562   -1.846056   -1.828322
     27          1           0       -0.964900   -2.448118   -2.180234
     28          1           0       -2.687241   -2.492276   -1.728958
     29          1           0       -2.013206   -1.085009   -2.586678
 ---------------------------------------------------------------------
 Rotational constants (GHZ):           0.5676203           0.3692899           0.3326437
   427 basis functions,  1056 primitive gaussians,   461 cartesian basis functions
    77 alpha electrons       72 beta electrons
       nuclear repulsion energy      1665.0639519913 Hartrees.
 NAtoms=   29 NActive=   29 NUniq=   29 SFac= 1.00D+00 NAtFMM=   60 NAOKFM=F Big=F
 Nuclear repulsion after empirical dispersion term =     1665.0265876921 Hartrees.
 Initial guess from the checkpoint file:  "checkpoint.chk"
 B after Tr=     0.000000    0.000000    0.000000
         Rot=    1.000000    0.000000    0.000000    0.000000 Ang=   0.00 deg.
 Initial guess <Sx>= 0.0000 <Sy>= 0.0000 <Sz>= 2.5000 <S**2>= 8.7631 S= 2.5022
 SCF Done:  E(UPBE1PBE) =  -3033.14563524     A.U. after    1 cycles
            NFock=  1  Conv=0.45D-08     -V/T= 2.0022
 <Sx>= 0.0000 <Sy>= 0.0000 <Sz>= 2.5000 <S**2>= 8.7631 S= 2.5022
 <L.S>= 0.000000000000E+00
 Annihilation of the first spin contaminant:
 S**2 before annihilation     8.7631,   after     8.7501
 1\1\GINC-HOLY7C04312\SP\UPBE1PBE\Jul-CC-pVDZ\C8H16Cl3Fe1O1(6)\EKWAN\11
 -Feb-2020\0\\#t pop=none jul-cc-pvdz guess=read upbe1pbe empiricaldisp
 ersion=gd3bj\\theory_abbreviation pbe0_d3bj\\0,6\O,0,-0.29903,-0.36909
 ,-0.710085\C,0,-1.435265,-1.209582,-0.487261\C,0,-2.604744,-0.23397,0.
 00315\C,0,-2.035355,1.139767,-0.229473\C,0,-2.026575,1.740977,-1.57229
 9\Fe,0,1.346019,0.032314,0.003446\Cl,0,1.630376,2.106592,-0.770372\C,0
 ,-1.581157,1.96745,0.891634\Cl,0,2.835041,-1.460121,-0.591968\Cl,0,1.0
 5715,0.105816,2.232653\H,0,-3.444105,-0.352039,-0.694464\H,0,-2.457341
 ,2.188517,1.521635\H,0,-0.898824,1.396297,1.541005\H,0,-1.099862,2.891
 365,0.571725\H,0,-2.663087,2.640268,-1.541809\H,0,-1.006336,2.098094,-
 1.776617\H,0,-2.367742,1.07207,-2.360402\C,0,-3.11584,-0.466197,1.4282
 52\H,0,-3.915407,0.240394,1.677009\H,0,-3.533411,-1.472439,1.509366\H,
 0,-2.324503,-0.371254,2.175216\C,0,-1.088465,-2.299243,0.524787\H,0,-1
 .920096,-2.994137,0.67955\H,0,-0.241446,-2.864748,0.121792\H,0,-0.7806
 06,-1.882172,1.484823\C,0,-1.807562,-1.846056,-1.828322\H,0,-0.9649,-2
 .448118,-2.180234\H,0,-2.687241,-2.492276,-1.728958\H,0,-2.013206,-1.0
 85009,-2.586678\\Version=ES64L-G16RevA.03\HF=-3033.1456352\S2=8.763148
 \S2-1=0.\S2A=8.750055\RMSD=4.531e-09\PG=C01 [X(C8H16Cl3Fe1O1)]\\@


 MOST BUREAUCRACIES FUNCTION LIKE A SEPTIC TANK.
 THE LARGE CHUNKS RISE TO THE TOP.
 Job cpu time:       0 days  0 hours  4 minutes 39.8 seconds.
 Elapsed time:       0 days  0 hours  1 minutes 11.0 seconds.
 File lengths (MBytes):  RWF=    170 Int=      0 D2E=      0 Chk=     13 Scr=      1
 Normal termination of Gaussian 16 at Tue Feb 11 13:57:06 2020.
 Initial command:
 /n/sw/g16_nehalem/g16/l1.exe "/scratch/Gau-166863.inp" -scrdir="/scratch/"
 Entering Link 1 = /n/sw/g16_nehalem/g16/l1.exe PID=    169679.
  
 Copyright (c) 1988,1990,1992,1993,1995,1998,2003,2009,2016,
            Gaussian, Inc.  All Rights Reserved.
  
 This is part of the Gaussian(R) 16 program.  It is based on
 the Gaussian(R) 09 system (copyright 2009, Gaussian, Inc.),
 the Gaussian(R) 03 system (copyright 2003, Gaussian, Inc.),
 the Gaussian(R) 98 system (copyright 1998, Gaussian, Inc.),
 the Gaussian(R) 94 system (copyright 1995, Gaussian, Inc.),
 the Gaussian 92(TM) system (copyright 1992, Gaussian, Inc.),
 the Gaussian 90(TM) system (copyright 1990, Gaussian, Inc.),
 the Gaussian 88(TM) system (copyright 1988, Gaussian, Inc.),
 the Gaussian 86(TM) system (copyright 1986, Carnegie Mellon
 University), and the Gaussian 82(TM) system (copyright 1983,
 Carnegie Mellon University). Gaussian is a federally registered
 trademark of Gaussian, Inc.
  
 This software contains proprietary and confidential information,
 including trade secrets, belonging to Gaussian, Inc.
  
 This software is provided under written license and may be
 used, copied, transmitted, or stored only in accord with that
 written license.
  
 The following legend is applicable only to US Government
 contracts under FAR:
  
                    RESTRICTED RIGHTS LEGEND
  
 Use, reproduction and disclosure by the US Government is
 subject to restrictions as set forth in subparagraphs (a)
 and (c) of the Commercial Computer Software - Restricted
 Rights clause in FAR 52.227-19.
  
 Gaussian, Inc.
 340 Quinnipiac St., Bldg. 40, Wallingford CT 06492
  
  
 ---------------------------------------------------------------
 Warning -- This program may not be used in any manner that
 competes with the business of Gaussian, Inc. or will provide
 assistance to any competitor of Gaussian, Inc.  The licensee
 of this program is prohibited from giving any competitor of
 Gaussian, Inc. access to this program.  By using this program,
 the user acknowledges that Gaussian, Inc. is engaged in the
 business of creating and licensing software in the field of
 computational chemistry and represents and warrants to the
 licensee that it is not a competitor of Gaussian, Inc. and that
 it will not use this program in any manner prohibited above.
 ---------------------------------------------------------------
  

 Cite this work as:
 Gaussian 16, Revision A.03,
 M. J. Frisch, G. W. Trucks, H. B. Schlegel, G. E. Scuseria, 
 M. A. Robb, J. R. Cheeseman, G. Scalmani, V. Barone, 
 G. A. Petersson, H. Nakatsuji, X. Li, M. Caricato, A. V. Marenich, 
 J. Bloino, B. G. Janesko, R. Gomperts, B. Mennucci, H. P. Hratchian, 
 J. V. Ortiz, A. F. Izmaylov, J. L. Sonnenberg, D. Williams-Young, 
 F. Ding, F. Lipparini, F. Egidi, J. Goings, B. Peng, A. Petrone, 
 T. Henderson, D. Ranasinghe, V. G. Zakrzewski, J. Gao, N. Rega, 
 G. Zheng, W. Liang, M. Hada, M. Ehara, K. Toyota, R. Fukuda, 
 J. Hasegawa, M. Ishida, T. Nakajima, Y. Honda, O. Kitao, H. Nakai, 
 T. Vreven, K. Throssell, J. A. Montgomery, Jr., J. E. Peralta, 
 F. Ogliaro, M. J. Bearpark, J. J. Heyd, E. N. Brothers, K. N. Kudin, 
 V. N. Staroverov, T. A. Keith, R. Kobayashi, J. Normand, 
 K. Raghavachari, A. P. Rendell, J. C. Burant, S. S. Iyengar, 
 J. Tomasi, M. Cossi, J. M. Millam, M. Klene, C. Adamo, R. Cammi, 
 J. W. Ochterski, R. L. Martin, K. Morokuma, O. Farkas, 
 J. B. Foresman, and D. J. Fox, Gaussian, Inc., Wallingford CT, 2016.
 
 ******************************************
 Gaussian 16:  ES64L-G16RevA.03 25-Dec-2016
                11-Feb-2020 
 ******************************************
 %chk=checkpoint.chk
 %mem=3GB
 %nprocshared=4
 Will use up to    4 processors via shared memory.
 -----------------------------------------
 #t pop=none jul-cc-pvdz guess=read ub3lyp
 -----------------------------------------
 -------------------------
 theory_abbreviation b3lyp
 -------------------------
 Symbolic Z-matrix:
 Charge =  0 Multiplicity = 6
 O                    -0.29903  -0.36909  -0.71009 
 C                    -1.43527  -1.20958  -0.48726 
 C                    -2.60474  -0.23397   0.00315 
 C                    -2.03536   1.13977  -0.22947 
 C                    -2.02658   1.74098  -1.5723 
 Fe                    1.34602   0.03231   0.00345 
 Cl                    1.63038   2.10659  -0.77037 
 C                    -1.58116   1.96745   0.89163 
 Cl                    2.83504  -1.46012  -0.59197 
 Cl                    1.05715   0.10582   2.23265 
 H                    -3.44411  -0.35204  -0.69446 
 H                    -2.45734   2.18852   1.52164 
 H                    -0.89882   1.3963    1.54101 
 H                    -1.09986   2.89137   0.57173 
 H                    -2.66309   2.64027  -1.54181 
 H                    -1.00634   2.09809  -1.77662 
 H                    -2.36774   1.07207  -2.3604 
 C                    -3.11584  -0.4662    1.42825 
 H                    -3.91541   0.24039   1.67701 
 H                    -3.53341  -1.47244   1.50937 
 H                    -2.3245   -0.37125   2.17522 
 C                    -1.08847  -2.29924   0.52479 
 H                    -1.9201   -2.99414   0.67955 
 H                    -0.24145  -2.86475   0.12179 
 H                    -0.78061  -1.88217   1.48482 
 C                    -1.80756  -1.84606  -1.82832 
 H                    -0.9649   -2.44812  -2.18023 
 H                    -2.68724  -2.49228  -1.72896 
 H                    -2.01321  -1.08501  -2.58668 
 
                    Distance matrix (angstroms):
                    1          2          3          4          5
     1  O    0.000000
     2  C    1.430772   0.000000
     3  C    2.417287   1.600001   0.000000
     4  C    2.349992   2.438443   1.505148   0.000000
     5  C    2.860106   3.198868   2.591666   1.471296   0.000000
     6  Fe   1.837509   3.085229   3.959727   3.565725   4.095960
     7  Cl   3.139306   4.524966   4.900287   3.829479   3.761655
     8  C    3.109465   3.466435   2.585224   1.465686   2.514091
     9  Cl   3.320648   4.278931   5.607929   5.532773   5.902829
    10  Cl   3.274823   3.916674   4.300652   4.085916   5.163407
    11  H    3.145160   2.194026   1.097785   2.103872   2.675949
    12  H    4.022466   4.077668   2.862860   2.084305   3.155674
    13  H    2.922969   3.345480   2.816546   2.119458   3.329157
    14  H    3.593736   4.248731   3.515063   2.141299   2.603657
    15  H    3.916218   4.176238   3.263671   2.089923   1.102180
    16  H    2.779347   3.575911   3.340808   2.090676   1.100075
    17  H    3.013313   3.095821   2.710773   2.157759   1.088548
    18  C    3.537843   2.654457   1.531687   2.548455   3.880905
    19  H    4.375828   3.596887   2.178225   2.824560   4.046905
    20  H    4.074870   2.908235   2.159841   3.477262   4.700346
    21  H    3.525267   2.929560   2.194368   2.854701   4.312093
    22  C    2.423553   1.527047   2.614682   3.645860   4.647709
    23  H    3.383757   2.186583   2.923146   4.234238   5.244375
    24  H    2.631282   2.129724   3.538396   4.402004   5.222005
    25  H    2.709050   2.184049   2.870436   3.693957   4.901596
    26  C    2.389048   1.530408   2.566829   3.394606   3.602821
    27  H    2.631934   2.149738   3.515495   4.221879   4.364087
    28  H    3.354038   2.180495   2.847271   3.983108   4.287360
    29  H    2.640557   2.181074   2.789515   3.241378   3.002556
                    6          7          8          9         10
     6  Fe   0.000000
     7  Cl   2.232103   0.000000
     8  C    3.619667   3.618780   0.000000
     9  Cl   2.190677   3.768884   5.783781   0.000000
    10  Cl   2.249047   3.653745   3.496381   3.686670   0.000000
    11  H    4.855934   5.639236   3.371396   6.376992   5.388779
    12  H    4.628137   4.687157   1.101576   6.766771   4.146666
    13  H    3.043659   3.499119   1.101579   5.162407   2.443267
    14  H    3.805187   3.141861   1.089773   5.981060   3.894954
    15  H    5.026148   4.394741   2.746798   6.924218   5.874536
    16  H    3.601339   2.822207   2.732590   5.368469   4.929644
    17  H    4.523372   4.425311   3.463547   6.050479   5.810309
    18  C    4.710284   5.829216   2.926747   6.362559   4.288135
    19  H    5.525099   6.342561   3.008032   7.321786   5.005315
    20  H    5.323618   6.683664   4.003214   6.706186   4.907880
    21  H    4.283945   5.518811   2.769419   5.955152   3.415622
    22  C    3.410963   5.336751   4.310683   4.164753   3.647572
    23  H    4.503779   6.381658   4.977671   5.155705   4.570102
    24  H    3.305604   5.386455   5.073226   3.456473   3.868635
    25  H    3.222153   5.177739   3.976474   4.190953   2.808682
    26  C    4.102282   5.344352   4.689589   4.819884   5.339279
    27  H    4.032536   5.428494   5.414184   4.235360   5.484965
    28  H    5.063790   6.380462   5.289620   5.731814   6.038618
    29  H    4.386519   5.173101   4.647884   5.255956   5.837046
                   11         12         13         14         15
    11  H    0.000000
    12  H    3.512723   0.000000
    13  H    3.812146   1.748417   0.000000
    14  H    4.197425   1.799743   1.793083   0.000000
    15  H    3.206538   3.103401   3.763486   2.640786   0.000000
    16  H    3.621729   3.604450   3.392741   2.480471   1.758952
    17  H    2.441719   4.040383   4.181366   3.676238   1.793479
    18  C    2.150980   2.736759   2.897716   4.008869   4.321617
    19  H    2.489375   2.438295   3.233324   4.022014   4.205769
    20  H    2.473891   3.815845   3.895086   5.083711   5.194371
    21  H    3.080412   2.645230   2.357758   3.836093   4.795850
    22  C    3.290474   4.796615   3.837405   5.190833   5.581131
    23  H    3.345325   5.278034   4.589228   5.943361   6.101884
    24  H    4.151747   5.692560   4.539032   5.837136   6.239961
    25  H    3.766275   4.402647   3.281081   4.870557   5.758185
    26  C    2.489175   5.284146   4.763509   5.357632   4.576146
    27  H    3.570367   6.117973   5.350842   6.008458   5.402138
    28  H    2.494722   5.703423   5.386288   6.066012   5.136012
    29  H    2.482980   5.271761   4.943328   5.159579   3.923237
                   16         17         18         19         20
    16  H    0.000000
    17  H    1.801931   0.000000
    18  C    4.614844   4.156900   0.000000
    19  H    4.882753   4.403140   1.095654   0.000000
    20  H    5.471060   4.775816   1.092460   1.762902   0.000000
    21  H    4.842750   4.759925   1.092329   1.775753   1.765623
    22  C    4.963847   4.618075   2.878638   3.971017   2.762383
    23  H    5.727000   5.096640   2.894968   3.929171   2.367899
    24  H    5.368316   5.116733   3.965101   5.055551   3.834178
    25  H    5.150773   5.102186   2.731575   3.790673   2.783239
    26  C    4.025041   3.018670   3.771058   4.591691   3.776017
    27  H    4.564282   3.793699   4.644968   5.550848   4.600255
    28  H    4.888682   3.633918   3.775800   4.536131   3.498973
    29  H    3.435423   2.197700   4.209322   4.853255   4.386194
                   21         22         23         24         25
    21  H    0.000000
    22  C    2.822915   0.000000
    23  H    3.046322   1.094733   0.000000
    24  H    3.843591   1.095282   1.773613   0.000000
    25  H    2.267848   1.091052   1.784200   1.764654   0.000000
    26  C    4.297742   2.501919   2.760467   2.700629   3.468843
    27  H    5.013166   2.711931   3.064131   2.448732   3.713072
    28  H    4.457902   2.769966   2.577069   3.089648   3.786274
    29  H    4.825141   3.465649   3.784400   3.693564   4.328036
                   26         27         28         29
    26  C    0.000000
    27  H    1.093801   0.000000
    28  H    1.096042   1.781027   0.000000
    29  H    1.093886   1.766977   1.780564   0.000000
 Framework group  C1[X(C8H16Cl3FeO)]
 Deg. of freedom    81
                         Standard orientation:                         
 ---------------------------------------------------------------------
 Center     Atomic      Atomic             Coordinates (Angstroms)
 Number     Number       Type             X           Y           Z
 ---------------------------------------------------------------------
      1          8           0       -0.299030   -0.369090   -0.710085
      2          6           0       -1.435265   -1.209582   -0.487261
      3          6           0       -2.604744   -0.233970    0.003150
      4          6           0       -2.035355    1.139767   -0.229473
      5          6           0       -2.026575    1.740977   -1.572299
      6         26           0        1.346019    0.032314    0.003446
      7         17           0        1.630376    2.106592   -0.770372
      8          6           0       -1.581157    1.967450    0.891634
      9         17           0        2.835041   -1.460121   -0.591968
     10         17           0        1.057150    0.105816    2.232653
     11          1           0       -3.444105   -0.352039   -0.694464
     12          1           0       -2.457341    2.188517    1.521635
     13          1           0       -0.898824    1.396297    1.541005
     14          1           0       -1.099862    2.891365    0.571725
     15          1           0       -2.663087    2.640268   -1.541809
     16          1           0       -1.006336    2.098094   -1.776617
     17          1           0       -2.367742    1.072070   -2.360402
     18          6           0       -3.115840   -0.466197    1.428252
     19          1           0       -3.915407    0.240394    1.677009
     20          1           0       -3.533411   -1.472439    1.509366
     21          1           0       -2.324503   -0.371254    2.175216
     22          6           0       -1.088465   -2.299243    0.524787
     23          1           0       -1.920096   -2.994137    0.679550
     24          1           0       -0.241446   -2.864748    0.121792
     25          1           0       -0.780606   -1.882172    1.484823
     26          6           0       -1.807562   -1.846056   -1.828322
     27          1           0       -0.964900   -2.448118   -2.180234
     28          1           0       -2.687241   -2.492276   -1.728958
     29          1           0       -2.013206   -1.085009   -2.586678
 ---------------------------------------------------------------------
 Rotational constants (GHZ):           0.5676203           0.3692899           0.3326437
   427 basis functions,  1056 primitive gaussians,   461 cartesian basis functions
    77 alpha electrons       72 beta electrons
       nuclear repulsion energy      1665.0639519913 Hartrees.
 NAtoms=   29 NActive=   29 NUniq=   29 SFac= 1.00D+00 NAtFMM=   60 NAOKFM=F Big=F
 Initial guess from the checkpoint file:  "checkpoint.chk"
 B after Tr=     0.000000    0.000000    0.000000
         Rot=    1.000000    0.000000    0.000000    0.000000 Ang=   0.00 deg.
 Initial guess <Sx>= 0.0000 <Sy>= 0.0000 <Sz>= 2.5000 <S**2>= 8.7631 S= 2.5022
 SCF Done:  E(UB3LYP) =  -3034.32024688     A.U. after   14 cycles
            NFock= 14  Conv=0.57D-08     -V/T= 2.0024
 <Sx>= 0.0000 <Sy>= 0.0000 <Sz>= 2.5000 <S**2>= 8.7626 S= 2.5021
 <L.S>= 0.000000000000E+00
 Annihilation of the first spin contaminant:
 S**2 before annihilation     8.7626,   after     8.7501
 1\1\GINC-HOLY7C04312\SP\UB3LYP\Jul-CC-pVDZ\C8H16Cl3Fe1O1(6)\EKWAN\11-F
 eb-2020\0\\#t pop=none jul-cc-pvdz guess=read ub3lyp\\theory_abbreviat
 ion b3lyp\\0,6\O,0,-0.29903,-0.36909,-0.710085\C,0,-1.435265,-1.209582
 ,-0.487261\C,0,-2.604744,-0.23397,0.00315\C,0,-2.035355,1.139767,-0.22
 9473\C,0,-2.026575,1.740977,-1.572299\Fe,0,1.346019,0.032314,0.003446\
 Cl,0,1.630376,2.106592,-0.770372\C,0,-1.581157,1.96745,0.891634\Cl,0,2
 .835041,-1.460121,-0.591968\Cl,0,1.05715,0.105816,2.232653\H,0,-3.4441
 05,-0.352039,-0.694464\H,0,-2.457341,2.188517,1.521635\H,0,-0.898824,1
 .396297,1.541005\H,0,-1.099862,2.891365,0.571725\H,0,-2.663087,2.64026
 8,-1.541809\H,0,-1.006336,2.098094,-1.776617\H,0,-2.367742,1.07207,-2.
 360402\C,0,-3.11584,-0.466197,1.428252\H,0,-3.915407,0.240394,1.677009
 \H,0,-3.533411,-1.472439,1.509366\H,0,-2.324503,-0.371254,2.175216\C,0
 ,-1.088465,-2.299243,0.524787\H,0,-1.920096,-2.994137,0.67955\H,0,-0.2
 41446,-2.864748,0.121792\H,0,-0.780606,-1.882172,1.484823\C,0,-1.80756
 2,-1.846056,-1.828322\H,0,-0.9649,-2.448118,-2.180234\H,0,-2.687241,-2
 .492276,-1.728958\H,0,-2.013206,-1.085009,-2.586678\\Version=ES64L-G16
 RevA.03\HF=-3034.3202469\S2=8.762577\S2-1=0.\S2A=8.75005\RMSD=5.664e-0
 9\PG=C01 [X(C8H16Cl3Fe1O1)]\\@


 ONLY THE DAY DAWNS TO WHICH YOU ARE AWAKE.

                                 -- THOREAU
 Job cpu time:       0 days  0 hours 58 minutes 18.6 seconds.
 Elapsed time:       0 days  0 hours 14 minutes 37.6 seconds.
 File lengths (MBytes):  RWF=    174 Int=      0 D2E=      0 Chk=     13 Scr=      1
 Normal termination of Gaussian 16 at Tue Feb 11 14:11:45 2020.
 Initial command:
 /n/sw/g16_nehalem/g16/l1.exe "/scratch/Gau-166863.inp" -scrdir="/scratch/"
 Entering Link 1 = /n/sw/g16_nehalem/g16/l1.exe PID=    170613.
  
 Copyright (c) 1988,1990,1992,1993,1995,1998,2003,2009,2016,
            Gaussian, Inc.  All Rights Reserved.
  
 This is part of the Gaussian(R) 16 program.  It is based on
 the Gaussian(R) 09 system (copyright 2009, Gaussian, Inc.),
 the Gaussian(R) 03 system (copyright 2003, Gaussian, Inc.),
 the Gaussian(R) 98 system (copyright 1998, Gaussian, Inc.),
 the Gaussian(R) 94 system (copyright 1995, Gaussian, Inc.),
 the Gaussian 92(TM) system (copyright 1992, Gaussian, Inc.),
 the Gaussian 90(TM) system (copyright 1990, Gaussian, Inc.),
 the Gaussian 88(TM) system (copyright 1988, Gaussian, Inc.),
 the Gaussian 86(TM) system (copyright 1986, Carnegie Mellon
 University), and the Gaussian 82(TM) system (copyright 1983,
 Carnegie Mellon University). Gaussian is a federally registered
 trademark of Gaussian, Inc.
  
 This software contains proprietary and confidential information,
 including trade secrets, belonging to Gaussian, Inc.
  
 This software is provided under written license and may be
 used, copied, transmitted, or stored only in accord with that
 written license.
  
 The following legend is applicable only to US Government
 contracts under FAR:
  
                    RESTRICTED RIGHTS LEGEND
  
 Use, reproduction and disclosure by the US Government is
 subject to restrictions as set forth in subparagraphs (a)
 and (c) of the Commercial Computer Software - Restricted
 Rights clause in FAR 52.227-19.
  
 Gaussian, Inc.
 340 Quinnipiac St., Bldg. 40, Wallingford CT 06492
  
  
 ---------------------------------------------------------------
 Warning -- This program may not be used in any manner that
 competes with the business of Gaussian, Inc. or will provide
 assistance to any competitor of Gaussian, Inc.  The licensee
 of this program is prohibited from giving any competitor of
 Gaussian, Inc. access to this program.  By using this program,
 the user acknowledges that Gaussian, Inc. is engaged in the
 business of creating and licensing software in the field of
 computational chemistry and represents and warrants to the
 licensee that it is not a competitor of Gaussian, Inc. and that
 it will not use this program in any manner prohibited above.
 ---------------------------------------------------------------
  

 Cite this work as:
 Gaussian 16, Revision A.03,
 M. J. Frisch, G. W. Trucks, H. B. Schlegel, G. E. Scuseria, 
 M. A. Robb, J. R. Cheeseman, G. Scalmani, V. Barone, 
 G. A. Petersson, H. Nakatsuji, X. Li, M. Caricato, A. V. Marenich, 
 J. Bloino, B. G. Janesko, R. Gomperts, B. Mennucci, H. P. Hratchian, 
 J. V. Ortiz, A. F. Izmaylov, J. L. Sonnenberg, D. Williams-Young, 
 F. Ding, F. Lipparini, F. Egidi, J. Goings, B. Peng, A. Petrone, 
 T. Henderson, D. Ranasinghe, V. G. Zakrzewski, J. Gao, N. Rega, 
 G. Zheng, W. Liang, M. Hada, M. Ehara, K. Toyota, R. Fukuda, 
 J. Hasegawa, M. Ishida, T. Nakajima, Y. Honda, O. Kitao, H. Nakai, 
 T. Vreven, K. Throssell, J. A. Montgomery, Jr., J. E. Peralta, 
 F. Ogliaro, M. J. Bearpark, J. J. Heyd, E. N. Brothers, K. N. Kudin, 
 V. N. Staroverov, T. A. Keith, R. Kobayashi, J. Normand, 
 K. Raghavachari, A. P. Rendell, J. C. Burant, S. S. Iyengar, 
 J. Tomasi, M. Cossi, J. M. Millam, M. Klene, C. Adamo, R. Cammi, 
 J. W. Ochterski, R. L. Martin, K. Morokuma, O. Farkas, 
 J. B. Foresman, and D. J. Fox, Gaussian, Inc., Wallingford CT, 2016.
 
 ******************************************
 Gaussian 16:  ES64L-G16RevA.03 25-Dec-2016
                11-Feb-2020 
 ******************************************
 %chk=checkpoint.chk
 %mem=3GB
 %nprocshared=4
 Will use up to    4 processors via shared memory.
 -------------------------------------------------------------------
 #t pop=none jul-cc-pvdz guess=read ub3lyp empiricaldispersion=gd3bj
 -------------------------------------------------------------------
 ------------------------------
 theory_abbreviation b3lyp_d3bj
 ------------------------------
 Symbolic Z-matrix:
 Charge =  0 Multiplicity = 6
 O                    -0.29903  -0.36909  -0.71009 
 C                    -1.43527  -1.20958  -0.48726 
 C                    -2.60474  -0.23397   0.00315 
 C                    -2.03536   1.13977  -0.22947 
 C                    -2.02658   1.74098  -1.5723 
 Fe                    1.34602   0.03231   0.00345 
 Cl                    1.63038   2.10659  -0.77037 
 C                    -1.58116   1.96745   0.89163 
 Cl                    2.83504  -1.46012  -0.59197 
 Cl                    1.05715   0.10582   2.23265 
 H                    -3.44411  -0.35204  -0.69446 
 H                    -2.45734   2.18852   1.52164 
 H                    -0.89882   1.3963    1.54101 
 H                    -1.09986   2.89137   0.57173 
 H                    -2.66309   2.64027  -1.54181 
 H                    -1.00634   2.09809  -1.77662 
 H                    -2.36774   1.07207  -2.3604 
 C                    -3.11584  -0.4662    1.42825 
 H                    -3.91541   0.24039   1.67701 
 H                    -3.53341  -1.47244   1.50937 
 H                    -2.3245   -0.37125   2.17522 
 C                    -1.08847  -2.29924   0.52479 
 H                    -1.9201   -2.99414   0.67955 
 H                    -0.24145  -2.86475   0.12179 
 H                    -0.78061  -1.88217   1.48482 
 C                    -1.80756  -1.84606  -1.82832 
 H                    -0.9649   -2.44812  -2.18023 
 H                    -2.68724  -2.49228  -1.72896 
 H                    -2.01321  -1.08501  -2.58668 
 
                    Distance matrix (angstroms):
                    1          2          3          4          5
     1  O    0.000000
     2  C    1.430772   0.000000
     3  C    2.417287   1.600001   0.000000
     4  C    2.349992   2.438443   1.505148   0.000000
     5  C    2.860106   3.198868   2.591666   1.471296   0.000000
     6  Fe   1.837509   3.085229   3.959727   3.565725   4.095960
     7  Cl   3.139306   4.524966   4.900287   3.829479   3.761655
     8  C    3.109465   3.466435   2.585224   1.465686   2.514091
     9  Cl   3.320648   4.278931   5.607929   5.532773   5.902829
    10  Cl   3.274823   3.916674   4.300652   4.085916   5.163407
    11  H    3.145160   2.194026   1.097785   2.103872   2.675949
    12  H    4.022466   4.077668   2.862860   2.084305   3.155674
    13  H    2.922969   3.345480   2.816546   2.119458   3.329157
    14  H    3.593736   4.248731   3.515063   2.141299   2.603657
    15  H    3.916218   4.176238   3.263671   2.089923   1.102180
    16  H    2.779347   3.575911   3.340808   2.090676   1.100075
    17  H    3.013313   3.095821   2.710773   2.157759   1.088548
    18  C    3.537843   2.654457   1.531687   2.548455   3.880905
    19  H    4.375828   3.596887   2.178225   2.824560   4.046905
    20  H    4.074870   2.908235   2.159841   3.477262   4.700346
    21  H    3.525267   2.929560   2.194368   2.854701   4.312093
    22  C    2.423553   1.527047   2.614682   3.645860   4.647709
    23  H    3.383757   2.186583   2.923146   4.234238   5.244375
    24  H    2.631282   2.129724   3.538396   4.402004   5.222005
    25  H    2.709050   2.184049   2.870436   3.693957   4.901596
    26  C    2.389048   1.530408   2.566829   3.394606   3.602821
    27  H    2.631934   2.149738   3.515495   4.221879   4.364087
    28  H    3.354038   2.180495   2.847271   3.983108   4.287360
    29  H    2.640557   2.181074   2.789515   3.241378   3.002556
                    6          7          8          9         10
     6  Fe   0.000000
     7  Cl   2.232103   0.000000
     8  C    3.619667   3.618780   0.000000
     9  Cl   2.190677   3.768884   5.783781   0.000000
    10  Cl   2.249047   3.653745   3.496381   3.686670   0.000000
    11  H    4.855934   5.639236   3.371396   6.376992   5.388779
    12  H    4.628137   4.687157   1.101576   6.766771   4.146666
    13  H    3.043659   3.499119   1.101579   5.162407   2.443267
    14  H    3.805187   3.141861   1.089773   5.981060   3.894954
    15  H    5.026148   4.394741   2.746798   6.924218   5.874536
    16  H    3.601339   2.822207   2.732590   5.368469   4.929644
    17  H    4.523372   4.425311   3.463547   6.050479   5.810309
    18  C    4.710284   5.829216   2.926747   6.362559   4.288135
    19  H    5.525099   6.342561   3.008032   7.321786   5.005315
    20  H    5.323618   6.683664   4.003214   6.706186   4.907880
    21  H    4.283945   5.518811   2.769419   5.955152   3.415622
    22  C    3.410963   5.336751   4.310683   4.164753   3.647572
    23  H    4.503779   6.381658   4.977671   5.155705   4.570102
    24  H    3.305604   5.386455   5.073226   3.456473   3.868635
    25  H    3.222153   5.177739   3.976474   4.190953   2.808682
    26  C    4.102282   5.344352   4.689589   4.819884   5.339279
    27  H    4.032536   5.428494   5.414184   4.235360   5.484965
    28  H    5.063790   6.380462   5.289620   5.731814   6.038618
    29  H    4.386519   5.173101   4.647884   5.255956   5.837046
                   11         12         13         14         15
    11  H    0.000000
    12  H    3.512723   0.000000
    13  H    3.812146   1.748417   0.000000
    14  H    4.197425   1.799743   1.793083   0.000000
    15  H    3.206538   3.103401   3.763486   2.640786   0.000000
    16  H    3.621729   3.604450   3.392741   2.480471   1.758952
    17  H    2.441719   4.040383   4.181366   3.676238   1.793479
    18  C    2.150980   2.736759   2.897716   4.008869   4.321617
    19  H    2.489375   2.438295   3.233324   4.022014   4.205769
    20  H    2.473891   3.815845   3.895086   5.083711   5.194371
    21  H    3.080412   2.645230   2.357758   3.836093   4.795850
    22  C    3.290474   4.796615   3.837405   5.190833   5.581131
    23  H    3.345325   5.278034   4.589228   5.943361   6.101884
    24  H    4.151747   5.692560   4.539032   5.837136   6.239961
    25  H    3.766275   4.402647   3.281081   4.870557   5.758185
    26  C    2.489175   5.284146   4.763509   5.357632   4.576146
    27  H    3.570367   6.117973   5.350842   6.008458   5.402138
    28  H    2.494722   5.703423   5.386288   6.066012   5.136012
    29  H    2.482980   5.271761   4.943328   5.159579   3.923237
                   16         17         18         19         20
    16  H    0.000000
    17  H    1.801931   0.000000
    18  C    4.614844   4.156900   0.000000
    19  H    4.882753   4.403140   1.095654   0.000000
    20  H    5.471060   4.775816   1.092460   1.762902   0.000000
    21  H    4.842750   4.759925   1.092329   1.775753   1.765623
    22  C    4.963847   4.618075   2.878638   3.971017   2.762383
    23  H    5.727000   5.096640   2.894968   3.929171   2.367899
    24  H    5.368316   5.116733   3.965101   5.055551   3.834178
    25  H    5.150773   5.102186   2.731575   3.790673   2.783239
    26  C    4.025041   3.018670   3.771058   4.591691   3.776017
    27  H    4.564282   3.793699   4.644968   5.550848   4.600255
    28  H    4.888682   3.633918   3.775800   4.536131   3.498973
    29  H    3.435423   2.197700   4.209322   4.853255   4.386194
                   21         22         23         24         25
    21  H    0.000000
    22  C    2.822915   0.000000
    23  H    3.046322   1.094733   0.000000
    24  H    3.843591   1.095282   1.773613   0.000000
    25  H    2.267848   1.091052   1.784200   1.764654   0.000000
    26  C    4.297742   2.501919   2.760467   2.700629   3.468843
    27  H    5.013166   2.711931   3.064131   2.448732   3.713072
    28  H    4.457902   2.769966   2.577069   3.089648   3.786274
    29  H    4.825141   3.465649   3.784400   3.693564   4.328036
                   26         27         28         29
    26  C    0.000000
    27  H    1.093801   0.000000
    28  H    1.096042   1.781027   0.000000
    29  H    1.093886   1.766977   1.780564   0.000000
 Framework group  C1[X(C8H16Cl3FeO)]
 Deg. of freedom    81
                         Standard orientation:                         
 ---------------------------------------------------------------------
 Center     Atomic      Atomic             Coordinates (Angstroms)
 Number     Number       Type             X           Y           Z
 ---------------------------------------------------------------------
      1          8           0       -0.299030   -0.369090   -0.710085
      2          6           0       -1.435265   -1.209582   -0.487261
      3          6           0       -2.604744   -0.233970    0.003150
      4          6           0       -2.035355    1.139767   -0.229473
      5          6           0       -2.026575    1.740977   -1.572299
      6         26           0        1.346019    0.032314    0.003446
      7         17           0        1.630376    2.106592   -0.770372
      8          6           0       -1.581157    1.967450    0.891634
      9         17           0        2.835041   -1.460121   -0.591968
     10         17           0        1.057150    0.105816    2.232653
     11          1           0       -3.444105   -0.352039   -0.694464
     12          1           0       -2.457341    2.188517    1.521635
     13          1           0       -0.898824    1.396297    1.541005
     14          1           0       -1.099862    2.891365    0.571725
     15          1           0       -2.663087    2.640268   -1.541809
     16          1           0       -1.006336    2.098094   -1.776617
     17          1           0       -2.367742    1.072070   -2.360402
     18          6           0       -3.115840   -0.466197    1.428252
     19          1           0       -3.915407    0.240394    1.677009
     20          1           0       -3.533411   -1.472439    1.509366
     21          1           0       -2.324503   -0.371254    2.175216
     22          6           0       -1.088465   -2.299243    0.524787
     23          1           0       -1.920096   -2.994137    0.679550
     24          1           0       -0.241446   -2.864748    0.121792
     25          1           0       -0.780606   -1.882172    1.484823
     26          6           0       -1.807562   -1.846056   -1.828322
     27          1           0       -0.964900   -2.448118   -2.180234
     28          1           0       -2.687241   -2.492276   -1.728958
     29          1           0       -2.013206   -1.085009   -2.586678
 ---------------------------------------------------------------------
 Rotational constants (GHZ):           0.5676203           0.3692899           0.3326437
   427 basis functions,  1056 primitive gaussians,   461 cartesian basis functions
    77 alpha electrons       72 beta electrons
       nuclear repulsion energy      1665.0639519913 Hartrees.
 NAtoms=   29 NActive=   29 NUniq=   29 SFac= 1.00D+00 NAtFMM=   60 NAOKFM=F Big=F
 Nuclear repulsion after empirical dispersion term =     1664.9943316497 Hartrees.
 Initial guess from the checkpoint file:  "checkpoint.chk"
 B after Tr=     0.000000    0.000000    0.000000
         Rot=    1.000000    0.000000    0.000000    0.000000 Ang=   0.00 deg.
 Initial guess <Sx>= 0.0000 <Sy>= 0.0000 <Sz>= 2.5000 <S**2>= 8.7626 S= 2.5021
 SCF Done:  E(UB3LYP) =  -3034.38986723     A.U. after    1 cycles
            NFock=  1  Conv=0.26D-08     -V/T= 2.0025
 <Sx>= 0.0000 <Sy>= 0.0000 <Sz>= 2.5000 <S**2>= 8.7626 S= 2.5021
 <L.S>= 0.000000000000E+00
 Annihilation of the first spin contaminant:
 S**2 before annihilation     8.7626,   after     8.7501
 1\1\GINC-HOLY7C04312\SP\UB3LYP\Jul-CC-pVDZ\C8H16Cl3Fe1O1(6)\EKWAN\11-F
 eb-2020\0\\#t pop=none jul-cc-pvdz guess=read ub3lyp empiricaldispersi
 on=gd3bj\\theory_abbreviation b3lyp_d3bj\\0,6\O,0,-0.29903,-0.36909,-0
 .710085\C,0,-1.435265,-1.209582,-0.487261\C,0,-2.604744,-0.23397,0.003
 15\C,0,-2.035355,1.139767,-0.229473\C,0,-2.026575,1.740977,-1.572299\F
 e,0,1.346019,0.032314,0.003446\Cl,0,1.630376,2.106592,-0.770372\C,0,-1
 .581157,1.96745,0.891634\Cl,0,2.835041,-1.460121,-0.591968\Cl,0,1.0571
 5,0.105816,2.232653\H,0,-3.444105,-0.352039,-0.694464\H,0,-2.457341,2.
 188517,1.521635\H,0,-0.898824,1.396297,1.541005\H,0,-1.099862,2.891365
 ,0.571725\H,0,-2.663087,2.640268,-1.541809\H,0,-1.006336,2.098094,-1.7
 76617\H,0,-2.367742,1.07207,-2.360402\C,0,-3.11584,-0.466197,1.428252\
 H,0,-3.915407,0.240394,1.677009\H,0,-3.533411,-1.472439,1.509366\H,0,-
 2.324503,-0.371254,2.175216\C,0,-1.088465,-2.299243,0.524787\H,0,-1.92
 0096,-2.994137,0.67955\H,0,-0.241446,-2.864748,0.121792\H,0,-0.780606,
 -1.882172,1.484823\C,0,-1.807562,-1.846056,-1.828322\H,0,-0.9649,-2.44
 8118,-2.180234\H,0,-2.687241,-2.492276,-1.728958\H,0,-2.013206,-1.0850
 09,-2.586678\\Version=ES64L-G16RevA.03\HF=-3034.3898672\S2=8.762577\S2
 -1=0.\S2A=8.75005\RMSD=2.592e-09\PG=C01 [X(C8H16Cl3Fe1O1)]\\@


 CLIMB THE MOUNTAINS AND GET THEIR GOOD TIDINGS.
 NATURE'S PEACE WILL FLOW INTO YOU AS SUNSHINE FLOWS INTO TREES.
 THE WINDS WILL BLOW THEIR OWN FRESHNESS INTO YOU, 
 AND CARES WILL DROP OFF LIKE AUTUMN LEAVES.

                                         -- JOHN MUIR
 Job cpu time:       0 days  0 hours  4 minutes 35.8 seconds.
 Elapsed time:       0 days  0 hours  1 minutes  9.6 seconds.
 File lengths (MBytes):  RWF=    170 Int=      0 D2E=      0 Chk=     13 Scr=      1
 Normal termination of Gaussian 16 at Tue Feb 11 14:12:55 2020.
 Initial command:
 /n/sw/g16_nehalem/g16/l1.exe "/scratch/Gau-166863.inp" -scrdir="/scratch/"
 Entering Link 1 = /n/sw/g16_nehalem/g16/l1.exe PID=    170726.
  
 Copyright (c) 1988,1990,1992,1993,1995,1998,2003,2009,2016,
            Gaussian, Inc.  All Rights Reserved.
  
 This is part of the Gaussian(R) 16 program.  It is based on
 the Gaussian(R) 09 system (copyright 2009, Gaussian, Inc.),
 the Gaussian(R) 03 system (copyright 2003, Gaussian, Inc.),
 the Gaussian(R) 98 system (copyright 1998, Gaussian, Inc.),
 the Gaussian(R) 94 system (copyright 1995, Gaussian, Inc.),
 the Gaussian 92(TM) system (copyright 1992, Gaussian, Inc.),
 the Gaussian 90(TM) system (copyright 1990, Gaussian, Inc.),
 the Gaussian 88(TM) system (copyright 1988, Gaussian, Inc.),
 the Gaussian 86(TM) system (copyright 1986, Carnegie Mellon
 University), and the Gaussian 82(TM) system (copyright 1983,
 Carnegie Mellon University). Gaussian is a federally registered
 trademark of Gaussian, Inc.
  
 This software contains proprietary and confidential information,
 including trade secrets, belonging to Gaussian, Inc.
  
 This software is provided under written license and may be
 used, copied, transmitted, or stored only in accord with that
 written license.
  
 The following legend is applicable only to US Government
 contracts under FAR:
  
                    RESTRICTED RIGHTS LEGEND
  
 Use, reproduction and disclosure by the US Government is
 subject to restrictions as set forth in subparagraphs (a)
 and (c) of the Commercial Computer Software - Restricted
 Rights clause in FAR 52.227-19.
  
 Gaussian, Inc.
 340 Quinnipiac St., Bldg. 40, Wallingford CT 06492
  
  
 ---------------------------------------------------------------
 Warning -- This program may not be used in any manner that
 competes with the business of Gaussian, Inc. or will provide
 assistance to any competitor of Gaussian, Inc.  The licensee
 of this program is prohibited from giving any competitor of
 Gaussian, Inc. access to this program.  By using this program,
 the user acknowledges that Gaussian, Inc. is engaged in the
 business of creating and licensing software in the field of
 computational chemistry and represents and warrants to the
 licensee that it is not a competitor of Gaussian, Inc. and that
 it will not use this program in any manner prohibited above.
 ---------------------------------------------------------------
  

 Cite this work as:
 Gaussian 16, Revision A.03,
 M. J. Frisch, G. W. Trucks, H. B. Schlegel, G. E. Scuseria, 
 M. A. Robb, J. R. Cheeseman, G. Scalmani, V. Barone, 
 G. A. Petersson, H. Nakatsuji, X. Li, M. Caricato, A. V. Marenich, 
 J. Bloino, B. G. Janesko, R. Gomperts, B. Mennucci, H. P. Hratchian, 
 J. V. Ortiz, A. F. Izmaylov, J. L. Sonnenberg, D. Williams-Young, 
 F. Ding, F. Lipparini, F. Egidi, J. Goings, B. Peng, A. Petrone, 
 T. Henderson, D. Ranasinghe, V. G. Zakrzewski, J. Gao, N. Rega, 
 G. Zheng, W. Liang, M. Hada, M. Ehara, K. Toyota, R. Fukuda, 
 J. Hasegawa, M. Ishida, T. Nakajima, Y. Honda, O. Kitao, H. Nakai, 
 T. Vreven, K. Throssell, J. A. Montgomery, Jr., J. E. Peralta, 
 F. Ogliaro, M. J. Bearpark, J. J. Heyd, E. N. Brothers, K. N. Kudin, 
 V. N. Staroverov, T. A. Keith, R. Kobayashi, J. Normand, 
 K. Raghavachari, A. P. Rendell, J. C. Burant, S. S. Iyengar, 
 J. Tomasi, M. Cossi, J. M. Millam, M. Klene, C. Adamo, R. Cammi, 
 J. W. Ochterski, R. L. Martin, K. Morokuma, O. Farkas, 
 J. B. Foresman, and D. J. Fox, Gaussian, Inc., Wallingford CT, 2016.
 
 ******************************************
 Gaussian 16:  ES64L-G16RevA.03 25-Dec-2016
                11-Feb-2020 
 ******************************************
 %chk=checkpoint.chk
 %mem=3GB
 %nprocshared=4
 Will use up to    4 processors via shared memory.
 ----------------------------------------
 #t pop=none jul-cc-pvdz guess=read ub97d
 ----------------------------------------
 ------------------------
 theory_abbreviation b97d
 ------------------------
 Symbolic Z-matrix:
 Charge =  0 Multiplicity = 6
 O                    -0.29903  -0.36909  -0.71009 
 C                    -1.43527  -1.20958  -0.48726 
 C                    -2.60474  -0.23397   0.00315 
 C                    -2.03536   1.13977  -0.22947 
 C                    -2.02658   1.74098  -1.5723 
 Fe                    1.34602   0.03231   0.00345 
 Cl                    1.63038   2.10659  -0.77037 
 C                    -1.58116   1.96745   0.89163 
 Cl                    2.83504  -1.46012  -0.59197 
 Cl                    1.05715   0.10582   2.23265 
 H                    -3.44411  -0.35204  -0.69446 
 H                    -2.45734   2.18852   1.52164 
 H                    -0.89882   1.3963    1.54101 
 H                    -1.09986   2.89137   0.57173 
 H                    -2.66309   2.64027  -1.54181 
 H                    -1.00634   2.09809  -1.77662 
 H                    -2.36774   1.07207  -2.3604 
 C                    -3.11584  -0.4662    1.42825 
 H                    -3.91541   0.24039   1.67701 
 H                    -3.53341  -1.47244   1.50937 
 H                    -2.3245   -0.37125   2.17522 
 C                    -1.08847  -2.29924   0.52479 
 H                    -1.9201   -2.99414   0.67955 
 H                    -0.24145  -2.86475   0.12179 
 H                    -0.78061  -1.88217   1.48482 
 C                    -1.80756  -1.84606  -1.82832 
 H                    -0.9649   -2.44812  -2.18023 
 H                    -2.68724  -2.49228  -1.72896 
 H                    -2.01321  -1.08501  -2.58668 
 
                    Distance matrix (angstroms):
                    1          2          3          4          5
     1  O    0.000000
     2  C    1.430772   0.000000
     3  C    2.417287   1.600001   0.000000
     4  C    2.349992   2.438443   1.505148   0.000000
     5  C    2.860106   3.198868   2.591666   1.471296   0.000000
     6  Fe   1.837509   3.085229   3.959727   3.565725   4.095960
     7  Cl   3.139306   4.524966   4.900287   3.829479   3.761655
     8  C    3.109465   3.466435   2.585224   1.465686   2.514091
     9  Cl   3.320648   4.278931   5.607929   5.532773   5.902829
    10  Cl   3.274823   3.916674   4.300652   4.085916   5.163407
    11  H    3.145160   2.194026   1.097785   2.103872   2.675949
    12  H    4.022466   4.077668   2.862860   2.084305   3.155674
    13  H    2.922969   3.345480   2.816546   2.119458   3.329157
    14  H    3.593736   4.248731   3.515063   2.141299   2.603657
    15  H    3.916218   4.176238   3.263671   2.089923   1.102180
    16  H    2.779347   3.575911   3.340808   2.090676   1.100075
    17  H    3.013313   3.095821   2.710773   2.157759   1.088548
    18  C    3.537843   2.654457   1.531687   2.548455   3.880905
    19  H    4.375828   3.596887   2.178225   2.824560   4.046905
    20  H    4.074870   2.908235   2.159841   3.477262   4.700346
    21  H    3.525267   2.929560   2.194368   2.854701   4.312093
    22  C    2.423553   1.527047   2.614682   3.645860   4.647709
    23  H    3.383757   2.186583   2.923146   4.234238   5.244375
    24  H    2.631282   2.129724   3.538396   4.402004   5.222005
    25  H    2.709050   2.184049   2.870436   3.693957   4.901596
    26  C    2.389048   1.530408   2.566829   3.394606   3.602821
    27  H    2.631934   2.149738   3.515495   4.221879   4.364087
    28  H    3.354038   2.180495   2.847271   3.983108   4.287360
    29  H    2.640557   2.181074   2.789515   3.241378   3.002556
                    6          7          8          9         10
     6  Fe   0.000000
     7  Cl   2.232103   0.000000
     8  C    3.619667   3.618780   0.000000
     9  Cl   2.190677   3.768884   5.783781   0.000000
    10  Cl   2.249047   3.653745   3.496381   3.686670   0.000000
    11  H    4.855934   5.639236   3.371396   6.376992   5.388779
    12  H    4.628137   4.687157   1.101576   6.766771   4.146666
    13  H    3.043659   3.499119   1.101579   5.162407   2.443267
    14  H    3.805187   3.141861   1.089773   5.981060   3.894954
    15  H    5.026148   4.394741   2.746798   6.924218   5.874536
    16  H    3.601339   2.822207   2.732590   5.368469   4.929644
    17  H    4.523372   4.425311   3.463547   6.050479   5.810309
    18  C    4.710284   5.829216   2.926747   6.362559   4.288135
    19  H    5.525099   6.342561   3.008032   7.321786   5.005315
    20  H    5.323618   6.683664   4.003214   6.706186   4.907880
    21  H    4.283945   5.518811   2.769419   5.955152   3.415622
    22  C    3.410963   5.336751   4.310683   4.164753   3.647572
    23  H    4.503779   6.381658   4.977671   5.155705   4.570102
    24  H    3.305604   5.386455   5.073226   3.456473   3.868635
    25  H    3.222153   5.177739   3.976474   4.190953   2.808682
    26  C    4.102282   5.344352   4.689589   4.819884   5.339279
    27  H    4.032536   5.428494   5.414184   4.235360   5.484965
    28  H    5.063790   6.380462   5.289620   5.731814   6.038618
    29  H    4.386519   5.173101   4.647884   5.255956   5.837046
                   11         12         13         14         15
    11  H    0.000000
    12  H    3.512723   0.000000
    13  H    3.812146   1.748417   0.000000
    14  H    4.197425   1.799743   1.793083   0.000000
    15  H    3.206538   3.103401   3.763486   2.640786   0.000000
    16  H    3.621729   3.604450   3.392741   2.480471   1.758952
    17  H    2.441719   4.040383   4.181366   3.676238   1.793479
    18  C    2.150980   2.736759   2.897716   4.008869   4.321617
    19  H    2.489375   2.438295   3.233324   4.022014   4.205769
    20  H    2.473891   3.815845   3.895086   5.083711   5.194371
    21  H    3.080412   2.645230   2.357758   3.836093   4.795850
    22  C    3.290474   4.796615   3.837405   5.190833   5.581131
    23  H    3.345325   5.278034   4.589228   5.943361   6.101884
    24  H    4.151747   5.692560   4.539032   5.837136   6.239961
    25  H    3.766275   4.402647   3.281081   4.870557   5.758185
    26  C    2.489175   5.284146   4.763509   5.357632   4.576146
    27  H    3.570367   6.117973   5.350842   6.008458   5.402138
    28  H    2.494722   5.703423   5.386288   6.066012   5.136012
    29  H    2.482980   5.271761   4.943328   5.159579   3.923237
                   16         17         18         19         20
    16  H    0.000000
    17  H    1.801931   0.000000
    18  C    4.614844   4.156900   0.000000
    19  H    4.882753   4.403140   1.095654   0.000000
    20  H    5.471060   4.775816   1.092460   1.762902   0.000000
    21  H    4.842750   4.759925   1.092329   1.775753   1.765623
    22  C    4.963847   4.618075   2.878638   3.971017   2.762383
    23  H    5.727000   5.096640   2.894968   3.929171   2.367899
    24  H    5.368316   5.116733   3.965101   5.055551   3.834178
    25  H    5.150773   5.102186   2.731575   3.790673   2.783239
[...]
 Rotational constants (GHZ):           0.5676203           0.3692899           0.3326437
   427 basis functions,  1056 primitive gaussians,   461 cartesian basis functions
    77 alpha electrons       72 beta electrons
       nuclear repulsion energy      1665.0639519913 Hartrees.
 NAtoms=   29 NActive=   29 NUniq=   29 SFac= 1.00D+00 NAtFMM=   60 NAOKFM=F Big=F
 Nuclear repulsion after empirical dispersion term =     1665.0615398615 Hartrees.
 Initial guess from the checkpoint file:  "checkpoint.chk"
 B after Tr=     0.000000    0.000000    0.000000
         Rot=    1.000000    0.000000    0.000000    0.000000 Ang=   0.00 deg.
 Initial guess <Sx>= 0.0000 <Sy>= 0.0000 <Sz>= 2.5000 <S**2>= 8.7622 S= 2.5020
 SCF Done:  E(UM06L) =  -3034.18630259     A.U. after   18 cycles
            NFock= 18  Conv=0.35D-08     -V/T= 2.0021
 <Sx>= 0.0000 <Sy>= 0.0000 <Sz>= 2.5000 <S**2>= 8.7629 S= 2.5022
 <L.S>= 0.000000000000E+00
 Annihilation of the first spin contaminant:
 S**2 before annihilation     8.7629,   after     8.7501
 1\1\GINC-HOLY7C04312\SP\UM06L\Jul-CC-pVDZ\C8H16Cl3Fe1O1(6)\EKWAN\11-Fe
 b-2020\0\\#t pop=none jul-cc-pvdz guess=read um06l empiricaldispersion
 =gd3\\theory_abbreviation m06l_d3\\0,6\O,0,-0.29903,-0.36909,-0.710085
 \C,0,-1.435265,-1.209582,-0.487261\C,0,-2.604744,-0.23397,0.00315\C,0,
 -2.035355,1.139767,-0.229473\C,0,-2.026575,1.740977,-1.572299\Fe,0,1.3
 46019,0.032314,0.003446\Cl,0,1.630376,2.106592,-0.770372\C,0,-1.581157
 ,1.96745,0.891634\Cl,0,2.835041,-1.460121,-0.591968\Cl,0,1.05715,0.105
 816,2.232653\H,0,-3.444105,-0.352039,-0.694464\H,0,-2.457341,2.188517,
 1.521635\H,0,-0.898824,1.396297,1.541005\H,0,-1.099862,2.891365,0.5717
 25\H,0,-2.663087,2.640268,-1.541809\H,0,-1.006336,2.098094,-1.776617\H
 ,0,-2.367742,1.07207,-2.360402\C,0,-3.11584,-0.466197,1.428252\H,0,-3.
 915407,0.240394,1.677009\H,0,-3.533411,-1.472439,1.509366\H,0,-2.32450
 3,-0.371254,2.175216\C,0,-1.088465,-2.299243,0.524787\H,0,-1.920096,-2
 .994137,0.67955\H,0,-0.241446,-2.864748,0.121792\H,0,-0.780606,-1.8821
 72,1.484823\C,0,-1.807562,-1.846056,-1.828322\H,0,-0.9649,-2.448118,-2
 .180234\H,0,-2.687241,-2.492276,-1.728958\H,0,-2.013206,-1.085009,-2.5
 86678\\Version=ES64L-G16RevA.03\HF=-3034.1863026\S2=8.762916\S2-1=0.\S
 2A=8.750054\RMSD=3.532e-09\PG=C01 [X(C8H16Cl3Fe1O1)]\\@


 IF MATHEMATICALLY YOU END UP WITH THE INCORRECT ANSWER,
 TRY MULTIPLYING BY THE PAGE NUMBER.
 Job cpu time:       0 days  1 hours 18 minutes 58.6 seconds.
 Elapsed time:       0 days  0 hours 19 minutes 47.9 seconds.
 File lengths (MBytes):  RWF=    174 Int=      0 D2E=      0 Chk=     13 Scr=      1
 Normal termination of Gaussian 16 at Tue Feb 11 22:51:18 2020.
 Initial command:
 /n/sw/g16_nehalem/g16/l1.exe "/scratch/Gau-166863.inp" -scrdir="/scratch/"
 Entering Link 1 = /n/sw/g16_nehalem/g16/l1.exe PID=    221898.
  
 Copyright (c) 1988,1990,1992,1993,1995,1998,2003,2009,2016,
            Gaussian, Inc.  All Rights Reserved.
  
 This is part of the Gaussian(R) 16 program.  It is based on
 the Gaussian(R) 09 system (copyright 2009, Gaussian, Inc.),
 the Gaussian(R) 03 system (copyright 2003, Gaussian, Inc.),
 the Gaussian(R) 98 system (copyright 1998, Gaussian, Inc.),
 the Gaussian(R) 94 system (copyright 1995, Gaussian, Inc.),
 the Gaussian 92(TM) system (copyright 1992, Gaussian, Inc.),
 the Gaussian 90(TM) system (copyright 1990, Gaussian, Inc.),
 the Gaussian 88(TM) system (copyright 1988, Gaussian, Inc.),
 the Gaussian 86(TM) system (copyright 1986, Carnegie Mellon
 University), and the Gaussian 82(TM) system (copyright 1983,
 Carnegie Mellon University). Gaussian is a federally registered
 trademark of Gaussian, Inc.
  
 This software contains proprietary and confidential information,
 including trade secrets, belonging to Gaussian, Inc.
  
 This software is provided under written license and may be
 used, copied, transmitted, or stored only in accord with that
 written license.
  
 The following legend is applicable only to US Government
 contracts under FAR:
  
                    RESTRICTED RIGHTS LEGEND
  
 Use, reproduction and disclosure by the US Government is
 subject to restrictions as set forth in subparagraphs (a)
 and (c) of the Commercial Computer Software - Restricted
 Rights clause in FAR 52.227-19.
  
 Gaussian, Inc.
 340 Quinnipiac St., Bldg. 40, Wallingford CT 06492
  
  
 ---------------------------------------------------------------
 Warning -- This program may not be used in any manner that
 competes with the business of Gaussian, Inc. or will provide
 assistance to any competitor of Gaussian, Inc.  The licensee
 of this program is prohibited from giving any competitor of
 Gaussian, Inc. access to this program.  By using this program,
 the user acknowledges that Gaussian, Inc. is engaged in the
 business of creating and licensing software in the field of
 computational chemistry and represents and warrants to the
 licensee that it is not a competitor of Gaussian, Inc. and that
 it will not use this program in any manner prohibited above.
 ---------------------------------------------------------------
  

 Cite this work as:
 Gaussian 16, Revision A.03,
 M. J. Frisch, G. W. Trucks, H. B. Schlegel, G. E. Scuseria, 
 M. A. Robb, J. R. Cheeseman, G. Scalmani, V. Barone, 
 G. A. Petersson, H. Nakatsuji, X. Li, M. Caricato, A. V. Marenich, 
 J. Bloino, B. G. Janesko, R. Gomperts, B. Mennucci, H. P. Hratchian, 
 J. V. Ortiz, A. F. Izmaylov, J. L. Sonnenberg, D. Williams-Young, 
 F. Ding, F. Lipparini, F. Egidi, J. Goings, B. Peng, A. Petrone, 
 T. Henderson, D. Ranasinghe, V. G. Zakrzewski, J. Gao, N. Rega, 
 G. Zheng, W. Liang, M. Hada, M. Ehara, K. Toyota, R. Fukuda, 
 J. Hasegawa, M. Ishida, T. Nakajima, Y. Honda, O. Kitao, H. Nakai, 
 T. Vreven, K. Throssell, J. A. Montgomery, Jr., J. E. Peralta, 
 F. Ogliaro, M. J. Bearpark, J. J. Heyd, E. N. Brothers, K. N. Kudin, 
 V. N. Staroverov, T. A. Keith, R. Kobayashi, J. Normand, 
 K. Raghavachari, A. P. Rendell, J. C. Burant, S. S. Iyengar, 
 J. Tomasi, M. Cossi, J. M. Millam, M. Klene, C. Adamo, R. Cammi, 
 J. W. Ochterski, R. L. Martin, K. Morokuma, O. Farkas, 
 J. B. Foresman, and D. J. Fox, Gaussian, Inc., Wallingford CT, 2016.
 
 ******************************************
 Gaussian 16:  ES64L-G16RevA.03 25-Dec-2016
                11-Feb-2020 
 ******************************************
 %chk=checkpoint.chk
 %mem=3GB
 %nprocshared=4
 Will use up to    4 processors via shared memory.
 -------------------------------------------------------------------
 #t pop=none jul-cc-pvdz guess=read ub97d3 empiricaldispersion=gd3bj
 -------------------------------------------------------------------
 ------------------------------
 theory_abbreviation b97d3_d3bj
 ------------------------------
 Symbolic Z-matrix:
 Charge =  0 Multiplicity = 6
 O                    -0.29903  -0.36909  -0.71009 
 C                    -1.43527  -1.20958  -0.48726 
 C                    -2.60474  -0.23397   0.00315 
 C                    -2.03536   1.13977  -0.22947 
 C                    -2.02658   1.74098  -1.5723 
 Fe                    1.34602   0.03231   0.00345 
 Cl                    1.63038   2.10659  -0.77037 
 C                    -1.58116   1.96745   0.89163 
 Cl                    2.83504  -1.46012  -0.59197 
 Cl                    1.05715   0.10582   2.23265 
 H                    -3.44411  -0.35204  -0.69446 
 H                    -2.45734   2.18852   1.52164 
 H                    -0.89882   1.3963    1.54101 
 H                    -1.09986   2.89137   0.57173 
 H                    -2.66309   2.64027  -1.54181 
 H                    -1.00634   2.09809  -1.77662 
 H                    -2.36774   1.07207  -2.3604 
 C                    -3.11584  -0.4662    1.42825 
 H                    -3.91541   0.24039   1.67701 
 H                    -3.53341  -1.47244   1.50937 
 H                    -2.3245   -0.37125   2.17522 
 C                    -1.08847  -2.29924   0.52479 
 H                    -1.9201   -2.99414   0.67955 
 H                    -0.24145  -2.86475   0.12179 
 H                    -0.78061  -1.88217   1.48482 
 C                    -1.80756  -1.84606  -1.82832 
 H                    -0.9649   -2.44812  -2.18023 
 H                    -2.68724  -2.49228  -1.72896 
 H                    -2.01321  -1.08501  -2.58668 
 
                    Distance matrix (angstroms):
                    1          2          3          4          5
     1  O    0.000000
     2  C    1.430772   0.000000
     3  C    2.417287   1.600001   0.000000
     4  C    2.349992   2.438443   1.505148   0.000000
     5  C    2.860106   3.198868   2.591666   1.471296   0.000000
     6  Fe   1.837509   3.085229   3.959727   3.565725   4.095960
     7  Cl   3.139306   4.524966   4.900287   3.829479   3.761655
     8  C    3.109465   3.466435   2.585224   1.465686   2.514091
     9  Cl   3.320648   4.278931   5.607929   5.532773   5.902829
    10  Cl   3.274823   3.916674   4.300652   4.085916   5.163407
    11  H    3.145160   2.194026   1.097785   2.103872   2.675949
    12  H    4.022466   4.077668   2.862860   2.084305   3.155674
    13  H    2.922969   3.345480   2.816546   2.119458   3.329157
    14  H    3.593736   4.248731   3.515063   2.141299   2.603657
    15  H    3.916218   4.176238   3.263671   2.089923   1.102180
    16  H    2.779347   3.575911   3.340808   2.090676   1.100075
    17  H    3.013313   3.095821   2.710773   2.157759   1.088548
    18  C    3.537843   2.654457   1.531687   2.548455   3.880905
    19  H    4.375828   3.596887   2.178225   2.824560   4.046905
    20  H    4.074870   2.908235   2.159841   3.477262   4.700346
    21  H    3.525267   2.929560   2.194368   2.854701   4.312093
    22  C    2.423553   1.527047   2.614682   3.645860   4.647709
    23  H    3.383757   2.186583   2.923146   4.234238   5.244375
    24  H    2.631282   2.129724   3.538396   4.402004   5.222005
    25  H    2.709050   2.184049   2.870436   3.693957   4.901596
    26  C    2.389048   1.530408   2.566829   3.394606   3.602821
    27  H    2.631934   2.149738   3.515495   4.221879   4.364087
    28  H    3.354038   2.180495   2.847271   3.983108   4.287360
    29  H    2.640557   2.181074   2.789515   3.241378   3.002556
                    6          7          8          9         10
     6  Fe   0.000000
     7  Cl   2.232103   0.000000
     8  C    3.619667   3.618780   0.000000
     9  Cl   2.190677   3.768884   5.783781   0.000000
    10  Cl   2.249047   3.653745   3.496381   3.686670   0.000000
    11  H    4.855934   5.639236   3.371396   6.376992   5.388779
    12  H    4.628137   4.687157   1.101576   6.766771   4.146666
    13  H    3.043659   3.499119   1.101579   5.162407   2.443267
    14  H    3.805187   3.141861   1.089773   5.981060   3.894954
    15  H    5.026148   4.394741   2.746798   6.924218   5.874536
    16  H    3.601339   2.822207   2.732590   5.368469   4.929644
    17  H    4.523372   4.425311   3.463547   6.050479   5.810309
    18  C    4.710284   5.829216   2.926747   6.362559   4.288135
    19  H    5.525099   6.342561   3.008032   7.321786   5.005315
    20  H    5.323618   6.683664   4.003214   6.706186   4.907880
    21  H    4.283945   5.518811   2.769419   5.955152   3.415622
    22  C    3.410963   5.336751   4.310683   4.164753   3.647572
    23  H    4.503779   6.381658   4.977671   5.155705   4.570102
    24  H    3.305604   5.386455   5.073226   3.456473   3.868635
    25  H    3.222153   5.177739   3.976474   4.190953   2.808682
    26  C    4.102282   5.344352   4.689589   4.819884   5.339279
    27  H    4.032536   5.428494   5.414184   4.235360   5.484965
    28  H    5.063790   6.380462   5.289620   5.731814   6.038618
    29  H    4.386519   5.173101   4.647884   5.255956   5.837046
                   11         12         13         14         15
    11  H    0.000000
    12  H    3.512723   0.000000
    13  H    3.812146   1.748417   0.000000
    14  H    4.197425   1.799743   1.793083   0.000000
    15  H    3.206538   3.103401   3.763486   2.640786   0.000000
    16  H    3.621729   3.604450   3.392741   2.480471   1.758952
    17  H    2.441719   4.040383   4.181366   3.676238   1.793479
    18  C    2.150980   2.736759   2.897716   4.008869   4.321617
    19  H    2.489375   2.438295   3.233324   4.022014   4.205769
    20  H    2.473891   3.815845   3.895086   5.083711   5.194371
    21  H    3.080412   2.645230   2.357758   3.836093   4.795850
    22  C    3.290474   4.796615   3.837405   5.190833   5.581131
    23  H    3.345325   5.278034   4.589228   5.943361   6.101884
    24  H    4.151747   5.692560   4.539032   5.837136   6.239961
    25  H    3.766275   4.402647   3.281081   4.870557   5.758185
    26  C    2.489175   5.284146   4.763509   5.357632   4.576146
    27  H    3.570367   6.117973   5.350842   6.008458   5.402138
    28  H    2.494722   5.703423   5.386288   6.066012   5.136012
    29  H    2.482980   5.271761   4.943328   5.159579   3.923237
                   16         17         18         19         20
    16  H    0.000000
    17  H    1.801931   0.000000
    18  C    4.614844   4.156900   0.000000
    19  H    4.882753   4.403140   1.095654   0.000000
    20  H    5.471060   4.775816   1.092460   1.762902   0.000000
    21  H    4.842750   4.759925   1.092329   1.775753   1.765623
    22  C    4.963847   4.618075   2.878638   3.971017   2.762383
    23  H    5.727000   5.096640   2.894968   3.929171   2.367899
    24  H    5.368316   5.116733   3.965101   5.055551   3.834178
    25  H    5.150773   5.102186   2.731575   3.790673   2.783239
    26  C    4.025041   3.018670   3.771058   4.591691   3.776017
    27  H    4.564282   3.793699   4.644968   5.550848   4.600255
    28  H    4.888682   3.633918   3.775800   4.536131   3.498973
    29  H    3.435423   2.197700   4.209322   4.853255   4.386194
                   21         22         23         24         25
    21  H    0.000000
    22  C    2.822915   0.000000
    23  H    3.046322   1.094733   0.000000
    24  H    3.843591   1.095282   1.773613   0.000000
    25  H    2.267848   1.091052   1.784200   1.764654   0.000000
    26  C    4.297742   2.501919   2.760467   2.700629   3.468843
    27  H    5.013166   2.711931   3.064131   2.448732   3.713072
    28  H    4.457902   2.769966   2.577069   3.089648   3.786274
    29  H    4.825141   3.465649   3.784400   3.693564   4.328036
                   26         27         28         29
    26  C    0.000000
    27  H    1.093801   0.000000
    28  H    1.096042   1.781027   0.000000
    29  H    1.093886   1.766977   1.780564   0.000000
 Framework group  C1[X(C8H16Cl3FeO)]
 Deg. of freedom    81
                         Standard orientation:                         
 ---------------------------------------------------------------------
 Center     Atomic      Atomic             Coordinates (Angstroms)
 Number     Number       Type             X           Y           Z
 ---------------------------------------------------------------------
      1          8           0       -0.299030   -0.369090   -0.710085
      2          6           0       -1.435265   -1.209582   -0.487261
      3          6           0       -2.604744   -0.233970    0.003150
      4          6           0       -2.035355    1.139767   -0.229473
      5          6           0       -2.026575    1.740977   -1.572299
      6         26           0        1.346019    0.032314    0.003446
      7         17           0        1.630376    2.106592   -0.770372
      8          6           0       -1.581157    1.967450    0.891634
      9         17           0        2.835041   -1.460121   -0.591968
     10         17           0        1.057150    0.105816    2.232653
     11          1           0       -3.444105   -0.352039   -0.694464
     12          1           0       -2.457341    2.188517    1.521635
     13          1           0       -0.898824    1.396297    1.541005
     14          1           0       -1.099862    2.891365    0.571725
     15          1           0       -2.663087    2.640268   -1.541809
     16          1           0       -1.006336    2.098094   -1.776617
     17          1           0       -2.367742    1.072070   -2.360402
     18          6           0       -3.115840   -0.466197    1.428252
     19          1           0       -3.915407    0.240394    1.677009
     20          1           0       -3.533411   -1.472439    1.509366
     21          1           0       -2.324503   -0.371254    2.175216
     22          6           0       -1.088465   -2.299243    0.524787
     23          1           0       -1.920096   -2.994137    0.679550
     24          1           0       -0.241446   -2.864748    0.121792
     25          1           0       -0.780606   -1.882172    1.484823
     26          6           0       -1.807562   -1.846056   -1.828322
     27          1           0       -0.964900   -2.448118   -2.180234
     28          1           0       -2.687241   -2.492276   -1.728958
     29          1           0       -2.013206   -1.085009   -2.586678
 ---------------------------------------------------------------------
 Rotational constants (GHZ):           0.5676203           0.3692899           0.3326437
   427 basis functions,  1056 primitive gaussians,   461 cartesian basis functions
    77 alpha electrons       72 beta electrons
       nuclear repulsion energy      1665.0639519913 Hartrees.
 NAtoms=   29 NActive=   29 NUniq=   29 SFac= 1.00D+00 NAtFMM=   60 NAOKFM=F Big=F
 Nuclear repulsion after empirical dispersion term =     1664.9617958915 Hartrees.
 Initial guess from the checkpoint file:  "checkpoint.chk"
 B after Tr=     0.000000    0.000000    0.000000
         Rot=    1.000000    0.000000    0.000000    0.000000 Ang=   0.00 deg.
 Initial guess <Sx>= 0.0000 <Sy>= 0.0000 <Sz>= 2.5000 <S**2>= 8.7629 S= 2.5022
 EnCoef did     2 forward-backward iterations
 SCF Done:  E(UB97D3) =  -3034.60630878     A.U. after   15 cycles
            NFock= 15  Conv=0.73D-08     -V/T= 2.0020
 <Sx>= 0.0000 <Sy>= 0.0000 <Sz>= 2.5000 <S**2>= 8.7619 S= 2.5020
 <L.S>= 0.000000000000E+00
 Annihilation of the first spin contaminant:
 S**2 before annihilation     8.7619,   after     8.7500
 1\1\GINC-HOLY7C04312\SP\UB97D3\Jul-CC-pVDZ\C8H16Cl3Fe1O1(6)\EKWAN\11-F
 eb-2020\0\\#t pop=none jul-cc-pvdz guess=read ub97d3 empiricaldispersi
 on=gd3bj\\theory_abbreviation b97d3_d3bj\\0,6\O,0,-0.29903,-0.36909,-0
 .710085\C,0,-1.435265,-1.209582,-0.487261\C,0,-2.604744,-0.23397,0.003
 15\C,0,-2.035355,1.139767,-0.229473\C,0,-2.026575,1.740977,-1.572299\F
 e,0,1.346019,0.032314,0.003446\Cl,0,1.630376,2.106592,-0.770372\C,0,-1
 .581157,1.96745,0.891634\Cl,0,2.835041,-1.460121,-0.591968\Cl,0,1.0571
 5,0.105816,2.232653\H,0,-3.444105,-0.352039,-0.694464\H,0,-2.457341,2.
 188517,1.521635\H,0,-0.898824,1.396297,1.541005\H,0,-1.099862,2.891365
 ,0.571725\H,0,-2.663087,2.640268,-1.541809\H,0,-1.006336,2.098094,-1.7
 76617\H,0,-2.367742,1.07207,-2.360402\C,0,-3.11584,-0.466197,1.428252\
 H,0,-3.915407,0.240394,1.677009\H,0,-3.533411,-1.472439,1.509366\H,0,-
 2.324503,-0.371254,2.175216\C,0,-1.088465,-2.299243,0.524787\H,0,-1.92
 0096,-2.994137,0.67955\H,0,-0.241446,-2.864748,0.121792\H,0,-0.780606,
 -1.882172,1.484823\C,0,-1.807562,-1.846056,-1.828322\H,0,-0.9649,-2.44
 8118,-2.180234\H,0,-2.687241,-2.492276,-1.728958\H,0,-2.013206,-1.0850
 09,-2.586678\\Version=ES64L-G16RevA.03\HF=-3034.6063088\S2=8.761925\S2
 -1=0.\S2A=8.750044\RMSD=7.284e-09\PG=C01 [X(C8H16Cl3Fe1O1)]\\@


 ... FOR AFTERWARDS A MAN FINDS PLEASURE IN HIS PAINS,
 WHEN HE HAS SUFFERED LONG AND WANDERED FAR.

                                    -- HOMER
 Job cpu time:       0 days  0 hours 51 minutes 52.9 seconds.
 Elapsed time:       0 days  0 hours 13 minutes 19.5 seconds.
 File lengths (MBytes):  RWF=    174 Int=      0 D2E=      0 Chk=     13 Scr=      1
 Normal termination of Gaussian 16 at Tue Feb 11 23:04:38 2020.
