 Entering Gaussian System, Link 0=g16
 Input=simple-grid-180-245-b3lyp_d3bj-631gd-gas-singlepoint-DFT-juldz2-gas.gjf
 Output=simple-grid-180-245-b3lyp_d3bj-631gd-gas-singlepoint-DFT-juldz2-gas.out
 Initial command:
 /n/sw/g16_nehalem/g16/l1.exe "/scratch/Gau-240031.inp" -scrdir="/scratch/"
 Entering Link 1 = /n/sw/g16_nehalem/g16/l1.exe PID=    240033.
  
 Copyright (c) 1988,1990,1992,1993,1995,1998,2003,2009,2016,
            Gaussian, Inc.  All Rights Reserved.
  
 This is part of the Gaussian(R) 16 program.  It is based on
 the Gaussian(R) 09 system (copyright 2009, Gaussian, Inc.),
 the Gaussian(R) 03 system (copyright 2003, Gaussian, Inc.),
 the Gaussian(R) 98 system (copyright 1998, Gaussian, Inc.),
 the Gaussian(R) 94 system (copyright 1995, Gaussian, Inc.),
 the Gaussian 92(TM) system (copyright 1992, Gaussian, Inc.),
 the Gaussian 90(TM) system (copyright 1990, Gaussian, Inc.),
 the Gaussian 88(TM) system (copyright 1988, Gaussian, Inc.),
 the Gaussian 86(TM) system (copyright 1986, Carnegie Mellon
 University), and the Gaussian 82(TM) system (copyright 1983,
 Carnegie Mellon University). Gaussian is a federally registered
 trademark of Gaussian, Inc.
  
 This software contains proprietary and confidential information,
 including trade secrets, belonging to Gaussian, Inc.
  
 This software is provided under written license and may be
 used, copied, transmitted, or stored only in accord with that
 written license.
  
 The following legend is applicable only to US Government
 contracts under FAR:
  
                    RESTRICTED RIGHTS LEGEND
  
 Use, reproduction and disclosure by the US Government is
 subject to restrictions as set forth in subparagraphs (a)
 and (c) of the Commercial Computer Software - Restricted
 Rights clause in FAR 52.227-19.
  
 Gaussian, Inc.
 340 Quinnipiac St., Bldg. 40, Wallingford CT 06492
  
  
 ---------------------------------------------------------------
 Warning -- This program may not be used in any manner that
 competes with the business of Gaussian, Inc. or will provide
 assistance to any competitor of Gaussian, Inc.  The licensee
 of this program is prohibited from giving any competitor of
 Gaussian, Inc. access to this program.  By using this program,
 the user acknowledges that Gaussian, Inc. is engaged in the
 business of creating and licensing software in the field of
 computational chemistry and represents and warrants to the
 licensee that it is not a competitor of Gaussian, Inc. and that
 it will not use this program in any manner prohibited above.
 ---------------------------------------------------------------
  

 Cite this work as:
 Gaussian 16, Revision A.03,
 M. J. Frisch, G. W. Trucks, H. B. Schlegel, G. E. Scuseria, 
 M. A. Robb, J. R. Cheeseman, G. Scalmani, V. Barone, 
 G. A. Petersson, H. Nakatsuji, X. Li, M. Caricato, A. V. Marenich, 
 J. Bloino, B. G. Janesko, R. Gomperts, B. Mennucci, H. P. Hratchian, 
 J. V. Ortiz, A. F. Izmaylov, J. L. Sonnenberg, D. Williams-Young, 
 F. Ding, F. Lipparini, F. Egidi, J. Goings, B. Peng, A. Petrone, 
 T. Henderson, D. Ranasinghe, V. G. Zakrzewski, J. Gao, N. Rega, 
 G. Zheng, W. Liang, M. Hada, M. Ehara, K. Toyota, R. Fukuda, 
 J. Hasegawa, M. Ishida, T. Nakajima, Y. Honda, O. Kitao, H. Nakai, 
 T. Vreven, K. Throssell, J. A. Montgomery, Jr., J. E. Peralta, 
 F. Ogliaro, M. J. Bearpark, J. J. Heyd, E. N. Brothers, K. N. Kudin, 
 V. N. Staroverov, T. A. Keith, R. Kobayashi, J. Normand, 
 K. Raghavachari, A. P. Rendell, J. C. Burant, S. S. Iyengar, 
 J. Tomasi, M. Cossi, J. M. Millam, M. Klene, C. Adamo, R. Cammi, 
 J. W. Ochterski, R. L. Martin, K. Morokuma, O. Farkas, 
 J. B. Foresman, and D. J. Fox, Gaussian, Inc., Wallingford CT, 2016.
 
 ******************************************
 Gaussian 16:  ES64L-G16RevA.03 25-Dec-2016
                11-Feb-2020 
 ******************************************
 %chk=checkpoint.chk
 %mem=3GB
 %nprocshared=4
 Will use up to    4 processors via shared memory.
 --------------------------------
 #t pop=none jul-cc-pvdz upbe1pbe
 --------------------------------
 ------------------------
 theory_abbreviation pbe0
 ------------------------
 Symbolic Z-matrix:
 Charge =  0 Multiplicity = 6
 O                    -0.32307  -0.20262  -0.70026 
 C                    -1.30197  -1.1245   -0.52881 
 C                    -2.68217  -0.32382   0.30423 
 C                    -2.37938   0.99813  -0.12382 
 C                    -2.78645   1.50505  -1.45367 
 Fe                    1.37831   0.10382  -0.02434 
 Cl                    1.8279    2.14281  -0.75371 
 C                    -1.59825   1.92701   0.7139 
 Cl                    2.70393  -1.50301  -0.72704 
 Cl                    1.15649   0.08222   2.20574 
 H                    -3.53945  -0.74916  -0.21901 
 H                    -2.33964   2.52671   1.27165 
 H                    -0.96759   1.42571   1.44814 
 H                    -0.99912   2.61464   0.1108 
 H                    -3.11687   2.54727  -1.37126 
 H                    -1.87573   1.52475  -2.07181 
 H                    -3.55325   0.90377  -1.94229 
 C                    -2.70989  -0.59842   1.80499 
 H                    -3.48539   0.01016   2.28385 
 H                    -2.95262  -1.64655   1.99005 
 H                    -1.75592  -0.38239   2.29004 
 C                    -0.9006   -2.30264   0.3504 
 H                    -1.71756  -3.01671   0.48575 
 H                    -0.08053  -2.8065   -0.17574 
 H                    -0.51937  -1.98242   1.3199 
 C                    -1.84269  -1.60207  -1.87581 
 H                    -1.02173  -2.12571  -2.37716 
 H                    -2.68194  -2.29436  -1.75961 
 H                    -2.13771  -0.77407  -2.52175 
 
                    Distance matrix (angstroms):
                    1          2          3          4          5
     1  O    0.000000
     2  C    1.355539   0.000000
     3  C    2.566908   1.800001   0.000000
     4  C    2.449998   2.414619   1.422129   0.000000
     5  C    3.090628   3.158095   2.538867   1.480261   0.000000
     6  Fe   1.856196   2.991175   4.096131   3.863924   4.620779
     7  Cl   3.182859   4.530116   5.248259   4.405485   4.710508
     8  C    2.856792   3.308147   2.531592   1.474710   2.507632
     9  Cl   3.294612   4.028620   5.609284   5.697335   6.302430
    10  Cl   3.273387   3.870136   4.303009   4.332218   5.564392
    11  H    3.297784   2.289798   1.090701   2.099484   2.678219
    12  H    3.924818   4.201160   3.029646   2.070141   2.944622
    13  H    2.771725   3.244025   2.703545   2.155697   3.425640
    14  H    3.008619   3.805515   3.391843   2.138522   2.621693
    15  H    3.977112   4.181561   3.352518   2.121279   1.096445
    16  H    2.697356   3.119066   3.116589   2.079824   1.100857
    17  H    3.633291   3.343660   2.704182   2.166496   1.090083
    18  C    3.482791   2.775904   1.525929   2.525573   3.879346
    19  H    4.353206   3.737091   2.162313   2.827752   4.085614
    20  H    4.029535   3.056440   2.159799   3.433852   4.671121
    21  H    3.320731   2.950041   2.191989   2.849781   4.317381
    22  C    2.418162   1.523857   2.663056   3.647845   4.616234
    23  H    3.357120   2.186890   2.866192   4.114422   5.034891
    24  H    2.667232   2.108484   3.628030   4.445516   5.248291
    25  H    2.699485   2.183166   2.908649   3.798371   4.999474
    26  C    2.376890   1.528022   2.662936   3.180966   3.274613
    27  H    2.645444   2.120692   3.632314   4.084006   4.141190
    28  H    3.325940   2.188099   2.853502   3.688880   3.813140
    29  H    2.633872   2.189304   2.912953   2.991510   2.599234
                    6          7          8          9         10
     6  Fe   0.000000
     7  Cl   2.211696   0.000000
     8  C    3.567761   3.733491   0.000000
     9  Cl   2.198400   3.749682   5.687716   0.000000
    10  Cl   2.241189   3.668131   3.635578   3.675426   0.000000
    11  H    4.994976   6.120281   3.435184   6.309211   5.349994
    12  H    4.623103   4.649498   1.104706   6.758029   4.367027
    13  H    3.069007   3.630032   1.090019   5.175795   2.625002
    14  H    3.460436   2.993666   1.093397   5.600852   3.930467
    15  H    5.290672   4.999566   2.653070   7.120492   6.093679
    16  H    4.098777   3.979484   2.828249   5.652348   5.438080
    17  H    5.351517   5.648430   3.453172   6.813349   6.329513
    18  C    4.533536   5.886668   2.967163   6.044744   3.946232
    19  H    5.384423   6.481201   3.114537   7.047184   4.643089
    20  H    5.087083   6.688855   4.029046   6.276916   4.463169
    21  H    3.926336   5.337116   2.800431   5.499895   2.950435
    22  C    3.335399   5.331586   4.302190   3.846156   3.655331
    23  H    4.425181   6.381780   4.950419   4.828216   4.563096
    24  H    3.258997   5.335897   5.049858   3.123496   3.942883
    25  H    3.124179   5.179477   4.100593   3.848301   2.802841
    26  C    4.088128   5.362503   4.384150   4.690542   5.337689
    27  H    4.033201   5.382953   5.129479   4.122033   5.533762
    28  H    5.024745   6.406169   5.011252   5.540764   6.008802
    29  H    4.401149   5.230697   4.249265   5.214767   5.825298
                   11         12         13         14         15
    11  H    0.000000
    12  H    3.793807   0.000000
    13  H    3.758179   1.768009   0.000000
    14  H    4.228142   1.775471   1.789698   0.000000
    15  H    3.517486   2.754899   3.718367   2.585704   0.000000
    16  H    3.372163   3.521060   3.636559   2.592311   1.754061
    17  H    2.387894   3.799502   4.295701   3.696732   1.793771
    18  C    2.192598   3.191864   2.694452   4.015070   4.488827
    19  H    2.616070   2.944536   3.006907   4.205587   4.464584
    20  H    2.455530   4.278777   3.697671   5.050291   5.377124
    21  H    3.100139   3.136987   2.144641   3.782064   4.882639
    22  C    3.114654   5.122712   3.887174   4.924099   5.603357
    23  H    2.992947   5.633302   4.606919   5.689354   6.030286
    24  H    4.024754   5.970059   4.619029   5.505871   6.269885
    25  H    3.606947   4.862914   3.439865   4.777549   5.874297
    26  C    2.520204   5.215390   4.580596   4.736964   4.369799
    27  H    3.590457   6.057695   5.219997   5.353623   5.219018
    28  H    2.344440   5.705125   5.202651   5.516210   4.876614
    29  H    2.695934   5.032471   4.687021   4.439592   3.648788
                   16         17         18         19         20
    16  H    0.000000
    17  H    1.793452   0.000000
    18  C    4.498142   4.124310   0.000000
    19  H    4.884335   4.320112   1.095937   0.000000
    20  H    5.264552   4.725266   1.091664   1.764900   0.000000
    21  H    4.762068   4.774643   1.091791   1.773470   1.766405
    22  C    4.633244   4.751218   2.879885   3.970949   2.707335
    23  H    5.214493   4.963390   2.928008   3.939587   2.380256
    24  H    5.057429   5.380205   3.963891   5.057294   3.779547
    25  H    5.063954   5.308143   2.636126   3.700928   2.546098
    26  C    3.133133   3.034747   3.912498   4.754001   4.022282
    27  H    3.761436   3.971832   4.761604   5.688283   4.798999
    28  H    3.915744   3.319725   3.947579   4.722916   3.814821
    29  H    2.357040   2.270388   4.367939   5.052227   4.667072
                   21         22         23         24         25
    21  H    0.000000
    22  C    2.860272   0.000000
    23  H    3.193210   1.093447   0.000000
    24  H    3.842305   1.096908   1.778091   0.000000
    25  H    2.242842   1.089864   1.789198   1.763124   0.000000
    26  C    4.341597   2.516812   2.755682   2.728753   3.479708
    27  H    5.035966   2.735977   3.078031   2.489096   3.733780
    28  H    4.573058   2.761417   2.548225   3.088416   3.775901
    29  H    4.842775   3.480837   3.775044   3.723781   4.340203
                   26         27         28         29
    26  C    0.000000
    27  H    1.095225   0.000000
    28  H    1.094130   1.779361   0.000000
    29  H    1.090810   1.758765   1.785589   0.000000
 Framework group  C1[X(C8H16Cl3FeO)]
 Deg. of freedom    81
                         Standard orientation:                         
 ---------------------------------------------------------------------
 Center     Atomic      Atomic             Coordinates (Angstroms)
 Number     Number       Type             X           Y           Z
 ---------------------------------------------------------------------
      1          8           0       -0.323073   -0.202623   -0.700257
      2          6           0       -1.301968   -1.124500   -0.528812
      3          6           0       -2.682169   -0.323821    0.304231
      4          6           0       -2.379383    0.998126   -0.123819
      5          6           0       -2.786447    1.505048   -1.453669
      6         26           0        1.378306    0.103817   -0.024338
      7         17           0        1.827901    2.142807   -0.753711
      8          6           0       -1.598250    1.927012    0.713899
      9         17           0        2.703929   -1.503010   -0.727043
     10         17           0        1.156486    0.082218    2.205742
     11          1           0       -3.539449   -0.749163   -0.219013
     12          1           0       -2.339635    2.526709    1.271651
     13          1           0       -0.967590    1.425709    1.448136
     14          1           0       -0.999119    2.614635    0.110796
     15          1           0       -3.116865    2.547269   -1.371256
     16          1           0       -1.875734    1.524749   -2.071811
     17          1           0       -3.553254    0.903766   -1.942287
     18          6           0       -2.709891   -0.598424    1.804992
     19          1           0       -3.485387    0.010164    2.283850
     20          1           0       -2.952615   -1.646551    1.990047
     21          1           0       -1.755919   -0.382388    2.290042
     22          6           0       -0.900598   -2.302644    0.350403
     23          1           0       -1.717557   -3.016707    0.485746
     24          1           0       -0.080528   -2.806500   -0.175735
     25          1           0       -0.519365   -1.982417    1.319897
     26          6           0       -1.842686   -1.602073   -1.875808
     27          1           0       -1.021728   -2.125708   -2.377158
     28          1           0       -2.681944   -2.294362   -1.759611
     29          1           0       -2.137712   -0.774069   -2.521745
 ---------------------------------------------------------------------
 Rotational constants (GHZ):           0.5738433           0.3546454           0.3272995
   427 basis functions,  1056 primitive gaussians,   461 cartesian basis functions
    77 alpha electrons       72 beta electrons
       nuclear repulsion energy      1658.7328767411 Hartrees.
 NAtoms=   29 NActive=   29 NUniq=   29 SFac= 1.00D+00 NAtFMM=   60 NAOKFM=F Big=F
 ExpMin= 1.40D-02 ExpMax= 4.32D+06 ExpMxC= 4.91D+03 IAcc=3 IRadAn=         5 AccDes= 0.00D+00
 Harris functional with IExCor= 1009 and IRadAn=       5 diagonalized for initial guess.
 HarFok:  IExCor= 1009 AccDes= 0.00D+00 IRadAn=         5 IDoV= 1 UseB2=F ITyADJ=14
 ICtDFT=  3500011 ScaDFX=  1.000000  1.000000  1.000000  1.000000
 FoFCou: FMM=F IPFlag=           0 FMFlag=      100000 FMFlg1=           0
         NFxFlg=           0 DoJE=T BraDBF=F KetDBF=T FulRan=T
         wScrn=  0.000000 ICntrl=       500 IOpCl=  0 I1Cent=   200000004 NGrid=           0
         NMat0=    1 NMatS0=      1 NMatT0=    0 NMatD0=    1 NMtDS0=    0 NMtDT0=    0
 Petite list used in FoFCou.
 Initial guess <Sx>= 0.0000 <Sy>= 0.0000 <Sz>= 2.5000 <S**2>= 8.7500 S= 2.5000
 EnCoef did   100 forward-backward iterations
 Restarting incremental Fock formation.
 SCF Done:  E(UPBE1PBE) =  -3033.10523778     A.U. after   21 cycles
            NFock= 21  Conv=0.56D-08     -V/T= 2.0021
 <Sx>= 0.0000 <Sy>= 0.0000 <Sz>= 2.5000 <S**2>= 8.7620 S= 2.5020
 <L.S>= 0.000000000000E+00
 Annihilation of the first spin contaminant:
 S**2 before annihilation     8.7620,   after     8.7500
 1\1\GINC-HOLY7C06602\SP\UPBE1PBE\Jul-CC-pVDZ\C8H16Cl3Fe1O1(6)\EKWAN\11
 -Feb-2020\0\\#t pop=none jul-cc-pvdz upbe1pbe\\theory_abbreviation pbe
 0\\0,6\O,0,-0.323073,-0.202623,-0.700257\C,0,-1.301968,-1.1245,-0.5288
 12\C,0,-2.682169,-0.323821,0.304231\C,0,-2.379383,0.998126,-0.123819\C
 ,0,-2.786447,1.505048,-1.453669\Fe,0,1.378306,0.103817,-0.024338\Cl,0,
 1.827901,2.142807,-0.753711\C,0,-1.59825,1.927012,0.713899\Cl,0,2.7039
 29,-1.50301,-0.727043\Cl,0,1.156486,0.082218,2.205742\H,0,-3.539449,-0
 .749163,-0.219013\H,0,-2.339635,2.526709,1.271651\H,0,-0.96759,1.42570
 9,1.448136\H,0,-0.999119,2.614635,0.110796\H,0,-3.116865,2.547269,-1.3
 71256\H,0,-1.875734,1.524749,-2.071811\H,0,-3.553254,0.903766,-1.94228
 7\C,0,-2.709891,-0.598424,1.804992\H,0,-3.485387,0.010164,2.28385\H,0,
 -2.952615,-1.646551,1.990047\H,0,-1.755919,-0.382388,2.290042\C,0,-0.9
 00598,-2.302644,0.350403\H,0,-1.717557,-3.016707,0.485746\H,0,-0.08052
 8,-2.8065,-0.175735\H,0,-0.519365,-1.982417,1.319897\C,0,-1.842686,-1.
 602073,-1.875808\H,0,-1.021728,-2.125708,-2.377158\H,0,-2.681944,-2.29
 4362,-1.759611\H,0,-2.137712,-0.774069,-2.521745\\Version=ES64L-G16Rev
 A.03\HF=-3033.1052378\S2=8.762029\S2-1=0.\S2A=8.750045\RMSD=5.637e-09\
 PG=C01 [X(C8H16Cl3Fe1O1)]\\@


 What some people mistake for the high cost
 of living is really the cost of living high.
                              -- Doug Larson
 Job cpu time:       0 days  1 hours 31 minutes 28.1 seconds.
 Elapsed time:       0 days  0 hours 22 minutes 55.6 seconds.
 File lengths (MBytes):  RWF=    173 Int=      0 D2E=      0 Chk=     13 Scr=      1
 Normal termination of Gaussian 16 at Tue Feb 11 14:46:15 2020.
 Initial command:
 /n/sw/g16_nehalem/g16/l1.exe "/scratch/Gau-240031.inp" -scrdir="/scratch/"
 Entering Link 1 = /n/sw/g16_nehalem/g16/l1.exe PID=    241918.
  
 Copyright (c) 1988,1990,1992,1993,1995,1998,2003,2009,2016,
            Gaussian, Inc.  All Rights Reserved.
  
 This is part of the Gaussian(R) 16 program.  It is based on
 the Gaussian(R) 09 system (copyright 2009, Gaussian, Inc.),
 the Gaussian(R) 03 system (copyright 2003, Gaussian, Inc.),
 the Gaussian(R) 98 system (copyright 1998, Gaussian, Inc.),
 the Gaussian(R) 94 system (copyright 1995, Gaussian, Inc.),
 the Gaussian 92(TM) system (copyright 1992, Gaussian, Inc.),
 the Gaussian 90(TM) system (copyright 1990, Gaussian, Inc.),
 the Gaussian 88(TM) system (copyright 1988, Gaussian, Inc.),
 the Gaussian 86(TM) system (copyright 1986, Carnegie Mellon
 University), and the Gaussian 82(TM) system (copyright 1983,
 Carnegie Mellon University). Gaussian is a federally registered
 trademark of Gaussian, Inc.
  
 This software contains proprietary and confidential information,
 including trade secrets, belonging to Gaussian, Inc.
  
 This software is provided under written license and may be
 used, copied, transmitted, or stored only in accord with that
 written license.
  
 The following legend is applicable only to US Government
 contracts under FAR:
  
                    RESTRICTED RIGHTS LEGEND
  
 Use, reproduction and disclosure by the US Government is
 subject to restrictions as set forth in subparagraphs (a)
 and (c) of the Commercial Computer Software - Restricted
 Rights clause in FAR 52.227-19.
  
 Gaussian, Inc.
 340 Quinnipiac St., Bldg. 40, Wallingford CT 06492
  
  
 ---------------------------------------------------------------
 Warning -- This program may not be used in any manner that
 competes with the business of Gaussian, Inc. or will provide
 assistance to any competitor of Gaussian, Inc.  The licensee
 of this program is prohibited from giving any competitor of
 Gaussian, Inc. access to this program.  By using this program,
 the user acknowledges that Gaussian, Inc. is engaged in the
 business of creating and licensing software in the field of
 computational chemistry and represents and warrants to the
 licensee that it is not a competitor of Gaussian, Inc. and that
 it will not use this program in any manner prohibited above.
 ---------------------------------------------------------------
  

 Cite this work as:
 Gaussian 16, Revision A.03,
 M. J. Frisch, G. W. Trucks, H. B. Schlegel, G. E. Scuseria, 
 M. A. Robb, J. R. Cheeseman, G. Scalmani, V. Barone, 
 G. A. Petersson, H. Nakatsuji, X. Li, M. Caricato, A. V. Marenich, 
 J. Bloino, B. G. Janesko, R. Gomperts, B. Mennucci, H. P. Hratchian, 
 J. V. Ortiz, A. F. Izmaylov, J. L. Sonnenberg, D. Williams-Young, 
 F. Ding, F. Lipparini, F. Egidi, J. Goings, B. Peng, A. Petrone, 
 T. Henderson, D. Ranasinghe, V. G. Zakrzewski, J. Gao, N. Rega, 
 G. Zheng, W. Liang, M. Hada, M. Ehara, K. Toyota, R. Fukuda, 
 J. Hasegawa, M. Ishida, T. Nakajima, Y. Honda, O. Kitao, H. Nakai, 
 T. Vreven, K. Throssell, J. A. Montgomery, Jr., J. E. Peralta, 
 F. Ogliaro, M. J. Bearpark, J. J. Heyd, E. N. Brothers, K. N. Kudin, 
 V. N. Staroverov, T. A. Keith, R. Kobayashi, J. Normand, 
 K. Raghavachari, A. P. Rendell, J. C. Burant, S. S. Iyengar, 
 J. Tomasi, M. Cossi, J. M. Millam, M. Klene, C. Adamo, R. Cammi, 
 J. W. Ochterski, R. L. Martin, K. Morokuma, O. Farkas, 
 J. B. Foresman, and D. J. Fox, Gaussian, Inc., Wallingford CT, 2016.
 
 ******************************************
 Gaussian 16:  ES64L-G16RevA.03 25-Dec-2016
                11-Feb-2020 
 ******************************************
 %chk=checkpoint.chk
 %mem=3GB
 %nprocshared=4
 Will use up to    4 processors via shared memory.
 ---------------------------------------------------------------------
 #t pop=none jul-cc-pvdz guess=read upbe1pbe empiricaldispersion=gd3bj
 ---------------------------------------------------------------------
 -----------------------------
 theory_abbreviation pbe0_d3bj
 -----------------------------
 Symbolic Z-matrix:
 Charge =  0 Multiplicity = 6
 O                    -0.32307  -0.20262  -0.70026 
 C                    -1.30197  -1.1245   -0.52881 
 C                    -2.68217  -0.32382   0.30423 
 C                    -2.37938   0.99813  -0.12382 
 C                    -2.78645   1.50505  -1.45367 
 Fe                    1.37831   0.10382  -0.02434 
 Cl                    1.8279    2.14281  -0.75371 
 C                    -1.59825   1.92701   0.7139 
 Cl                    2.70393  -1.50301  -0.72704 
 Cl                    1.15649   0.08222   2.20574 
 H                    -3.53945  -0.74916  -0.21901 
 H                    -2.33964   2.52671   1.27165 
 H                    -0.96759   1.42571   1.44814 
 H                    -0.99912   2.61464   0.1108 
 H                    -3.11687   2.54727  -1.37126 
 H                    -1.87573   1.52475  -2.07181 
 H                    -3.55325   0.90377  -1.94229 
 C                    -2.70989  -0.59842   1.80499 
 H                    -3.48539   0.01016   2.28385 
 H                    -2.95262  -1.64655   1.99005 
 H                    -1.75592  -0.38239   2.29004 
 C                    -0.9006   -2.30264   0.3504 
 H                    -1.71756  -3.01671   0.48575 
 H                    -0.08053  -2.8065   -0.17574 
 H                    -0.51937  -1.98242   1.3199 
 C                    -1.84269  -1.60207  -1.87581 
 H                    -1.02173  -2.12571  -2.37716 
 H                    -2.68194  -2.29436  -1.75961 
 H                    -2.13771  -0.77407  -2.52175 
 
                    Distance matrix (angstroms):
                    1          2          3          4          5
     1  O    0.000000
     2  C    1.355539   0.000000
     3  C    2.566908   1.800001   0.000000
     4  C    2.449998   2.414619   1.422129   0.000000
     5  C    3.090628   3.158095   2.538867   1.480261   0.000000
     6  Fe   1.856196   2.991175   4.096131   3.863924   4.620779
     7  Cl   3.182859   4.530116   5.248259   4.405485   4.710508
     8  C    2.856792   3.308147   2.531592   1.474710   2.507632
     9  Cl   3.294612   4.028620   5.609284   5.697335   6.302430
    10  Cl   3.273387   3.870136   4.303009   4.332218   5.564392
    11  H    3.297784   2.289798   1.090701   2.099484   2.678219
    12  H    3.924818   4.201160   3.029646   2.070141   2.944622
    13  H    2.771725   3.244025   2.703545   2.155697   3.425640
    14  H    3.008619   3.805515   3.391843   2.138522   2.621693
    15  H    3.977112   4.181561   3.352518   2.121279   1.096445
    16  H    2.697356   3.119066   3.116589   2.079824   1.100857
    17  H    3.633291   3.343660   2.704182   2.166496   1.090083
    18  C    3.482791   2.775904   1.525929   2.525573   3.879346
    19  H    4.353206   3.737091   2.162313   2.827752   4.085614
    20  H    4.029535   3.056440   2.159799   3.433852   4.671121
    21  H    3.320731   2.950041   2.191989   2.849781   4.317381
    22  C    2.418162   1.523857   2.663056   3.647845   4.616234
    23  H    3.357120   2.186890   2.866192   4.114422   5.034891
    24  H    2.667232   2.108484   3.628030   4.445516   5.248291
    25  H    2.699485   2.183166   2.908649   3.798371   4.999474
    26  C    2.376890   1.528022   2.662936   3.180966   3.274613
    27  H    2.645444   2.120692   3.632314   4.084006   4.141190
    28  H    3.325940   2.188099   2.853502   3.688880   3.813140
    29  H    2.633872   2.189304   2.912953   2.991510   2.599234
                    6          7          8          9         10
     6  Fe   0.000000
     7  Cl   2.211696   0.000000
     8  C    3.567761   3.733491   0.000000
     9  Cl   2.198400   3.749682   5.687716   0.000000
    10  Cl   2.241189   3.668131   3.635578   3.675426   0.000000
    11  H    4.994976   6.120281   3.435184   6.309211   5.349994
    12  H    4.623103   4.649498   1.104706   6.758029   4.367027
    13  H    3.069007   3.630032   1.090019   5.175795   2.625002
    14  H    3.460436   2.993666   1.093397   5.600852   3.930467
    15  H    5.290672   4.999566   2.653070   7.120492   6.093679
    16  H    4.098777   3.979484   2.828249   5.652348   5.438080
    17  H    5.351517   5.648430   3.453172   6.813349   6.329513
    18  C    4.533536   5.886668   2.967163   6.044744   3.946232
    19  H    5.384423   6.481201   3.114537   7.047184   4.643089
    20  H    5.087083   6.688855   4.029046   6.276916   4.463169
    21  H    3.926336   5.337116   2.800431   5.499895   2.950435
    22  C    3.335399   5.331586   4.302190   3.846156   3.655331
    23  H    4.425181   6.381780   4.950419   4.828216   4.563096
    24  H    3.258997   5.335897   5.049858   3.123496   3.942883
    25  H    3.124179   5.179477   4.100593   3.848301   2.802841
    26  C    4.088128   5.362503   4.384150   4.690542   5.337689
    27  H    4.033201   5.382953   5.129479   4.122033   5.533762
    28  H    5.024745   6.406169   5.011252   5.540764   6.008802
    29  H    4.401149   5.230697   4.249265   5.214767   5.825298
                   11         12         13         14         15
    11  H    0.000000
    12  H    3.793807   0.000000
    13  H    3.758179   1.768009   0.000000
    14  H    4.228142   1.775471   1.789698   0.000000
    15  H    3.517486   2.754899   3.718367   2.585704   0.000000
    16  H    3.372163   3.521060   3.636559   2.592311   1.754061
    17  H    2.387894   3.799502   4.295701   3.696732   1.793771
    18  C    2.192598   3.191864   2.694452   4.015070   4.488827
    19  H    2.616070   2.944536   3.006907   4.205587   4.464584
    20  H    2.455530   4.278777   3.697671   5.050291   5.377124
    21  H    3.100139   3.136987   2.144641   3.782064   4.882639
    22  C    3.114654   5.122712   3.887174   4.924099   5.603357
    23  H    2.992947   5.633302   4.606919   5.689354   6.030286
    24  H    4.024754   5.970059   4.619029   5.505871   6.269885
    25  H    3.606947   4.862914   3.439865   4.777549   5.874297
    26  C    2.520204   5.215390   4.580596   4.736964   4.369799
    27  H    3.590457   6.057695   5.219997   5.353623   5.219018
    28  H    2.344440   5.705125   5.202651   5.516210   4.876614
    29  H    2.695934   5.032471   4.687021   4.439592   3.648788
                   16         17         18         19         20
    16  H    0.000000
    17  H    1.793452   0.000000
    18  C    4.498142   4.124310   0.000000
    19  H    4.884335   4.320112   1.095937   0.000000
    20  H    5.264552   4.725266   1.091664   1.764900   0.000000
    21  H    4.762068   4.774643   1.091791   1.773470   1.766405
    22  C    4.633244   4.751218   2.879885   3.970949   2.707335
    23  H    5.214493   4.963390   2.928008   3.939587   2.380256
    24  H    5.057429   5.380205   3.963891   5.057294   3.779547
    25  H    5.063954   5.308143   2.636126   3.700928   2.546098
    26  C    3.133133   3.034747   3.912498   4.754001   4.022282
    27  H    3.761436   3.971832   4.761604   5.688283   4.798999
    28  H    3.915744   3.319725   3.947579   4.722916   3.814821
    29  H    2.357040   2.270388   4.367939   5.052227   4.667072
                   21         22         23         24         25
    21  H    0.000000
    22  C    2.860272   0.000000
    23  H    3.193210   1.093447   0.000000
    24  H    3.842305   1.096908   1.778091   0.000000
    25  H    2.242842   1.089864   1.789198   1.763124   0.000000
    26  C    4.341597   2.516812   2.755682   2.728753   3.479708
    27  H    5.035966   2.735977   3.078031   2.489096   3.733780
    28  H    4.573058   2.761417   2.548225   3.088416   3.775901
    29  H    4.842775   3.480837   3.775044   3.723781   4.340203
                   26         27         28         29
    26  C    0.000000
    27  H    1.095225   0.000000
    28  H    1.094130   1.779361   0.000000
    29  H    1.090810   1.758765   1.785589   0.000000
 Framework group  C1[X(C8H16Cl3FeO)]
 Deg. of freedom    81
                         Standard orientation:                         
 ---------------------------------------------------------------------
 Center     Atomic      Atomic             Coordinates (Angstroms)
 Number     Number       Type             X           Y           Z
 ---------------------------------------------------------------------
      1          8           0       -0.323073   -0.202623   -0.700257
      2          6           0       -1.301968   -1.124500   -0.528812
      3          6           0       -2.682169   -0.323821    0.304231
      4          6           0       -2.379383    0.998126   -0.123819
      5          6           0       -2.786447    1.505048   -1.453669
      6         26           0        1.378306    0.103817   -0.024338
      7         17           0        1.827901    2.142807   -0.753711
      8          6           0       -1.598250    1.927012    0.713899
      9         17           0        2.703929   -1.503010   -0.727043
     10         17           0        1.156486    0.082218    2.205742
     11          1           0       -3.539449   -0.749163   -0.219013
     12          1           0       -2.339635    2.526709    1.271651
     13          1           0       -0.967590    1.425709    1.448136
     14          1           0       -0.999119    2.614635    0.110796
     15          1           0       -3.116865    2.547269   -1.371256
     16          1           0       -1.875734    1.524749   -2.071811
     17          1           0       -3.553254    0.903766   -1.942287
     18          6           0       -2.709891   -0.598424    1.804992
     19          1           0       -3.485387    0.010164    2.283850
     20          1           0       -2.952615   -1.646551    1.990047
     21          1           0       -1.755919   -0.382388    2.290042
     22          6           0       -0.900598   -2.302644    0.350403
     23          1           0       -1.717557   -3.016707    0.485746
     24          1           0       -0.080528   -2.806500   -0.175735
     25          1           0       -0.519365   -1.982417    1.319897
     26          6           0       -1.842686   -1.602073   -1.875808
     27          1           0       -1.021728   -2.125708   -2.377158
     28          1           0       -2.681944   -2.294362   -1.759611
     29          1           0       -2.137712   -0.774069   -2.521745
 ---------------------------------------------------------------------
 Rotational constants (GHZ):           0.5738433           0.3546454           0.3272995
   427 basis functions,  1056 primitive gaussians,   461 cartesian basis functions
    77 alpha electrons       72 beta electrons
       nuclear repulsion energy      1658.7328767411 Hartrees.
 NAtoms=   29 NActive=   29 NUniq=   29 SFac= 1.00D+00 NAtFMM=   60 NAOKFM=F Big=F
 Nuclear repulsion after empirical dispersion term =     1658.6956879971 Hartrees.
 Initial guess from the checkpoint file:  "checkpoint.chk"
 B after Tr=     0.000000    0.000000    0.000000
         Rot=    1.000000    0.000000    0.000000    0.000000 Ang=   0.00 deg.
 Initial guess <Sx>= 0.0000 <Sy>= 0.0000 <Sz>= 2.5000 <S**2>= 8.7620 S= 2.5020
 SCF Done:  E(UPBE1PBE) =  -3033.14242652     A.U. after    1 cycles
            NFock=  1  Conv=0.24D-08     -V/T= 2.0021
 <Sx>= 0.0000 <Sy>= 0.0000 <Sz>= 2.5000 <S**2>= 8.7620 S= 2.5020
 <L.S>= 0.000000000000E+00
 Annihilation of the first spin contaminant:
 S**2 before annihilation     8.7620,   after     8.7500
 1\1\GINC-HOLY7C06602\SP\UPBE1PBE\Jul-CC-pVDZ\C8H16Cl3Fe1O1(6)\EKWAN\11
 -Feb-2020\0\\#t pop=none jul-cc-pvdz guess=read upbe1pbe empiricaldisp
 ersion=gd3bj\\theory_abbreviation pbe0_d3bj\\0,6\O,0,-0.323073,-0.2026
 23,-0.700257\C,0,-1.301968,-1.1245,-0.528812\C,0,-2.682169,-0.323821,0
 .304231\C,0,-2.379383,0.998126,-0.123819\C,0,-2.786447,1.505048,-1.453
 669\Fe,0,1.378306,0.103817,-0.024338\Cl,0,1.827901,2.142807,-0.753711\
 C,0,-1.59825,1.927012,0.713899\Cl,0,2.703929,-1.50301,-0.727043\Cl,0,1
 .156486,0.082218,2.205742\H,0,-3.539449,-0.749163,-0.219013\H,0,-2.339
 635,2.526709,1.271651\H,0,-0.96759,1.425709,1.448136\H,0,-0.999119,2.6
 14635,0.110796\H,0,-3.116865,2.547269,-1.371256\H,0,-1.875734,1.524749
 ,-2.071811\H,0,-3.553254,0.903766,-1.942287\C,0,-2.709891,-0.598424,1.
 804992\H,0,-3.485387,0.010164,2.28385\H,0,-2.952615,-1.646551,1.990047
 \H,0,-1.755919,-0.382388,2.290042\C,0,-0.900598,-2.302644,0.350403\H,0
 ,-1.717557,-3.016707,0.485746\H,0,-0.080528,-2.8065,-0.175735\H,0,-0.5
 19365,-1.982417,1.319897\C,0,-1.842686,-1.602073,-1.875808\H,0,-1.0217
 28,-2.125708,-2.377158\H,0,-2.681944,-2.294362,-1.759611\H,0,-2.137712
 ,-0.774069,-2.521745\\Version=ES64L-G16RevA.03\HF=-3033.1424265\S2=8.7
 62029\S2-1=0.\S2A=8.750045\RMSD=2.420e-09\PG=C01 [X(C8H16Cl3Fe1O1)]\\@


 TERRY FORSTER, PORTLY ATLANTA BRAVES RELIEVER,
 ANNOUNCING THAT HE WAS GOING TO A FAT FARM:
 "A WAIST IS A TERRIBLE THING TO MIND."
 Job cpu time:       0 days  0 hours  4 minutes 38.7 seconds.
 Elapsed time:       0 days  0 hours  1 minutes 10.1 seconds.
 File lengths (MBytes):  RWF=    170 Int=      0 D2E=      0 Chk=     13 Scr=      1
 Normal termination of Gaussian 16 at Tue Feb 11 14:47:26 2020.
 Initial command:
 /n/sw/g16_nehalem/g16/l1.exe "/scratch/Gau-240031.inp" -scrdir="/scratch/"
 Entering Link 1 = /n/sw/g16_nehalem/g16/l1.exe PID=    242035.
  
 Copyright (c) 1988,1990,1992,1993,1995,1998,2003,2009,2016,
            Gaussian, Inc.  All Rights Reserved.
  
 This is part of the Gaussian(R) 16 program.  It is based on
 the Gaussian(R) 09 system (copyright 2009, Gaussian, Inc.),
 the Gaussian(R) 03 system (copyright 2003, Gaussian, Inc.),
 the Gaussian(R) 98 system (copyright 1998, Gaussian, Inc.),
 the Gaussian(R) 94 system (copyright 1995, Gaussian, Inc.),
 the Gaussian 92(TM) system (copyright 1992, Gaussian, Inc.),
 the Gaussian 90(TM) system (copyright 1990, Gaussian, Inc.),
 the Gaussian 88(TM) system (copyright 1988, Gaussian, Inc.),
 the Gaussian 86(TM) system (copyright 1986, Carnegie Mellon
 University), and the Gaussian 82(TM) system (copyright 1983,
 Carnegie Mellon University). Gaussian is a federally registered
 trademark of Gaussian, Inc.
  
 This software contains proprietary and confidential information,
 including trade secrets, belonging to Gaussian, Inc.
  
 This software is provided under written license and may be
 used, copied, transmitted, or stored only in accord with that
 written license.
  
 The following legend is applicable only to US Government
 contracts under FAR:
  
                    RESTRICTED RIGHTS LEGEND
  
 Use, reproduction and disclosure by the US Government is
 subject to restrictions as set forth in subparagraphs (a)
 and (c) of the Commercial Computer Software - Restricted
 Rights clause in FAR 52.227-19.
  
 Gaussian, Inc.
 340 Quinnipiac St., Bldg. 40, Wallingford CT 06492
  
  
 ---------------------------------------------------------------
 Warning -- This program may not be used in any manner that
 competes with the business of Gaussian, Inc. or will provide
 assistance to any competitor of Gaussian, Inc.  The licensee
 of this program is prohibited from giving any competitor of
 Gaussian, Inc. access to this program.  By using this program,
 the user acknowledges that Gaussian, Inc. is engaged in the
 business of creating and licensing software in the field of
 computational chemistry and represents and warrants to the
 licensee that it is not a competitor of Gaussian, Inc. and that
 it will not use this program in any manner prohibited above.
 ---------------------------------------------------------------
  

 Cite this work as:
 Gaussian 16, Revision A.03,
 M. J. Frisch, G. W. Trucks, H. B. Schlegel, G. E. Scuseria, 
 M. A. Robb, J. R. Cheeseman, G. Scalmani, V. Barone, 
 G. A. Petersson, H. Nakatsuji, X. Li, M. Caricato, A. V. Marenich, 
 J. Bloino, B. G. Janesko, R. Gomperts, B. Mennucci, H. P. Hratchian, 
 J. V. Ortiz, A. F. Izmaylov, J. L. Sonnenberg, D. Williams-Young, 
 F. Ding, F. Lipparini, F. Egidi, J. Goings, B. Peng, A. Petrone, 
 T. Henderson, D. Ranasinghe, V. G. Zakrzewski, J. Gao, N. Rega, 
 G. Zheng, W. Liang, M. Hada, M. Ehara, K. Toyota, R. Fukuda, 
 J. Hasegawa, M. Ishida, T. Nakajima, Y. Honda, O. Kitao, H. Nakai, 
 T. Vreven, K. Throssell, J. A. Montgomery, Jr., J. E. Peralta, 
 F. Ogliaro, M. J. Bearpark, J. J. Heyd, E. N. Brothers, K. N. Kudin, 
 V. N. Staroverov, T. A. Keith, R. Kobayashi, J. Normand, 
 K. Raghavachari, A. P. Rendell, J. C. Burant, S. S. Iyengar, 
 J. Tomasi, M. Cossi, J. M. Millam, M. Klene, C. Adamo, R. Cammi, 
 J. W. Ochterski, R. L. Martin, K. Morokuma, O. Farkas, 
 J. B. Foresman, and D. J. Fox, Gaussian, Inc., Wallingford CT, 2016.
 
 ******************************************
 Gaussian 16:  ES64L-G16RevA.03 25-Dec-2016
                11-Feb-2020 
 ******************************************
 %chk=checkpoint.chk
 %mem=3GB
 %nprocshared=4
 Will use up to    4 processors via shared memory.
 -----------------------------------------
 #t pop=none jul-cc-pvdz guess=read ub3lyp
 -----------------------------------------
 -------------------------
 theory_abbreviation b3lyp
 -------------------------
 Symbolic Z-matrix:
 Charge =  0 Multiplicity = 6
 O                    -0.32307  -0.20262  -0.70026 
 C                    -1.30197  -1.1245   -0.52881 
 C                    -2.68217  -0.32382   0.30423 
 C                    -2.37938   0.99813  -0.12382 
 C                    -2.78645   1.50505  -1.45367 
 Fe                    1.37831   0.10382  -0.02434 
 Cl                    1.8279    2.14281  -0.75371 
 C                    -1.59825   1.92701   0.7139 
 Cl                    2.70393  -1.50301  -0.72704 
 Cl                    1.15649   0.08222   2.20574 
 H                    -3.53945  -0.74916  -0.21901 
 H                    -2.33964   2.52671   1.27165 
 H                    -0.96759   1.42571   1.44814 
 H                    -0.99912   2.61464   0.1108 
 H                    -3.11687   2.54727  -1.37126 
 H                    -1.87573   1.52475  -2.07181 
 H                    -3.55325   0.90377  -1.94229 
 C                    -2.70989  -0.59842   1.80499 
 H                    -3.48539   0.01016   2.28385 
 H                    -2.95262  -1.64655   1.99005 
 H                    -1.75592  -0.38239   2.29004 
 C                    -0.9006   -2.30264   0.3504 
 H                    -1.71756  -3.01671   0.48575 
 H                    -0.08053  -2.8065   -0.17574 
 H                    -0.51937  -1.98242   1.3199 
 C                    -1.84269  -1.60207  -1.87581 
 H                    -1.02173  -2.12571  -2.37716 
 H                    -2.68194  -2.29436  -1.75961 
 H                    -2.13771  -0.77407  -2.52175 
 
                    Distance matrix (angstroms):
                    1          2          3          4          5
     1  O    0.000000
     2  C    1.355539   0.000000
     3  C    2.566908   1.800001   0.000000
     4  C    2.449998   2.414619   1.422129   0.000000
     5  C    3.090628   3.158095   2.538867   1.480261   0.000000
     6  Fe   1.856196   2.991175   4.096131   3.863924   4.620779
     7  Cl   3.182859   4.530116   5.248259   4.405485   4.710508
     8  C    2.856792   3.308147   2.531592   1.474710   2.507632
     9  Cl   3.294612   4.028620   5.609284   5.697335   6.302430
    10  Cl   3.273387   3.870136   4.303009   4.332218   5.564392
    11  H    3.297784   2.289798   1.090701   2.099484   2.678219
    12  H    3.924818   4.201160   3.029646   2.070141   2.944622
    13  H    2.771725   3.244025   2.703545   2.155697   3.425640
    14  H    3.008619   3.805515   3.391843   2.138522   2.621693
    15  H    3.977112   4.181561   3.352518   2.121279   1.096445
    16  H    2.697356   3.119066   3.116589   2.079824   1.100857
    17  H    3.633291   3.343660   2.704182   2.166496   1.090083
    18  C    3.482791   2.775904   1.525929   2.525573   3.879346
    19  H    4.353206   3.737091   2.162313   2.827752   4.085614
    20  H    4.029535   3.056440   2.159799   3.433852   4.671121
    21  H    3.320731   2.950041   2.191989   2.849781   4.317381
    22  C    2.418162   1.523857   2.663056   3.647845   4.616234
    23  H    3.357120   2.186890   2.866192   4.114422   5.034891
    24  H    2.667232   2.108484   3.628030   4.445516   5.248291
    25  H    2.699485   2.183166   2.908649   3.798371   4.999474
    26  C    2.376890   1.528022   2.662936   3.180966   3.274613
    27  H    2.645444   2.120692   3.632314   4.084006   4.141190
    28  H    3.325940   2.188099   2.853502   3.688880   3.813140
    29  H    2.633872   2.189304   2.912953   2.991510   2.599234
                    6          7          8          9         10
     6  Fe   0.000000
     7  Cl   2.211696   0.000000
     8  C    3.567761   3.733491   0.000000
     9  Cl   2.198400   3.749682   5.687716   0.000000
    10  Cl   2.241189   3.668131   3.635578   3.675426   0.000000
    11  H    4.994976   6.120281   3.435184   6.309211   5.349994
    12  H    4.623103   4.649498   1.104706   6.758029   4.367027
    13  H    3.069007   3.630032   1.090019   5.175795   2.625002
    14  H    3.460436   2.993666   1.093397   5.600852   3.930467
    15  H    5.290672   4.999566   2.653070   7.120492   6.093679
    16  H    4.098777   3.979484   2.828249   5.652348   5.438080
    17  H    5.351517   5.648430   3.453172   6.813349   6.329513
    18  C    4.533536   5.886668   2.967163   6.044744   3.946232
    19  H    5.384423   6.481201   3.114537   7.047184   4.643089
    20  H    5.087083   6.688855   4.029046   6.276916   4.463169
    21  H    3.926336   5.337116   2.800431   5.499895   2.950435
    22  C    3.335399   5.331586   4.302190   3.846156   3.655331
    23  H    4.425181   6.381780   4.950419   4.828216   4.563096
    24  H    3.258997   5.335897   5.049858   3.123496   3.942883
    25  H    3.124179   5.179477   4.100593   3.848301   2.802841
    26  C    4.088128   5.362503   4.384150   4.690542   5.337689
    27  H    4.033201   5.382953   5.129479   4.122033   5.533762
    28  H    5.024745   6.406169   5.011252   5.540764   6.008802
    29  H    4.401149   5.230697   4.249265   5.214767   5.825298
                   11         12         13         14         15
    11  H    0.000000
    12  H    3.793807   0.000000
    13  H    3.758179   1.768009   0.000000
    14  H    4.228142   1.775471   1.789698   0.000000
    15  H    3.517486   2.754899   3.718367   2.585704   0.000000
    16  H    3.372163   3.521060   3.636559   2.592311   1.754061
    17  H    2.387894   3.799502   4.295701   3.696732   1.793771
    18  C    2.192598   3.191864   2.694452   4.015070   4.488827
    19  H    2.616070   2.944536   3.006907   4.205587   4.464584
    20  H    2.455530   4.278777   3.697671   5.050291   5.377124
    21  H    3.100139   3.136987   2.144641   3.782064   4.882639
    22  C    3.114654   5.122712   3.887174   4.924099   5.603357
    23  H    2.992947   5.633302   4.606919   5.689354   6.030286
    24  H    4.024754   5.970059   4.619029   5.505871   6.269885
    25  H    3.606947   4.862914   3.439865   4.777549   5.874297
    26  C    2.520204   5.215390   4.580596   4.736964   4.369799
    27  H    3.590457   6.057695   5.219997   5.353623   5.219018
    28  H    2.344440   5.705125   5.202651   5.516210   4.876614
    29  H    2.695934   5.032471   4.687021   4.439592   3.648788
                   16         17         18         19         20
    16  H    0.000000
    17  H    1.793452   0.000000
    18  C    4.498142   4.124310   0.000000
    19  H    4.884335   4.320112   1.095937   0.000000
    20  H    5.264552   4.725266   1.091664   1.764900   0.000000
    21  H    4.762068   4.774643   1.091791   1.773470   1.766405
    22  C    4.633244   4.751218   2.879885   3.970949   2.707335
    23  H    5.214493   4.963390   2.928008   3.939587   2.380256
    24  H    5.057429   5.380205   3.963891   5.057294   3.779547
    25  H    5.063954   5.308143   2.636126   3.700928   2.546098
    26  C    3.133133   3.034747   3.912498   4.754001   4.022282
    27  H    3.761436   3.971832   4.761604   5.688283   4.798999
    28  H    3.915744   3.319725   3.947579   4.722916   3.814821
    29  H    2.357040   2.270388   4.367939   5.052227   4.667072
                   21         22         23         24         25
    21  H    0.000000
    22  C    2.860272   0.000000
    23  H    3.193210   1.093447   0.000000
    24  H    3.842305   1.096908   1.778091   0.000000
    25  H    2.242842   1.089864   1.789198   1.763124   0.000000
    26  C    4.341597   2.516812   2.755682   2.728753   3.479708
    27  H    5.035966   2.735977   3.078031   2.489096   3.733780
    28  H    4.573058   2.761417   2.548225   3.088416   3.775901
    29  H    4.842775   3.480837   3.775044   3.723781   4.340203
                   26         27         28         29
    26  C    0.000000
    27  H    1.095225   0.000000
    28  H    1.094130   1.779361   0.000000
    29  H    1.090810   1.758765   1.785589   0.000000
 Framework group  C1[X(C8H16Cl3FeO)]
 Deg. of freedom    81
                         Standard orientation:                         
 ---------------------------------------------------------------------
 Center     Atomic      Atomic             Coordinates (Angstroms)
 Number     Number       Type             X           Y           Z
 ---------------------------------------------------------------------
      1          8           0       -0.323073   -0.202623   -0.700257
      2          6           0       -1.301968   -1.124500   -0.528812
      3          6           0       -2.682169   -0.323821    0.304231
      4          6           0       -2.379383    0.998126   -0.123819
      5          6           0       -2.786447    1.505048   -1.453669
      6         26           0        1.378306    0.103817   -0.024338
      7         17           0        1.827901    2.142807   -0.753711
      8          6           0       -1.598250    1.927012    0.713899
      9         17           0        2.703929   -1.503010   -0.727043
     10         17           0        1.156486    0.082218    2.205742
     11          1           0       -3.539449   -0.749163   -0.219013
     12          1           0       -2.339635    2.526709    1.271651
     13          1           0       -0.967590    1.425709    1.448136
     14          1           0       -0.999119    2.614635    0.110796
     15          1           0       -3.116865    2.547269   -1.371256
     16          1           0       -1.875734    1.524749   -2.071811
     17          1           0       -3.553254    0.903766   -1.942287
     18          6           0       -2.709891   -0.598424    1.804992
     19          1           0       -3.485387    0.010164    2.283850
     20          1           0       -2.952615   -1.646551    1.990047
     21          1           0       -1.755919   -0.382388    2.290042
     22          6           0       -0.900598   -2.302644    0.350403
     23          1           0       -1.717557   -3.016707    0.485746
     24          1           0       -0.080528   -2.806500   -0.175735
     25          1           0       -0.519365   -1.982417    1.319897
     26          6           0       -1.842686   -1.602073   -1.875808
     27          1           0       -1.021728   -2.125708   -2.377158
     28          1           0       -2.681944   -2.294362   -1.759611
     29          1           0       -2.137712   -0.774069   -2.521745
 ---------------------------------------------------------------------
 Rotational constants (GHZ):           0.5738433           0.3546454           0.3272995
   427 basis functions,  1056 primitive gaussians,   461 cartesian basis functions
    77 alpha electrons       72 beta electrons
       nuclear repulsion energy      1658.7328767411 Hartrees.
 NAtoms=   29 NActive=   29 NUniq=   29 SFac= 1.00D+00 NAtFMM=   60 NAOKFM=F Big=F
 Initial guess from the checkpoint file:  "checkpoint.chk"
 B after Tr=     0.000000    0.000000    0.000000
         Rot=    1.000000    0.000000    0.000000    0.000000 Ang=   0.00 deg.
 Initial guess <Sx>= 0.0000 <Sy>= 0.0000 <Sz>= 2.5000 <S**2>= 8.7620 S= 2.5020
 SCF Done:  E(UB3LYP) =  -3034.31721738     A.U. after   14 cycles
            NFock= 14  Conv=0.65D-08     -V/T= 2.0024
 <Sx>= 0.0000 <Sy>= 0.0000 <Sz>= 2.5000 <S**2>= 8.7613 S= 2.5019
 <L.S>= 0.000000000000E+00
 Annihilation of the first spin contaminant:
 S**2 before annihilation     8.7613,   after     8.7500
 1\1\GINC-HOLY7C06602\SP\UB3LYP\Jul-CC-pVDZ\C8H16Cl3Fe1O1(6)\EKWAN\11-F
 eb-2020\0\\#t pop=none jul-cc-pvdz guess=read ub3lyp\\theory_abbreviat
 ion b3lyp\\0,6\O,0,-0.323073,-0.202623,-0.700257\C,0,-1.301968,-1.1245
 ,-0.528812\C,0,-2.682169,-0.323821,0.304231\C,0,-2.379383,0.998126,-0.
 123819\C,0,-2.786447,1.505048,-1.453669\Fe,0,1.378306,0.103817,-0.0243
 38\Cl,0,1.827901,2.142807,-0.753711\C,0,-1.59825,1.927012,0.713899\Cl,
 0,2.703929,-1.50301,-0.727043\Cl,0,1.156486,0.082218,2.205742\H,0,-3.5
 39449,-0.749163,-0.219013\H,0,-2.339635,2.526709,1.271651\H,0,-0.96759
 ,1.425709,1.448136\H,0,-0.999119,2.614635,0.110796\H,0,-3.116865,2.547
 269,-1.371256\H,0,-1.875734,1.524749,-2.071811\H,0,-3.553254,0.903766,
 -1.942287\C,0,-2.709891,-0.598424,1.804992\H,0,-3.485387,0.010164,2.28
 385\H,0,-2.952615,-1.646551,1.990047\H,0,-1.755919,-0.382388,2.290042\
 C,0,-0.900598,-2.302644,0.350403\H,0,-1.717557,-3.016707,0.485746\H,0,
 -0.080528,-2.8065,-0.175735\H,0,-0.519365,-1.982417,1.319897\C,0,-1.84
 2686,-1.602073,-1.875808\H,0,-1.021728,-2.125708,-2.377158\H,0,-2.6819
 44,-2.294362,-1.759611\H,0,-2.137712,-0.774069,-2.521745\\Version=ES64
 L-G16RevA.03\HF=-3034.3172174\S2=8.761278\S2-1=0.\S2A=8.75004\RMSD=6.5
 21e-09\PG=C01 [X(C8H16Cl3Fe1O1)]\\@


 WHEN YOU'VE SEEN ONE NUCLEAR WAR YOU'VE SEEN THEM ALL.
 Job cpu time:       0 days  0 hours 59 minutes 11.1 seconds.
 Elapsed time:       0 days  0 hours 14 minutes 50.1 seconds.
 File lengths (MBytes):  RWF=    174 Int=      0 D2E=      0 Chk=     13 Scr=      1
 Normal termination of Gaussian 16 at Tue Feb 11 15:02:17 2020.
 Initial command:
 /n/sw/g16_nehalem/g16/l1.exe "/scratch/Gau-240031.inp" -scrdir="/scratch/"
 Entering Link 1 = /n/sw/g16_nehalem/g16/l1.exe PID=    243003.
  
 Copyright (c) 1988,1990,1992,1993,1995,1998,2003,2009,2016,
            Gaussian, Inc.  All Rights Reserved.
  
 This is part of the Gaussian(R) 16 program.  It is based on
 the Gaussian(R) 09 system (copyright 2009, Gaussian, Inc.),
 the Gaussian(R) 03 system (copyright 2003, Gaussian, Inc.),
 the Gaussian(R) 98 system (copyright 1998, Gaussian, Inc.),
 the Gaussian(R) 94 system (copyright 1995, Gaussian, Inc.),
 the Gaussian 92(TM) system (copyright 1992, Gaussian, Inc.),
 the Gaussian 90(TM) system (copyright 1990, Gaussian, Inc.),
 the Gaussian 88(TM) system (copyright 1988, Gaussian, Inc.),
 the Gaussian 86(TM) system (copyright 1986, Carnegie Mellon
 University), and the Gaussian 82(TM) system (copyright 1983,
 Carnegie Mellon University). Gaussian is a federally registered
 trademark of Gaussian, Inc.
  
 This software contains proprietary and confidential information,
 including trade secrets, belonging to Gaussian, Inc.
  
 This software is provided under written license and may be
 used, copied, transmitted, or stored only in accord with that
 written license.
  
 The following legend is applicable only to US Government
 contracts under FAR:
  
                    RESTRICTED RIGHTS LEGEND
  
 Use, reproduction and disclosure by the US Government is
 subject to restrictions as set forth in subparagraphs (a)
 and (c) of the Commercial Computer Software - Restricted
 Rights clause in FAR 52.227-19.
  
 Gaussian, Inc.
 340 Quinnipiac St., Bldg. 40, Wallingford CT 06492
  
  
 ---------------------------------------------------------------
 Warning -- This program may not be used in any manner that
 competes with the business of Gaussian, Inc. or will provide
 assistance to any competitor of Gaussian, Inc.  The licensee
 of this program is prohibited from giving any competitor of
 Gaussian, Inc. access to this program.  By using this program,
 the user acknowledges that Gaussian, Inc. is engaged in the
 business of creating and licensing software in the field of
 computational chemistry and represents and warrants to the
 licensee that it is not a competitor of Gaussian, Inc. and that
 it will not use this program in any manner prohibited above.
 ---------------------------------------------------------------
  

 Cite this work as:
 Gaussian 16, Revision A.03,
 M. J. Frisch, G. W. Trucks, H. B. Schlegel, G. E. Scuseria, 
 M. A. Robb, J. R. Cheeseman, G. Scalmani, V. Barone, 
 G. A. Petersson, H. Nakatsuji, X. Li, M. Caricato, A. V. Marenich, 
 J. Bloino, B. G. Janesko, R. Gomperts, B. Mennucci, H. P. Hratchian, 
 J. V. Ortiz, A. F. Izmaylov, J. L. Sonnenberg, D. Williams-Young, 
 F. Ding, F. Lipparini, F. Egidi, J. Goings, B. Peng, A. Petrone, 
 T. Henderson, D. Ranasinghe, V. G. Zakrzewski, J. Gao, N. Rega, 
 G. Zheng, W. Liang, M. Hada, M. Ehara, K. Toyota, R. Fukuda, 
 J. Hasegawa, M. Ishida, T. Nakajima, Y. Honda, O. Kitao, H. Nakai, 
 T. Vreven, K. Throssell, J. A. Montgomery, Jr., J. E. Peralta, 
 F. Ogliaro, M. J. Bearpark, J. J. Heyd, E. N. Brothers, K. N. Kudin, 
 V. N. Staroverov, T. A. Keith, R. Kobayashi, J. Normand, 
 K. Raghavachari, A. P. Rendell, J. C. Burant, S. S. Iyengar, 
 J. Tomasi, M. Cossi, J. M. Millam, M. Klene, C. Adamo, R. Cammi, 
 J. W. Ochterski, R. L. Martin, K. Morokuma, O. Farkas, 
 J. B. Foresman, and D. J. Fox, Gaussian, Inc., Wallingford CT, 2016.
 
 ******************************************
 Gaussian 16:  ES64L-G16RevA.03 25-Dec-2016
                11-Feb-2020 
 ******************************************
 %chk=checkpoint.chk
 %mem=3GB
 %nprocshared=4
 Will use up to    4 processors via shared memory.
 -------------------------------------------------------------------
 #t pop=none jul-cc-pvdz guess=read ub3lyp empiricaldispersion=gd3bj
 -------------------------------------------------------------------
 ------------------------------
 theory_abbreviation b3lyp_d3bj
 ------------------------------
 Symbolic Z-matrix:
 Charge =  0 Multiplicity = 6
 O                    -0.32307  -0.20262  -0.70026 
 C                    -1.30197  -1.1245   -0.52881 
 C                    -2.68217  -0.32382   0.30423 
 C                    -2.37938   0.99813  -0.12382 
 C                    -2.78645   1.50505  -1.45367 
 Fe                    1.37831   0.10382  -0.02434 
 Cl                    1.8279    2.14281  -0.75371 
 C                    -1.59825   1.92701   0.7139 
 Cl                    2.70393  -1.50301  -0.72704 
 Cl                    1.15649   0.08222   2.20574 
 H                    -3.53945  -0.74916  -0.21901 
 H                    -2.33964   2.52671   1.27165 
 H                    -0.96759   1.42571   1.44814 
 H                    -0.99912   2.61464   0.1108 
 H                    -3.11687   2.54727  -1.37126 
 H                    -1.87573   1.52475  -2.07181 
 H                    -3.55325   0.90377  -1.94229 
 C                    -2.70989  -0.59842   1.80499 
 H                    -3.48539   0.01016   2.28385 
 H                    -2.95262  -1.64655   1.99005 
 H                    -1.75592  -0.38239   2.29004 
 C                    -0.9006   -2.30264   0.3504 
 H                    -1.71756  -3.01671   0.48575 
 H                    -0.08053  -2.8065   -0.17574 
 H                    -0.51937  -1.98242   1.3199 
 C                    -1.84269  -1.60207  -1.87581 
 H                    -1.02173  -2.12571  -2.37716 
 H                    -2.68194  -2.29436  -1.75961 
 H                    -2.13771  -0.77407  -2.52175 
 
                    Distance matrix (angstroms):
                    1          2          3          4          5
     1  O    0.000000
     2  C    1.355539   0.000000
     3  C    2.566908   1.800001   0.000000
     4  C    2.449998   2.414619   1.422129   0.000000
     5  C    3.090628   3.158095   2.538867   1.480261   0.000000
     6  Fe   1.856196   2.991175   4.096131   3.863924   4.620779
     7  Cl   3.182859   4.530116   5.248259   4.405485   4.710508
     8  C    2.856792   3.308147   2.531592   1.474710   2.507632
     9  Cl   3.294612   4.028620   5.609284   5.697335   6.302430
    10  Cl   3.273387   3.870136   4.303009   4.332218   5.564392
    11  H    3.297784   2.289798   1.090701   2.099484   2.678219
    12  H    3.924818   4.201160   3.029646   2.070141   2.944622
    13  H    2.771725   3.244025   2.703545   2.155697   3.425640
    14  H    3.008619   3.805515   3.391843   2.138522   2.621693
    15  H    3.977112   4.181561   3.352518   2.121279   1.096445
    16  H    2.697356   3.119066   3.116589   2.079824   1.100857
    17  H    3.633291   3.343660   2.704182   2.166496   1.090083
    18  C    3.482791   2.775904   1.525929   2.525573   3.879346
    19  H    4.353206   3.737091   2.162313   2.827752   4.085614
    20  H    4.029535   3.056440   2.159799   3.433852   4.671121
    21  H    3.320731   2.950041   2.191989   2.849781   4.317381
    22  C    2.418162   1.523857   2.663056   3.647845   4.616234
    23  H    3.357120   2.186890   2.866192   4.114422   5.034891
    24  H    2.667232   2.108484   3.628030   4.445516   5.248291
    25  H    2.699485   2.183166   2.908649   3.798371   4.999474
    26  C    2.376890   1.528022   2.662936   3.180966   3.274613
    27  H    2.645444   2.120692   3.632314   4.084006   4.141190
    28  H    3.325940   2.188099   2.853502   3.688880   3.813140
    29  H    2.633872   2.189304   2.912953   2.991510   2.599234
                    6          7          8          9         10
     6  Fe   0.000000
     7  Cl   2.211696   0.000000
     8  C    3.567761   3.733491   0.000000
     9  Cl   2.198400   3.749682   5.687716   0.000000
    10  Cl   2.241189   3.668131   3.635578   3.675426   0.000000
    11  H    4.994976   6.120281   3.435184   6.309211   5.349994
    12  H    4.623103   4.649498   1.104706   6.758029   4.367027
    13  H    3.069007   3.630032   1.090019   5.175795   2.625002
    14  H    3.460436   2.993666   1.093397   5.600852   3.930467
    15  H    5.290672   4.999566   2.653070   7.120492   6.093679
    16  H    4.098777   3.979484   2.828249   5.652348   5.438080
    17  H    5.351517   5.648430   3.453172   6.813349   6.329513
    18  C    4.533536   5.886668   2.967163   6.044744   3.946232
    19  H    5.384423   6.481201   3.114537   7.047184   4.643089
    20  H    5.087083   6.688855   4.029046   6.276916   4.463169
    21  H    3.926336   5.337116   2.800431   5.499895   2.950435
    22  C    3.335399   5.331586   4.302190   3.846156   3.655331
    23  H    4.425181   6.381780   4.950419   4.828216   4.563096
    24  H    3.258997   5.335897   5.049858   3.123496   3.942883
    25  H    3.124179   5.179477   4.100593   3.848301   2.802841
    26  C    4.088128   5.362503   4.384150   4.690542   5.337689
    27  H    4.033201   5.382953   5.129479   4.122033   5.533762
    28  H    5.024745   6.406169   5.011252   5.540764   6.008802
    29  H    4.401149   5.230697   4.249265   5.214767   5.825298
                   11         12         13         14         15
    11  H    0.000000
    12  H    3.793807   0.000000
    13  H    3.758179   1.768009   0.000000
    14  H    4.228142   1.775471   1.789698   0.000000
    15  H    3.517486   2.754899   3.718367   2.585704   0.000000
    16  H    3.372163   3.521060   3.636559   2.592311   1.754061
    17  H    2.387894   3.799502   4.295701   3.696732   1.793771
    18  C    2.192598   3.191864   2.694452   4.015070   4.488827
    19  H    2.616070   2.944536   3.006907   4.205587   4.464584
    20  H    2.455530   4.278777   3.697671   5.050291   5.377124
    21  H    3.100139   3.136987   2.144641   3.782064   4.882639
    22  C    3.114654   5.122712   3.887174   4.924099   5.603357
    23  H    2.992947   5.633302   4.606919   5.689354   6.030286
    24  H    4.024754   5.970059   4.619029   5.505871   6.269885
    25  H    3.606947   4.862914   3.439865   4.777549   5.874297
    26  C    2.520204   5.215390   4.580596   4.736964   4.369799
    27  H    3.590457   6.057695   5.219997   5.353623   5.219018
    28  H    2.344440   5.705125   5.202651   5.516210   4.876614
    29  H    2.695934   5.032471   4.687021   4.439592   3.648788
                   16         17         18         19         20
    16  H    0.000000
    17  H    1.793452   0.000000
    18  C    4.498142   4.124310   0.000000
    19  H    4.884335   4.320112   1.095937   0.000000
    20  H    5.264552   4.725266   1.091664   1.764900   0.000000
    21  H    4.762068   4.774643   1.091791   1.773470   1.766405
    22  C    4.633244   4.751218   2.879885   3.970949   2.707335
    23  H    5.214493   4.963390   2.928008   3.939587   2.380256
    24  H    5.057429   5.380205   3.963891   5.057294   3.779547
    25  H    5.063954   5.308143   2.636126   3.700928   2.546098
    26  C    3.133133   3.034747   3.912498   4.754001   4.022282
    27  H    3.761436   3.971832   4.761604   5.688283   4.798999
    28  H    3.915744   3.319725   3.947579   4.722916   3.814821
    29  H    2.357040   2.270388   4.367939   5.052227   4.667072
                   21         22         23         24         25
    21  H    0.000000
    22  C    2.860272   0.000000
    23  H    3.193210   1.093447   0.000000
    24  H    3.842305   1.096908   1.778091   0.000000
    25  H    2.242842   1.089864   1.789198   1.763124   0.000000
    26  C    4.341597   2.516812   2.755682   2.728753   3.479708
    27  H    5.035966   2.735977   3.078031   2.489096   3.733780
    28  H    4.573058   2.761417   2.548225   3.088416   3.775901
    29  H    4.842775   3.480837   3.775044   3.723781   4.340203
                   26         27         28         29
    26  C    0.000000
    27  H    1.095225   0.000000
    28  H    1.094130   1.779361   0.000000
    29  H    1.090810   1.758765   1.785589   0.000000
 Framework group  C1[X(C8H16Cl3FeO)]
 Deg. of freedom    81
                         Standard orientation:                         
 ---------------------------------------------------------------------
 Center     Atomic      Atomic             Coordinates (Angstroms)
 Number     Number       Type             X           Y           Z
 ---------------------------------------------------------------------
      1          8           0       -0.323073   -0.202623   -0.700257
      2          6           0       -1.301968   -1.124500   -0.528812
      3          6           0       -2.682169   -0.323821    0.304231
      4          6           0       -2.379383    0.998126   -0.123819
      5          6           0       -2.786447    1.505048   -1.453669
      6         26           0        1.378306    0.103817   -0.024338
      7         17           0        1.827901    2.142807   -0.753711
      8          6           0       -1.598250    1.927012    0.713899
      9         17           0        2.703929   -1.503010   -0.727043
     10         17           0        1.156486    0.082218    2.205742
     11          1           0       -3.539449   -0.749163   -0.219013
     12          1           0       -2.339635    2.526709    1.271651
     13          1           0       -0.967590    1.425709    1.448136
     14          1           0       -0.999119    2.614635    0.110796
     15          1           0       -3.116865    2.547269   -1.371256
     16          1           0       -1.875734    1.524749   -2.071811
     17          1           0       -3.553254    0.903766   -1.942287
     18          6           0       -2.709891   -0.598424    1.804992
     19          1           0       -3.485387    0.010164    2.283850
     20          1           0       -2.952615   -1.646551    1.990047
     21          1           0       -1.755919   -0.382388    2.290042
     22          6           0       -0.900598   -2.302644    0.350403
     23          1           0       -1.717557   -3.016707    0.485746
     24          1           0       -0.080528   -2.806500   -0.175735
     25          1           0       -0.519365   -1.982417    1.319897
     26          6           0       -1.842686   -1.602073   -1.875808
     27          1           0       -1.021728   -2.125708   -2.377158
     28          1           0       -2.681944   -2.294362   -1.759611
     29          1           0       -2.137712   -0.774069   -2.521745
 ---------------------------------------------------------------------
 Rotational constants (GHZ):           0.5738433           0.3546454           0.3272995
   427 basis functions,  1056 primitive gaussians,   461 cartesian basis functions
    77 alpha electrons       72 beta electrons
       nuclear repulsion energy      1658.7328767411 Hartrees.
 NAtoms=   29 NActive=   29 NUniq=   29 SFac= 1.00D+00 NAtFMM=   60 NAOKFM=F Big=F
 Nuclear repulsion after empirical dispersion term =     1658.6635440195 Hartrees.
 Initial guess from the checkpoint file:  "checkpoint.chk"
 B after Tr=     0.000000    0.000000    0.000000
         Rot=    1.000000    0.000000    0.000000    0.000000 Ang=   0.00 deg.
 Initial guess <Sx>= 0.0000 <Sy>= 0.0000 <Sz>= 2.5000 <S**2>= 8.7613 S= 2.5019
 SCF Done:  E(UB3LYP) =  -3034.38655010     A.U. after    1 cycles
            NFock=  1  Conv=0.36D-08     -V/T= 2.0024
 <Sx>= 0.0000 <Sy>= 0.0000 <Sz>= 2.5000 <S**2>= 8.7613 S= 2.5019
 <L.S>= 0.000000000000E+00
 Annihilation of the first spin contaminant:
 S**2 before annihilation     8.7613,   after     8.7500
 1\1\GINC-HOLY7C06602\SP\UB3LYP\Jul-CC-pVDZ\C8H16Cl3Fe1O1(6)\EKWAN\11-F
 eb-2020\0\\#t pop=none jul-cc-pvdz guess=read ub3lyp empiricaldispersi
 on=gd3bj\\theory_abbreviation b3lyp_d3bj\\0,6\O,0,-0.323073,-0.202623,
 -0.700257\C,0,-1.301968,-1.1245,-0.528812\C,0,-2.682169,-0.323821,0.30
 4231\C,0,-2.379383,0.998126,-0.123819\C,0,-2.786447,1.505048,-1.453669
 \Fe,0,1.378306,0.103817,-0.024338\Cl,0,1.827901,2.142807,-0.753711\C,0
 ,-1.59825,1.927012,0.713899\Cl,0,2.703929,-1.50301,-0.727043\Cl,0,1.15
 6486,0.082218,2.205742\H,0,-3.539449,-0.749163,-0.219013\H,0,-2.339635
 ,2.526709,1.271651\H,0,-0.96759,1.425709,1.448136\H,0,-0.999119,2.6146
 35,0.110796\H,0,-3.116865,2.547269,-1.371256\H,0,-1.875734,1.524749,-2
 .071811\H,0,-3.553254,0.903766,-1.942287\C,0,-2.709891,-0.598424,1.804
 992\H,0,-3.485387,0.010164,2.28385\H,0,-2.952615,-1.646551,1.990047\H,
 0,-1.755919,-0.382388,2.290042\C,0,-0.900598,-2.302644,0.350403\H,0,-1
 .717557,-3.016707,0.485746\H,0,-0.080528,-2.8065,-0.175735\H,0,-0.5193
 65,-1.982417,1.319897\C,0,-1.842686,-1.602073,-1.875808\H,0,-1.021728,
 -2.125708,-2.377158\H,0,-2.681944,-2.294362,-1.759611\H,0,-2.137712,-0
 .774069,-2.521745\\Version=ES64L-G16RevA.03\HF=-3034.3865501\S2=8.7612
 78\S2-1=0.\S2A=8.75004\RMSD=3.634e-09\PG=C01 [X(C8H16Cl3Fe1O1)]\\@


 MATERIAL COPIED FROM ONE SCHOLARLY BOOK WITHOUT CREDIT COMPRISES PLAGIARISM.
 MATERIAL COPIED FROM TWO SCHOLARLY BOOKS COMPRISES AN ESSAY.
 MATERIAL COPIED FROM THREE SCHOLARLY BOOKS COMPRISES A DISSERTATION.
 MATERIAL COPIED FROM FOUR SCHOLARLY BOOKS COMPRISES A FIFTH SCHOLARLY BOOK.

                               -- C&EN, 25 FEB 1980
 Job cpu time:       0 days  0 hours  4 minutes 38.6 seconds.
 Elapsed time:       0 days  0 hours  1 minutes 10.0 seconds.
 File lengths (MBytes):  RWF=    170 Int=      0 D2E=      0 Chk=     13 Scr=      1
 Normal termination of Gaussian 16 at Tue Feb 11 15:03:28 2020.
 Initial command:
 /n/sw/g16_nehalem/g16/l1.exe "/scratch/Gau-240031.inp" -scrdir="/scratch/"
 Entering Link 1 = /n/sw/g16_nehalem/g16/l1.exe PID=    243118.
  
 Copyright (c) 1988,1990,1992,1993,1995,1998,2003,2009,2016,
            Gaussian, Inc.  All Rights Reserved.
  
 This is part of the Gaussian(R) 16 program.  It is based on
 the Gaussian(R) 09 system (copyright 2009, Gaussian, Inc.),
 the Gaussian(R) 03 system (copyright 2003, Gaussian, Inc.),
 the Gaussian(R) 98 system (copyright 1998, Gaussian, Inc.),
 the Gaussian(R) 94 system (copyright 1995, Gaussian, Inc.),
 the Gaussian 92(TM) system (copyright 1992, Gaussian, Inc.),
 the Gaussian 90(TM) system (copyright 1990, Gaussian, Inc.),
 the Gaussian 88(TM) system (copyright 1988, Gaussian, Inc.),
 the Gaussian 86(TM) system (copyright 1986, Carnegie Mellon
 University), and the Gaussian 82(TM) system (copyright 1983,
 Carnegie Mellon University). Gaussian is a federally registered
 trademark of Gaussian, Inc.
  
 This software contains proprietary and confidential information,
 including trade secrets, belonging to Gaussian, Inc.
  
 This software is provided under written license and may be
 used, copied, transmitted, or stored only in accord with that
 written license.
  
 The following legend is applicable only to US Government
 contracts under FAR:
  
                    RESTRICTED RIGHTS LEGEND
  
 Use, reproduction and disclosure by the US Government is
 subject to restrictions as set forth in subparagraphs (a)
 and (c) of the Commercial Computer Software - Restricted
 Rights clause in FAR 52.227-19.
  
 Gaussian, Inc.
 340 Quinnipiac St., Bldg. 40, Wallingford CT 06492
  
  
 ---------------------------------------------------------------
 Warning -- This program may not be used in any manner that
 competes with the business of Gaussian, Inc. or will provide
 assistance to any competitor of Gaussian, Inc.  The licensee
 of this program is prohibited from giving any competitor of
 Gaussian, Inc. access to this program.  By using this program,
 the user acknowledges that Gaussian, Inc. is engaged in the
 business of creating and licensing software in the field of
 computational chemistry and represents and warrants to the
 licensee that it is not a competitor of Gaussian, Inc. and that
 it will not use this program in any manner prohibited above.
 ---------------------------------------------------------------
  

 Cite this work as:
 Gaussian 16, Revision A.03,
 M. J. Frisch, G. W. Trucks, H. B. Schlegel, G. E. Scuseria, 
 M. A. Robb, J. R. Cheeseman, G. Scalmani, V. Barone, 
 G. A. Petersson, H. Nakatsuji, X. Li, M. Caricato, A. V. Marenich, 
 J. Bloino, B. G. Janesko, R. Gomperts, B. Mennucci, H. P. Hratchian, 
 J. V. Ortiz, A. F. Izmaylov, J. L. Sonnenberg, D. Williams-Young, 
 F. Ding, F. Lipparini, F. Egidi, J. Goings, B. Peng, A. Petrone, 
 T. Henderson, D. Ranasinghe, V. G. Zakrzewski, J. Gao, N. Rega, 
 G. Zheng, W. Liang, M. Hada, M. Ehara, K. Toyota, R. Fukuda, 
 J. Hasegawa, M. Ishida, T. Nakajima, Y. Honda, O. Kitao, H. Nakai, 
 T. Vreven, K. Throssell, J. A. Montgomery, Jr., J. E. Peralta, 
 F. Ogliaro, M. J. Bearpark, J. J. Heyd, E. N. Brothers, K. N. Kudin, 
 V. N. Staroverov, T. A. Keith, R. Kobayashi, J. Normand, 
 K. Raghavachari, A. P. Rendell, J. C. Burant, S. S. Iyengar, 
 J. Tomasi, M. Cossi, J. M. Millam, M. Klene, C. Adamo, R. Cammi, 
 J. W. Ochterski, R. L. Martin, K. Morokuma, O. Farkas, 
 J. B. Foresman, and D. J. Fox, Gaussian, Inc., Wallingford CT, 2016.
 
 ******************************************
 Gaussian 16:  ES64L-G16RevA.03 25-Dec-2016
                11-Feb-2020 
 ******************************************
 %chk=checkpoint.chk
 %mem=3GB
 %nprocshared=4
 Will use up to    4 processors via shared memory.
 ----------------------------------------
 #t pop=none jul-cc-pvdz guess=read ub97d
 ----------------------------------------
 ------------------------
 theory_abbreviation b97d
 ------------------------
 Symbolic Z-matrix:
 Charge =  0 Multiplicity = 6
 O                    -0.32307  -0.20262  -0.70026 
 C                    -1.30197  -1.1245   -0.52881 
 C                    -2.68217  -0.32382   0.30423 
 C                    -2.37938   0.99813  -0.12382 
 C                    -2.78645   1.50505  -1.45367 
 Fe                    1.37831   0.10382  -0.02434 
 Cl                    1.8279    2.14281  -0.75371 
 C                    -1.59825   1.92701   0.7139 
 Cl                    2.70393  -1.50301  -0.72704 
 Cl                    1.15649   0.08222   2.20574 
 H                    -3.53945  -0.74916  -0.21901 
 H                    -2.33964   2.52671   1.27165 
 H                    -0.96759   1.42571   1.44814 
 H                    -0.99912   2.61464   0.1108 
 H                    -3.11687   2.54727  -1.37126 
 H                    -1.87573   1.52475  -2.07181 
 H                    -3.55325   0.90377  -1.94229 
 C                    -2.70989  -0.59842   1.80499 
 H                    -3.48539   0.01016   2.28385 
 H                    -2.95262  -1.64655   1.99005 
 H                    -1.75592  -0.38239   2.29004 
 C                    -0.9006   -2.30264   0.3504 
 H                    -1.71756  -3.01671   0.48575 
 H                    -0.08053  -2.8065   -0.17574 
 H                    -0.51937  -1.98242   1.3199 
 C                    -1.84269  -1.60207  -1.87581 
 H                    -1.02173  -2.12571  -2.37716 
 H                    -2.68194  -2.29436  -1.75961 
 H                    -2.13771  -0.77407  -2.52175 
 
                    Distance matrix (angstroms):
                    1          2          3          4          5
     1  O    0.000000
     2  C    1.355539   0.000000
     3  C    2.566908   1.800001   0.000000
     4  C    2.449998   2.414619   1.422129   0.000000
     5  C    3.090628   3.158095   2.538867   1.480261   0.000000
     6  Fe   1.856196   2.991175   4.096131   3.863924   4.620779
     7  Cl   3.182859   4.530116   5.248259   4.405485   4.710508
     8  C    2.856792   3.308147   2.531592   1.474710   2.507632
     9  Cl   3.294612   4.028620   5.609284   5.697335   6.302430
    10  Cl   3.273387   3.870136   4.303009   4.332218   5.564392
    11  H    3.297784   2.289798   1.090701   2.099484   2.678219
    12  H    3.924818   4.201160   3.029646   2.070141   2.944622
    13  H    2.771725   3.244025   2.703545   2.155697   3.425640
    14  H    3.008619   3.805515   3.391843   2.138522   2.621693
    15  H    3.977112   4.181561   3.352518   2.121279   1.096445
    16  H    2.697356   3.119066   3.116589   2.079824   1.100857
    17  H    3.633291   3.343660   2.704182   2.166496   1.090083
    18  C    3.482791   2.775904   1.525929   2.525573   3.879346
    19  H    4.353206   3.737091   2.162313   2.827752   4.085614
    20  H    4.029535   3.056440   2.159799   3.433852   4.671121
    21  H    3.320731   2.950041   2.191989   2.849781   4.317381
    22  C    2.418162   1.523857   2.663056   3.647845   4.616234
    23  H    3.357120   2.186890   2.866192   4.114422   5.034891
    24  H    2.667232   2.108484   3.628030   4.445516   5.248291
    25  H    2.699485   2.183166   2.908649   3.798371   4.999474
    26  C    2.376890   1.528022   2.662936   3.180966   3.274613
    27  H    2.645444   2.120692   3.632314   4.084006   4.141190
    28  H    3.325940   2.188099   2.853502   3.688880   3.813140
    29  H    2.633872   2.189304   2.912953   2.991510   2.599234
                    6          7          8          9         10
     6  Fe   0.000000
     7  Cl   2.211696   0.000000
     8  C    3.567761   3.733491   0.000000
     9  Cl   2.198400   3.749682   5.687716   0.000000
    10  Cl   2.241189   3.668131   3.635578   3.675426   0.000000
    11  H    4.994976   6.120281   3.435184   6.309211   5.349994
    12  H    4.623103   4.649498   1.104706   6.758029   4.367027
    13  H    3.069007   3.630032   1.090019   5.175795   2.625002
    14  H    3.460436   2.993666   1.093397   5.600852   3.930467
    15  H    5.290672   4.999566   2.653070   7.120492   6.093679
    16  H    4.098777   3.979484   2.828249   5.652348   5.438080
    17  H    5.351517   5.648430   3.453172   6.813349   6.329513
    18  C    4.533536   5.886668   2.967163   6.044744   3.946232
    19  H    5.384423   6.481201   3.114537   7.047184   4.643089
    20  H    5.087083   6.688855   4.029046   6.276916   4.463169
    21  H    3.926336   5.337116   2.800431   5.499895   2.950435
    22  C    3.335399   5.331586   4.302190   3.846156   3.655331
    23  H    4.425181   6.381780   4.950419   4.828216   4.563096
    24  H    3.258997   5.335897   5.049858   3.123496   3.942883
    25  H    3.124179   5.179477   4.100593   3.848301   2.802841
    26  C    4.088128   5.362503   4.384150   4.690542   5.337689
    27  H    4.033201   5.382953   5.129479   4.122033   5.533762
    28  H    5.024745   6.406169   5.011252   5.540764   6.008802
    29  H    4.401149   5.230697   4.249265   5.214767   5.825298
                   11         12         13         14         15
    11  H    0.000000
    12  H    3.793807   0.000000
    13  H    3.758179   1.768009   0.000000
    14  H    4.228142   1.775471   1.789698   0.000000
    15  H    3.517486   2.754899   3.718367   2.585704   0.000000
    16  H    3.372163   3.521060   3.636559   2.592311   1.754061
    17  H    2.387894   3.799502   4.295701   3.696732   1.793771
    18  C    2.192598   3.191864   2.694452   4.015070   4.488827
    19  H    2.616070   2.944536   3.006907   4.205587   4.464584
    20  H    2.455530   4.278777   3.697671   5.050291   5.377124
    21  H    3.100139   3.136987   2.144641   3.782064   4.882639
    22  C    3.114654   5.122712   3.887174   4.924099   5.603357
    23  H    2.992947   5.633302   4.606919   5.689354   6.030286
    24  H    4.024754   5.970059   4.619029   5.505871   6.269885
    25  H    3.606947   4.862914   3.439865   4.777549   5.874297
    26  C    2.520204   5.215390   4.580596   4.736964   4.369799
    27  H    3.590457   6.057695   5.219997   5.353623   5.219018
    28  H    2.344440   5.705125   5.202651   5.516210   4.876614
    29  H    2.695934   5.032471   4.687021   4.439592   3.648788
                   16         17         18         19         20
    16  H    0.000000
    17  H    1.793452   0.000000
    18  C    4.498142   4.124310   0.000000
    19  H    4.884335   4.320112   1.095937   0.000000
    20  H    5.264552   4.725266   1.091664   1.764900   0.000000
    21  H    4.762068   4.774643   1.091791   1.773470   1.766405
    22  C    4.633244   4.751218   2.879885   3.970949   2.707335
    23  H    5.214493   4.963390   2.928008   3.939587   2.380256
[...]
   427 basis functions,  1056 primitive gaussians,   461 cartesian basis functions
    77 alpha electrons       72 beta electrons
       nuclear repulsion energy      1658.7328767411 Hartrees.
 NAtoms=   29 NActive=   29 NUniq=   29 SFac= 1.00D+00 NAtFMM=   60 NAOKFM=F Big=F
 Nuclear repulsion after empirical dispersion term =     1658.7304823968 Hartrees.
 Initial guess from the checkpoint file:  "checkpoint.chk"
 B after Tr=     0.000000    0.000000    0.000000
         Rot=    1.000000    0.000000    0.000000    0.000000 Ang=   0.00 deg.
 Initial guess <Sx>= 0.0000 <Sy>= 0.0000 <Sz>= 2.5000 <S**2>= 8.7610 S= 2.5018
 SCF Done:  E(UM06L) =  -3034.18466513     A.U. after   18 cycles
            NFock= 18  Conv=0.18D-08     -V/T= 2.0020
 <Sx>= 0.0000 <Sy>= 0.0000 <Sz>= 2.5000 <S**2>= 8.7613 S= 2.5019
 <L.S>= 0.000000000000E+00
 Annihilation of the first spin contaminant:
 S**2 before annihilation     8.7613,   after     8.7500
 1\1\GINC-HOLY7C06602\SP\UM06L\Jul-CC-pVDZ\C8H16Cl3Fe1O1(6)\EKWAN\11-Fe
 b-2020\0\\#t pop=none jul-cc-pvdz guess=read um06l empiricaldispersion
 =gd3\\theory_abbreviation m06l_d3\\0,6\O,0,-0.323073,-0.202623,-0.7002
 57\C,0,-1.301968,-1.1245,-0.528812\C,0,-2.682169,-0.323821,0.304231\C,
 0,-2.379383,0.998126,-0.123819\C,0,-2.786447,1.505048,-1.453669\Fe,0,1
 .378306,0.103817,-0.024338\Cl,0,1.827901,2.142807,-0.753711\C,0,-1.598
 25,1.927012,0.713899\Cl,0,2.703929,-1.50301,-0.727043\Cl,0,1.156486,0.
 082218,2.205742\H,0,-3.539449,-0.749163,-0.219013\H,0,-2.339635,2.5267
 09,1.271651\H,0,-0.96759,1.425709,1.448136\H,0,-0.999119,2.614635,0.11
 0796\H,0,-3.116865,2.547269,-1.371256\H,0,-1.875734,1.524749,-2.071811
 \H,0,-3.553254,0.903766,-1.942287\C,0,-2.709891,-0.598424,1.804992\H,0
 ,-3.485387,0.010164,2.28385\H,0,-2.952615,-1.646551,1.990047\H,0,-1.75
 5919,-0.382388,2.290042\C,0,-0.900598,-2.302644,0.350403\H,0,-1.717557
 ,-3.016707,0.485746\H,0,-0.080528,-2.8065,-0.175735\H,0,-0.519365,-1.9
 82417,1.319897\C,0,-1.842686,-1.602073,-1.875808\H,0,-1.021728,-2.1257
 08,-2.377158\H,0,-2.681944,-2.294362,-1.759611\H,0,-2.137712,-0.774069
 ,-2.521745\\Version=ES64L-G16RevA.03\HF=-3034.1846651\S2=8.761318\S2-1
 =0.\S2A=8.750041\RMSD=1.761e-09\PG=C01 [X(C8H16Cl3Fe1O1)]\\@


 CONFIDENCE: THAT QUIET ASSURED FEELING YOU HAVE
 JUST BEFORE YOU FALL FLAT ON YOUR FACE.
 Job cpu time:       0 days  1 hours 18 minutes 51.9 seconds.
 Elapsed time:       0 days  0 hours 19 minutes 46.1 seconds.
 File lengths (MBytes):  RWF=    174 Int=      0 D2E=      0 Chk=     13 Scr=      1
 Normal termination of Gaussian 16 at Tue Feb 11 23:58:53 2020.
 Initial command:
 /n/sw/g16_nehalem/g16/l1.exe "/scratch/Gau-240031.inp" -scrdir="/scratch/"
 Entering Link 1 = /n/sw/g16_nehalem/g16/l1.exe PID=    287572.
  
 Copyright (c) 1988,1990,1992,1993,1995,1998,2003,2009,2016,
            Gaussian, Inc.  All Rights Reserved.
  
 This is part of the Gaussian(R) 16 program.  It is based on
 the Gaussian(R) 09 system (copyright 2009, Gaussian, Inc.),
 the Gaussian(R) 03 system (copyright 2003, Gaussian, Inc.),
 the Gaussian(R) 98 system (copyright 1998, Gaussian, Inc.),
 the Gaussian(R) 94 system (copyright 1995, Gaussian, Inc.),
 the Gaussian 92(TM) system (copyright 1992, Gaussian, Inc.),
 the Gaussian 90(TM) system (copyright 1990, Gaussian, Inc.),
 the Gaussian 88(TM) system (copyright 1988, Gaussian, Inc.),
 the Gaussian 86(TM) system (copyright 1986, Carnegie Mellon
 University), and the Gaussian 82(TM) system (copyright 1983,
 Carnegie Mellon University). Gaussian is a federally registered
 trademark of Gaussian, Inc.
  
 This software contains proprietary and confidential information,
 including trade secrets, belonging to Gaussian, Inc.
  
 This software is provided under written license and may be
 used, copied, transmitted, or stored only in accord with that
 written license.
  
 The following legend is applicable only to US Government
 contracts under FAR:
  
                    RESTRICTED RIGHTS LEGEND
  
 Use, reproduction and disclosure by the US Government is
 subject to restrictions as set forth in subparagraphs (a)
 and (c) of the Commercial Computer Software - Restricted
 Rights clause in FAR 52.227-19.
  
 Gaussian, Inc.
 340 Quinnipiac St., Bldg. 40, Wallingford CT 06492
  
  
 ---------------------------------------------------------------
 Warning -- This program may not be used in any manner that
 competes with the business of Gaussian, Inc. or will provide
 assistance to any competitor of Gaussian, Inc.  The licensee
 of this program is prohibited from giving any competitor of
 Gaussian, Inc. access to this program.  By using this program,
 the user acknowledges that Gaussian, Inc. is engaged in the
 business of creating and licensing software in the field of
 computational chemistry and represents and warrants to the
 licensee that it is not a competitor of Gaussian, Inc. and that
 it will not use this program in any manner prohibited above.
 ---------------------------------------------------------------
  

 Cite this work as:
 Gaussian 16, Revision A.03,
 M. J. Frisch, G. W. Trucks, H. B. Schlegel, G. E. Scuseria, 
 M. A. Robb, J. R. Cheeseman, G. Scalmani, V. Barone, 
 G. A. Petersson, H. Nakatsuji, X. Li, M. Caricato, A. V. Marenich, 
 J. Bloino, B. G. Janesko, R. Gomperts, B. Mennucci, H. P. Hratchian, 
 J. V. Ortiz, A. F. Izmaylov, J. L. Sonnenberg, D. Williams-Young, 
 F. Ding, F. Lipparini, F. Egidi, J. Goings, B. Peng, A. Petrone, 
 T. Henderson, D. Ranasinghe, V. G. Zakrzewski, J. Gao, N. Rega, 
 G. Zheng, W. Liang, M. Hada, M. Ehara, K. Toyota, R. Fukuda, 
 J. Hasegawa, M. Ishida, T. Nakajima, Y. Honda, O. Kitao, H. Nakai, 
 T. Vreven, K. Throssell, J. A. Montgomery, Jr., J. E. Peralta, 
 F. Ogliaro, M. J. Bearpark, J. J. Heyd, E. N. Brothers, K. N. Kudin, 
 V. N. Staroverov, T. A. Keith, R. Kobayashi, J. Normand, 
 K. Raghavachari, A. P. Rendell, J. C. Burant, S. S. Iyengar, 
 J. Tomasi, M. Cossi, J. M. Millam, M. Klene, C. Adamo, R. Cammi, 
 J. W. Ochterski, R. L. Martin, K. Morokuma, O. Farkas, 
 J. B. Foresman, and D. J. Fox, Gaussian, Inc., Wallingford CT, 2016.
 
 ******************************************
 Gaussian 16:  ES64L-G16RevA.03 25-Dec-2016
                11-Feb-2020 
 ******************************************
 %chk=checkpoint.chk
 %mem=3GB
 %nprocshared=4
 Will use up to    4 processors via shared memory.
 -------------------------------------------------------------------
 #t pop=none jul-cc-pvdz guess=read ub97d3 empiricaldispersion=gd3bj
 -------------------------------------------------------------------
 ------------------------------
 theory_abbreviation b97d3_d3bj
 ------------------------------
 Symbolic Z-matrix:
 Charge =  0 Multiplicity = 6
 O                    -0.32307  -0.20262  -0.70026 
 C                    -1.30197  -1.1245   -0.52881 
 C                    -2.68217  -0.32382   0.30423 
 C                    -2.37938   0.99813  -0.12382 
 C                    -2.78645   1.50505  -1.45367 
 Fe                    1.37831   0.10382  -0.02434 
 Cl                    1.8279    2.14281  -0.75371 
 C                    -1.59825   1.92701   0.7139 
 Cl                    2.70393  -1.50301  -0.72704 
 Cl                    1.15649   0.08222   2.20574 
 H                    -3.53945  -0.74916  -0.21901 
 H                    -2.33964   2.52671   1.27165 
 H                    -0.96759   1.42571   1.44814 
 H                    -0.99912   2.61464   0.1108 
 H                    -3.11687   2.54727  -1.37126 
 H                    -1.87573   1.52475  -2.07181 
 H                    -3.55325   0.90377  -1.94229 
 C                    -2.70989  -0.59842   1.80499 
 H                    -3.48539   0.01016   2.28385 
 H                    -2.95262  -1.64655   1.99005 
 H                    -1.75592  -0.38239   2.29004 
 C                    -0.9006   -2.30264   0.3504 
 H                    -1.71756  -3.01671   0.48575 
 H                    -0.08053  -2.8065   -0.17574 
 H                    -0.51937  -1.98242   1.3199 
 C                    -1.84269  -1.60207  -1.87581 
 H                    -1.02173  -2.12571  -2.37716 
 H                    -2.68194  -2.29436  -1.75961 
 H                    -2.13771  -0.77407  -2.52175 
 
                    Distance matrix (angstroms):
                    1          2          3          4          5
     1  O    0.000000
     2  C    1.355539   0.000000
     3  C    2.566908   1.800001   0.000000
     4  C    2.449998   2.414619   1.422129   0.000000
     5  C    3.090628   3.158095   2.538867   1.480261   0.000000
     6  Fe   1.856196   2.991175   4.096131   3.863924   4.620779
     7  Cl   3.182859   4.530116   5.248259   4.405485   4.710508
     8  C    2.856792   3.308147   2.531592   1.474710   2.507632
     9  Cl   3.294612   4.028620   5.609284   5.697335   6.302430
    10  Cl   3.273387   3.870136   4.303009   4.332218   5.564392
    11  H    3.297784   2.289798   1.090701   2.099484   2.678219
    12  H    3.924818   4.201160   3.029646   2.070141   2.944622
    13  H    2.771725   3.244025   2.703545   2.155697   3.425640
    14  H    3.008619   3.805515   3.391843   2.138522   2.621693
    15  H    3.977112   4.181561   3.352518   2.121279   1.096445
    16  H    2.697356   3.119066   3.116589   2.079824   1.100857
    17  H    3.633291   3.343660   2.704182   2.166496   1.090083
    18  C    3.482791   2.775904   1.525929   2.525573   3.879346
    19  H    4.353206   3.737091   2.162313   2.827752   4.085614
    20  H    4.029535   3.056440   2.159799   3.433852   4.671121
    21  H    3.320731   2.950041   2.191989   2.849781   4.317381
    22  C    2.418162   1.523857   2.663056   3.647845   4.616234
    23  H    3.357120   2.186890   2.866192   4.114422   5.034891
    24  H    2.667232   2.108484   3.628030   4.445516   5.248291
    25  H    2.699485   2.183166   2.908649   3.798371   4.999474
    26  C    2.376890   1.528022   2.662936   3.180966   3.274613
    27  H    2.645444   2.120692   3.632314   4.084006   4.141190
    28  H    3.325940   2.188099   2.853502   3.688880   3.813140
    29  H    2.633872   2.189304   2.912953   2.991510   2.599234
                    6          7          8          9         10
     6  Fe   0.000000
     7  Cl   2.211696   0.000000
     8  C    3.567761   3.733491   0.000000
     9  Cl   2.198400   3.749682   5.687716   0.000000
    10  Cl   2.241189   3.668131   3.635578   3.675426   0.000000
    11  H    4.994976   6.120281   3.435184   6.309211   5.349994
    12  H    4.623103   4.649498   1.104706   6.758029   4.367027
    13  H    3.069007   3.630032   1.090019   5.175795   2.625002
    14  H    3.460436   2.993666   1.093397   5.600852   3.930467
    15  H    5.290672   4.999566   2.653070   7.120492   6.093679
    16  H    4.098777   3.979484   2.828249   5.652348   5.438080
    17  H    5.351517   5.648430   3.453172   6.813349   6.329513
    18  C    4.533536   5.886668   2.967163   6.044744   3.946232
    19  H    5.384423   6.481201   3.114537   7.047184   4.643089
    20  H    5.087083   6.688855   4.029046   6.276916   4.463169
    21  H    3.926336   5.337116   2.800431   5.499895   2.950435
    22  C    3.335399   5.331586   4.302190   3.846156   3.655331
    23  H    4.425181   6.381780   4.950419   4.828216   4.563096
    24  H    3.258997   5.335897   5.049858   3.123496   3.942883
    25  H    3.124179   5.179477   4.100593   3.848301   2.802841
    26  C    4.088128   5.362503   4.384150   4.690542   5.337689
    27  H    4.033201   5.382953   5.129479   4.122033   5.533762
    28  H    5.024745   6.406169   5.011252   5.540764   6.008802
    29  H    4.401149   5.230697   4.249265   5.214767   5.825298
                   11         12         13         14         15
    11  H    0.000000
    12  H    3.793807   0.000000
    13  H    3.758179   1.768009   0.000000
    14  H    4.228142   1.775471   1.789698   0.000000
    15  H    3.517486   2.754899   3.718367   2.585704   0.000000
    16  H    3.372163   3.521060   3.636559   2.592311   1.754061
    17  H    2.387894   3.799502   4.295701   3.696732   1.793771
    18  C    2.192598   3.191864   2.694452   4.015070   4.488827
    19  H    2.616070   2.944536   3.006907   4.205587   4.464584
    20  H    2.455530   4.278777   3.697671   5.050291   5.377124
    21  H    3.100139   3.136987   2.144641   3.782064   4.882639
    22  C    3.114654   5.122712   3.887174   4.924099   5.603357
    23  H    2.992947   5.633302   4.606919   5.689354   6.030286
    24  H    4.024754   5.970059   4.619029   5.505871   6.269885
    25  H    3.606947   4.862914   3.439865   4.777549   5.874297
    26  C    2.520204   5.215390   4.580596   4.736964   4.369799
    27  H    3.590457   6.057695   5.219997   5.353623   5.219018
    28  H    2.344440   5.705125   5.202651   5.516210   4.876614
    29  H    2.695934   5.032471   4.687021   4.439592   3.648788
                   16         17         18         19         20
    16  H    0.000000
    17  H    1.793452   0.000000
    18  C    4.498142   4.124310   0.000000
    19  H    4.884335   4.320112   1.095937   0.000000
    20  H    5.264552   4.725266   1.091664   1.764900   0.000000
    21  H    4.762068   4.774643   1.091791   1.773470   1.766405
    22  C    4.633244   4.751218   2.879885   3.970949   2.707335
    23  H    5.214493   4.963390   2.928008   3.939587   2.380256
    24  H    5.057429   5.380205   3.963891   5.057294   3.779547
    25  H    5.063954   5.308143   2.636126   3.700928   2.546098
    26  C    3.133133   3.034747   3.912498   4.754001   4.022282
    27  H    3.761436   3.971832   4.761604   5.688283   4.798999
    28  H    3.915744   3.319725   3.947579   4.722916   3.814821
    29  H    2.357040   2.270388   4.367939   5.052227   4.667072
                   21         22         23         24         25
    21  H    0.000000
    22  C    2.860272   0.000000
    23  H    3.193210   1.093447   0.000000
    24  H    3.842305   1.096908   1.778091   0.000000
    25  H    2.242842   1.089864   1.789198   1.763124   0.000000
    26  C    4.341597   2.516812   2.755682   2.728753   3.479708
    27  H    5.035966   2.735977   3.078031   2.489096   3.733780
    28  H    4.573058   2.761417   2.548225   3.088416   3.775901
    29  H    4.842775   3.480837   3.775044   3.723781   4.340203
                   26         27         28         29
    26  C    0.000000
    27  H    1.095225   0.000000
    28  H    1.094130   1.779361   0.000000
    29  H    1.090810   1.758765   1.785589   0.000000
 Framework group  C1[X(C8H16Cl3FeO)]
 Deg. of freedom    81
                         Standard orientation:                         
 ---------------------------------------------------------------------
 Center     Atomic      Atomic             Coordinates (Angstroms)
 Number     Number       Type             X           Y           Z
 ---------------------------------------------------------------------
      1          8           0       -0.323073   -0.202623   -0.700257
      2          6           0       -1.301968   -1.124500   -0.528812
      3          6           0       -2.682169   -0.323821    0.304231
      4          6           0       -2.379383    0.998126   -0.123819
      5          6           0       -2.786447    1.505048   -1.453669
      6         26           0        1.378306    0.103817   -0.024338
      7         17           0        1.827901    2.142807   -0.753711
      8          6           0       -1.598250    1.927012    0.713899
      9         17           0        2.703929   -1.503010   -0.727043
     10         17           0        1.156486    0.082218    2.205742
     11          1           0       -3.539449   -0.749163   -0.219013
     12          1           0       -2.339635    2.526709    1.271651
     13          1           0       -0.967590    1.425709    1.448136
     14          1           0       -0.999119    2.614635    0.110796
     15          1           0       -3.116865    2.547269   -1.371256
     16          1           0       -1.875734    1.524749   -2.071811
     17          1           0       -3.553254    0.903766   -1.942287
     18          6           0       -2.709891   -0.598424    1.804992
     19          1           0       -3.485387    0.010164    2.283850
     20          1           0       -2.952615   -1.646551    1.990047
     21          1           0       -1.755919   -0.382388    2.290042
     22          6           0       -0.900598   -2.302644    0.350403
     23          1           0       -1.717557   -3.016707    0.485746
     24          1           0       -0.080528   -2.806500   -0.175735
     25          1           0       -0.519365   -1.982417    1.319897
     26          6           0       -1.842686   -1.602073   -1.875808
     27          1           0       -1.021728   -2.125708   -2.377158
     28          1           0       -2.681944   -2.294362   -1.759611
     29          1           0       -2.137712   -0.774069   -2.521745
 ---------------------------------------------------------------------
 Rotational constants (GHZ):           0.5738433           0.3546454           0.3272995
   427 basis functions,  1056 primitive gaussians,   461 cartesian basis functions
    77 alpha electrons       72 beta electrons
       nuclear repulsion energy      1658.7328767411 Hartrees.
 NAtoms=   29 NActive=   29 NUniq=   29 SFac= 1.00D+00 NAtFMM=   60 NAOKFM=F Big=F
 Nuclear repulsion after empirical dispersion term =     1658.6308544338 Hartrees.
 Initial guess from the checkpoint file:  "checkpoint.chk"
 B after Tr=     0.000000    0.000000    0.000000
         Rot=    1.000000    0.000000    0.000000    0.000000 Ang=   0.00 deg.
 Initial guess <Sx>= 0.0000 <Sy>= 0.0000 <Sz>= 2.5000 <S**2>= 8.7613 S= 2.5019
 SCF Done:  E(UB97D3) =  -3034.60353777     A.U. after   16 cycles
            NFock= 16  Conv=0.53D-08     -V/T= 2.0019
 <Sx>= 0.0000 <Sy>= 0.0000 <Sz>= 2.5000 <S**2>= 8.7594 S= 2.5016
 <L.S>= 0.000000000000E+00
 Annihilation of the first spin contaminant:
 S**2 before annihilation     8.7594,   after     8.7500
 1\1\GINC-HOLY7C06602\SP\UB97D3\Jul-CC-pVDZ\C8H16Cl3Fe1O1(6)\EKWAN\12-F
 eb-2020\0\\#t pop=none jul-cc-pvdz guess=read ub97d3 empiricaldispersi
 on=gd3bj\\theory_abbreviation b97d3_d3bj\\0,6\O,0,-0.323073,-0.202623,
 -0.700257\C,0,-1.301968,-1.1245,-0.528812\C,0,-2.682169,-0.323821,0.30
 4231\C,0,-2.379383,0.998126,-0.123819\C,0,-2.786447,1.505048,-1.453669
 \Fe,0,1.378306,0.103817,-0.024338\Cl,0,1.827901,2.142807,-0.753711\C,0
 ,-1.59825,1.927012,0.713899\Cl,0,2.703929,-1.50301,-0.727043\Cl,0,1.15
 6486,0.082218,2.205742\H,0,-3.539449,-0.749163,-0.219013\H,0,-2.339635
 ,2.526709,1.271651\H,0,-0.96759,1.425709,1.448136\H,0,-0.999119,2.6146
 35,0.110796\H,0,-3.116865,2.547269,-1.371256\H,0,-1.875734,1.524749,-2
 .071811\H,0,-3.553254,0.903766,-1.942287\C,0,-2.709891,-0.598424,1.804
 992\H,0,-3.485387,0.010164,2.28385\H,0,-2.952615,-1.646551,1.990047\H,
 0,-1.755919,-0.382388,2.290042\C,0,-0.900598,-2.302644,0.350403\H,0,-1
 .717557,-3.016707,0.485746\H,0,-0.080528,-2.8065,-0.175735\H,0,-0.5193
 65,-1.982417,1.319897\C,0,-1.842686,-1.602073,-1.875808\H,0,-1.021728,
 -2.125708,-2.377158\H,0,-2.681944,-2.294362,-1.759611\H,0,-2.137712,-0
 .774069,-2.521745\\Version=ES64L-G16RevA.03\HF=-3034.6035378\S2=8.7593
 59\S2-1=0.\S2A=8.750028\RMSD=5.337e-09\PG=C01 [X(C8H16Cl3Fe1O1)]\\@


 THE 2ND LAW OF THERMODYNAMICS HAS THE SAME
 DEGREE OF TRUTH AS THE STATEMENT THAT IF YOU THROW
 A TUMBLERFULL OF WATER INTO THE SEA, YOU CANNOT GET
 THE SAME TUMBLERFULL OF WATER OUT AGAIN.
          - J.C. MAXWELL, LETTER TO LORD RAYLEIGH, DECEMBER 6,1870
 Job cpu time:       0 days  0 hours 52 minutes 25.1 seconds.
 Elapsed time:       0 days  0 hours 13 minutes 18.4 seconds.
 File lengths (MBytes):  RWF=    174 Int=      0 D2E=      0 Chk=     13 Scr=      1
 Normal termination of Gaussian 16 at Wed Feb 12 00:12:12 2020.
