 Entering Gaussian System, Link 0=g16
 Input=simple-grid-290-280-b3lyp_d3bj-631gd-gas-singlepoint-DFT-juldz2-gas.gjf
 Output=simple-grid-290-280-b3lyp_d3bj-631gd-gas-singlepoint-DFT-juldz2-gas.out
 Initial command:
 /n/sw/g16_nehalem/g16/l1.exe "/scratch/Gau-150906.inp" -scrdir="/scratch/"
 Entering Link 1 = /n/sw/g16_nehalem/g16/l1.exe PID=    150908.
  
 Copyright (c) 1988,1990,1992,1993,1995,1998,2003,2009,2016,
            Gaussian, Inc.  All Rights Reserved.
  
 This is part of the Gaussian(R) 16 program.  It is based on
 the Gaussian(R) 09 system (copyright 2009, Gaussian, Inc.),
 the Gaussian(R) 03 system (copyright 2003, Gaussian, Inc.),
 the Gaussian(R) 98 system (copyright 1998, Gaussian, Inc.),
 the Gaussian(R) 94 system (copyright 1995, Gaussian, Inc.),
 the Gaussian 92(TM) system (copyright 1992, Gaussian, Inc.),
 the Gaussian 90(TM) system (copyright 1990, Gaussian, Inc.),
 the Gaussian 88(TM) system (copyright 1988, Gaussian, Inc.),
 the Gaussian 86(TM) system (copyright 1986, Carnegie Mellon
 University), and the Gaussian 82(TM) system (copyright 1983,
 Carnegie Mellon University). Gaussian is a federally registered
 trademark of Gaussian, Inc.
  
 This software contains proprietary and confidential information,
 including trade secrets, belonging to Gaussian, Inc.
  
 This software is provided under written license and may be
 used, copied, transmitted, or stored only in accord with that
 written license.
  
 The following legend is applicable only to US Government
 contracts under FAR:
  
                    RESTRICTED RIGHTS LEGEND
  
 Use, reproduction and disclosure by the US Government is
 subject to restrictions as set forth in subparagraphs (a)
 and (c) of the Commercial Computer Software - Restricted
 Rights clause in FAR 52.227-19.
  
 Gaussian, Inc.
 340 Quinnipiac St., Bldg. 40, Wallingford CT 06492
  
  
 ---------------------------------------------------------------
 Warning -- This program may not be used in any manner that
 competes with the business of Gaussian, Inc. or will provide
 assistance to any competitor of Gaussian, Inc.  The licensee
 of this program is prohibited from giving any competitor of
 Gaussian, Inc. access to this program.  By using this program,
 the user acknowledges that Gaussian, Inc. is engaged in the
 business of creating and licensing software in the field of
 computational chemistry and represents and warrants to the
 licensee that it is not a competitor of Gaussian, Inc. and that
 it will not use this program in any manner prohibited above.
 ---------------------------------------------------------------
  

 Cite this work as:
 Gaussian 16, Revision A.03,
 M. J. Frisch, G. W. Trucks, H. B. Schlegel, G. E. Scuseria, 
 M. A. Robb, J. R. Cheeseman, G. Scalmani, V. Barone, 
 G. A. Petersson, H. Nakatsuji, X. Li, M. Caricato, A. V. Marenich, 
 J. Bloino, B. G. Janesko, R. Gomperts, B. Mennucci, H. P. Hratchian, 
 J. V. Ortiz, A. F. Izmaylov, J. L. Sonnenberg, D. Williams-Young, 
 F. Ding, F. Lipparini, F. Egidi, J. Goings, B. Peng, A. Petrone, 
 T. Henderson, D. Ranasinghe, V. G. Zakrzewski, J. Gao, N. Rega, 
 G. Zheng, W. Liang, M. Hada, M. Ehara, K. Toyota, R. Fukuda, 
 J. Hasegawa, M. Ishida, T. Nakajima, Y. Honda, O. Kitao, H. Nakai, 
 T. Vreven, K. Throssell, J. A. Montgomery, Jr., J. E. Peralta, 
 F. Ogliaro, M. J. Bearpark, J. J. Heyd, E. N. Brothers, K. N. Kudin, 
 V. N. Staroverov, T. A. Keith, R. Kobayashi, J. Normand, 
 K. Raghavachari, A. P. Rendell, J. C. Burant, S. S. Iyengar, 
 J. Tomasi, M. Cossi, J. M. Millam, M. Klene, C. Adamo, R. Cammi, 
 J. W. Ochterski, R. L. Martin, K. Morokuma, O. Farkas, 
 J. B. Foresman, and D. J. Fox, Gaussian, Inc., Wallingford CT, 2016.
 
 ******************************************
 Gaussian 16:  ES64L-G16RevA.03 25-Dec-2016
                12-Feb-2020 
 ******************************************
 %chk=checkpoint.chk
 %mem=3GB
 %nprocshared=4
 Will use up to    4 processors via shared memory.
 --------------------------------
 #t pop=none jul-cc-pvdz upbe1pbe
 --------------------------------
 ------------------------
 theory_abbreviation pbe0
 ------------------------
 Symbolic Z-matrix:
 Charge =  0 Multiplicity = 6
 O                     0.21893   0.41495  -0.83962 
 C                     0.93632   1.41501  -0.62617 
 C                     3.19887  -0.01795   0.48627 
 C                     2.59593  -0.95207  -0.27298 
 C                     2.93286  -1.11157  -1.73219 
 Fe                   -1.46998  -0.16614   0.03214 
 Cl                   -2.08271  -1.93785  -1.06437 
 C                     1.64754  -1.99144   0.2535 
 Cl                   -2.691     1.61908  -0.30856 
 Cl                   -1.08445  -0.48832   2.16522 
 H                     3.93362   0.62459  -0.00152 
 H                     2.14616  -2.97056   0.25912 
 H                     1.29152  -1.7924    1.2641 
 H                     0.77848  -2.09953  -0.40551 
 H                     3.36278  -2.1055   -1.91362 
 H                     2.02804  -1.05043  -2.35054 
 H                     3.65463  -0.36583  -2.07895 
 C                     3.07262   0.16737   1.97315 
 H                     3.92707  -0.28835   2.49233 
 H                     3.07609   1.22942   2.24471 
 H                     2.16334  -0.28079   2.38194 
 C                     0.81656   2.20501   0.63713 
 H                     1.69178   2.83334   0.80849 
 H                    -0.06451   2.85373   0.52182 
 H                     0.63169   1.55653   1.49468 
 C                     1.74435   1.97607  -1.75298 
 H                     1.20739   2.86634  -2.11213 
 H                     2.72959   2.30277  -1.4143 
 H                     1.82847   1.26457  -2.57261 
 
                    Distance matrix (angstroms):
                    1          2          3          4          5
     1  O    0.000000
     2  C    1.249131   0.000000
     3  C    3.290197   2.900000   0.000000
     4  C    2.799990   2.912402   1.346313   0.000000
     5  C    3.239192   3.404854   2.487631   1.506076   0.000000
     6  Fe   1.987464   2.953580   4.693214   4.152392   4.836493
     7  Cl   3.299040   4.533005   5.829703   4.846407   5.126852
     8  C    3.004419   3.589359   2.520993   1.502297   2.523725
     9  Cl   3.193688   3.646914   6.164586   5.879087   6.411784
    10  Cl   3.397604   3.936749   4.624593   4.439031   5.631781
    11  H    3.813824   3.162075   1.091171   2.085414   2.647825
    12  H    4.047602   4.634717   3.142873   2.135349   2.835500
    13  H    3.232405   3.739881   2.718758   2.184088   3.483572
    14  H    2.612310   3.524995   3.314589   2.153451   2.716154
    15  H    4.170125   4.465332   3.184991   2.147131   1.098019
    16  H    2.775444   3.200573   3.237946   2.156020   1.097629
    17  H    3.734912   3.559652   2.628510   2.173946   1.094216
    18  C    4.014535   3.588429   1.503692   2.554495   3.922337
    19  H    5.034558   4.644458   2.151201   3.139964   4.417317
    20  H    4.282501   3.585389   2.159424   3.365735   4.616972
    21  H    3.826651   3.664704   2.175999   2.772426   4.267134
    22  C    2.396307   1.494786   3.261852   3.736520   4.592613
    23  H    3.276306   2.154217   3.241141   4.039353   4.853622
    24  H    2.807402   2.095106   4.347115   4.711020   5.457872
    25  H    2.631072   2.147288   3.175894   3.643617   4.777746
    26  C    2.366062   1.495794   3.332559   3.389629   3.308552
    27  H    2.933540   2.094736   4.363116   4.459906   4.352626
    28  H    3.193364   2.150604   3.036138   3.451736   3.435129
    29  H    2.513109   2.146430   3.588813   3.284935   2.751735
                    6          7          8          9         10
     6  Fe   0.000000
     7  Cl   2.171802   0.000000
     8  C    3.619343   3.956566   0.000000
     9  Cl   2.189510   3.686864   5.672271   0.000000
    10  Cl   2.191451   3.678025   3.657561   3.625147   0.000000
    11  H    5.461242   6.625091   3.483496   6.705878   5.578014
    12  H    4.581782   4.549880   1.098785   6.692166   4.497942
    13  H    3.433408   4.102230   1.089803   5.474653   2.856190
    14  H    2.997521   2.940515   1.096019   5.086725   3.560219
    15  H    5.559016   5.513863   2.766132   7.286768   6.247400
    16  H    4.323799   4.397722   2.794869   5.793557   5.513217
    17  H    5.545998   6.034696   3.480129   6.880488   6.362918
    18  C    4.951151   6.343168   3.106193   6.366547   4.212837
    19  H    5.932580   7.175534   3.620645   7.435186   5.026154
    20  H    5.244975   6.898894   4.047163   6.319047   4.501891
    21  H    4.328478   5.714177   2.778957   5.866253   3.261620
    22  C    3.349119   5.335176   4.295094   3.679762   3.633579
    23  H    4.426767   6.365418   4.856789   4.683055   4.536688
    24  H    3.366704   5.435834   5.145746   3.018668   3.861386
    25  H    3.086032   5.111490   3.893655   3.780981   2.752481
    26  C    4.255301   5.517183   4.447071   4.678264   5.424717
    27  H    4.578434   5.916308   5.421062   4.472805   5.899316
    28  H    5.081737   6.423667   4.732084   5.574310   5.928744
    29  H    4.439745   5.275179   4.315232   5.067265   5.831351
                   11         12         13         14         15
    11  H    0.000000
    12  H    4.023433   0.000000
    13  H    3.797932   1.768742   0.000000
    14  H    4.187950   1.752415   1.773455   0.000000
    15  H    3.381620   2.636154   3.806056   2.992162   0.000000
    16  H    3.457570   3.242091   3.762787   2.538726   1.756588
    17  H    2.318293   3.811382   4.335358   3.752107   1.771706
    18  C    2.202196   3.693613   2.741487   4.007484   4.511880
    19  H    2.655704   3.918303   3.273658   4.646662   4.799253
    20  H    2.479251   4.737837   3.643852   4.835762   5.338119
    21  H    3.103943   3.426587   2.072344   3.604938   4.818720
    22  C    3.552690   5.356975   4.074054   4.429181   5.618723
    23  H    3.249694   5.847517   4.665319   5.161506   5.881688
    24  H    4.607377   6.235249   4.896554   5.109342   6.501663
    25  H    3.742974   4.931000   3.421092   4.122997   5.699637
    26  C    3.112389   5.355289   4.848623   4.399900   4.393671
    27  H    4.112471   6.369730   5.754112   5.268433   5.422573
    28  H    2.502381   5.563159   5.100223   4.919836   4.481419
    29  H    3.384040   5.104502   4.934945   4.137146   3.761088
                   16         17         18         19         20
    16  H    0.000000
    17  H    1.785557   0.000000
    18  C    4.611769   4.128256   0.000000
    19  H    5.257415   4.580043   1.098773   0.000000
    20  H    5.235683   4.644728   1.096223   1.757574   0.000000
    21  H    4.796562   4.704327   1.093043   1.767189   1.769936
    22  C    4.581674   4.694775   3.320647   4.397019   2.939651
    23  H    5.017590   4.735480   3.220330   4.192456   2.559607
    24  H    5.279362   5.564308   4.377720   5.448684   3.933204
    25  H    4.850955   5.060085   2.849010   3.906199   2.577726
    26  C    3.097949   3.039723   4.349676   5.283409   4.279308
    27  H    4.008914   4.054256   5.239561   6.208840   5.015335
    28  H    3.551437   2.901535   4.019004   4.838342   3.828898
    29  H    2.334179   2.497355   4.838972   5.698179   4.976376
                   21         22         23         24         25
    21  H    0.000000
    22  C    3.322254   0.000000
    23  H    3.520782   1.090948   0.000000
    24  H    4.271834   1.100190   1.779647   0.000000
    25  H    2.551266   1.090911   1.795796   1.764611   0.000000
    26  C    4.729326   2.574067   2.701627   3.035944   3.458512
    27  H    5.569107   2.854566   2.960704   2.924993   3.880220
    28  H    4.626756   2.806707   2.509851   3.443705   3.663364
    29  H    5.200755   3.494395   3.729819   3.960334   4.249746
                   26         27         28         29
    26  C    0.000000
    27  H    1.099953   0.000000
    28  H    1.091848   1.766827   0.000000
    29  H    1.088624   1.778602   1.797657   0.000000
 Framework group  C1[X(C8H16Cl3FeO)]
 Deg. of freedom    81
                         Standard orientation:                         
 ---------------------------------------------------------------------
 Center     Atomic      Atomic             Coordinates (Angstroms)
 Number     Number       Type             X           Y           Z
 ---------------------------------------------------------------------
      1          8           0        0.218929    0.414947   -0.839620
      2          6           0        0.936321    1.415005   -0.626172
      3          6           0        3.198865   -0.017954    0.486267
      4          6           0        2.595928   -0.952070   -0.272978
      5          6           0        2.932861   -1.111570   -1.732190
      6         26           0       -1.469975   -0.166135    0.032138
      7         17           0       -2.082705   -1.937845   -1.064370
      8          6           0        1.647543   -1.991435    0.253504
      9         17           0       -2.691000    1.619076   -0.308556
     10         17           0       -1.084445   -0.488321    2.165216
     11          1           0        3.933615    0.624589   -0.001519
     12          1           0        2.146158   -2.970557    0.259122
     13          1           0        1.291517   -1.792397    1.264098
     14          1           0        0.778482   -2.099534   -0.405514
     15          1           0        3.362784   -2.105499   -1.913619
     16          1           0        2.028041   -1.050432   -2.350537
     17          1           0        3.654626   -0.365833   -2.078948
     18          6           0        3.072619    0.167367    1.973146
     19          1           0        3.927065   -0.288345    2.492328
     20          1           0        3.076094    1.229416    2.244706
     21          1           0        2.163343   -0.280791    2.381942
     22          6           0        0.816564    2.205008    0.637133
     23          1           0        1.691781    2.833337    0.808494
     24          1           0       -0.064507    2.853727    0.521822
     25          1           0        0.631687    1.556532    1.494680
     26          6           0        1.744354    1.976072   -1.752975
     27          1           0        1.207390    2.866338   -2.112130
     28          1           0        2.729593    2.302773   -1.414297
     29          1           0        1.828466    1.264573   -2.572607
 ---------------------------------------------------------------------
 Rotational constants (GHZ):           0.5631369           0.3227236           0.3040866
   427 basis functions,  1056 primitive gaussians,   461 cartesian basis functions
    77 alpha electrons       72 beta electrons
       nuclear repulsion energy      1621.2778301193 Hartrees.
 NAtoms=   29 NActive=   29 NUniq=   29 SFac= 1.00D+00 NAtFMM=   60 NAOKFM=F Big=F
 ExpMin= 1.40D-02 ExpMax= 4.32D+06 ExpMxC= 4.91D+03 IAcc=3 IRadAn=         5 AccDes= 0.00D+00
 Harris functional with IExCor= 1009 and IRadAn=       5 diagonalized for initial guess.
 HarFok:  IExCor= 1009 AccDes= 0.00D+00 IRadAn=         5 IDoV= 1 UseB2=F ITyADJ=14
 ICtDFT=  3500011 ScaDFX=  1.000000  1.000000  1.000000  1.000000
 FoFCou: FMM=F IPFlag=           0 FMFlag=      100000 FMFlg1=           0
         NFxFlg=           0 DoJE=T BraDBF=F KetDBF=T FulRan=T
         wScrn=  0.000000 ICntrl=       500 IOpCl=  0 I1Cent=   200000004 NGrid=           0
         NMat0=    1 NMatS0=      1 NMatT0=    0 NMatD0=    1 NMtDS0=    0 NMtDT0=    0
 Petite list used in FoFCou.
 Initial guess <Sx>= 0.0000 <Sy>= 0.0000 <Sz>= 2.5000 <S**2>= 8.7500 S= 2.5000
 EnCoef did   100 forward-backward iterations
 SCF Done:  E(UPBE1PBE) =  -3033.13745975     A.U. after   20 cycles
            NFock= 20  Conv=0.94D-08     -V/T= 2.0021
 <Sx>= 0.0000 <Sy>= 0.0000 <Sz>= 2.5000 <S**2>= 8.7630 S= 2.5022
 <L.S>= 0.000000000000E+00
 Annihilation of the first spin contaminant:
 S**2 before annihilation     8.7630,   after     8.7501
 1\1\GINC-HOLY7C08308\SP\UPBE1PBE\Jul-CC-pVDZ\C8H16Cl3Fe1O1(6)\EKWAN\12
 -Feb-2020\0\\#t pop=none jul-cc-pvdz upbe1pbe\\theory_abbreviation pbe
 0\\0,6\O,0,0.218929,0.414947,-0.83962\C,0,0.936321,1.415005,-0.626172\
 C,0,3.198865,-0.017954,0.486267\C,0,2.595928,-0.95207,-0.272978\C,0,2.
 932861,-1.11157,-1.73219\Fe,0,-1.469975,-0.166135,0.032138\Cl,0,-2.082
 705,-1.937845,-1.06437\C,0,1.647543,-1.991435,0.253504\Cl,0,-2.691,1.6
 19076,-0.308556\Cl,0,-1.084445,-0.488321,2.165216\H,0,3.933615,0.62458
 9,-0.001519\H,0,2.146158,-2.970557,0.259122\H,0,1.291517,-1.792397,1.2
 64098\H,0,0.778482,-2.099534,-0.405514\H,0,3.362784,-2.105499,-1.91361
 9\H,0,2.028041,-1.050432,-2.350537\H,0,3.654626,-0.365833,-2.078948\C,
 0,3.072619,0.167367,1.973146\H,0,3.927065,-0.288345,2.492328\H,0,3.076
 094,1.229416,2.244706\H,0,2.163343,-0.280791,2.381942\C,0,0.816564,2.2
 05008,0.637133\H,0,1.691781,2.833337,0.808494\H,0,-0.064507,2.853727,0
 .521822\H,0,0.631687,1.556532,1.49468\C,0,1.744354,1.976072,-1.752975\
 H,0,1.20739,2.866338,-2.11213\H,0,2.729593,2.302773,-1.414297\H,0,1.82
 8466,1.264573,-2.572607\\Version=ES64L-G16RevA.03\HF=-3033.1374598\S2=
 8.762963\S2-1=0.\S2A=8.750052\RMSD=9.371e-09\PG=C01 [X(C8H16Cl3Fe1O1)]
 \\@


 A MAN IS EXACTLY AS GREAT AS THE TIDE SURGING
 BENEATH HIM.      - BISMARCK
 Job cpu time:       0 days  1 hours 21 minutes 30.0 seconds.
 Elapsed time:       0 days  0 hours 20 minutes 27.1 seconds.
 File lengths (MBytes):  RWF=    173 Int=      0 D2E=      0 Chk=     13 Scr=      1
 Normal termination of Gaussian 16 at Wed Feb 12 14:11:29 2020.
 Initial command:
 /n/sw/g16_nehalem/g16/l1.exe "/scratch/Gau-150906.inp" -scrdir="/scratch/"
 Entering Link 1 = /n/sw/g16_nehalem/g16/l1.exe PID=    152303.
  
 Copyright (c) 1988,1990,1992,1993,1995,1998,2003,2009,2016,
            Gaussian, Inc.  All Rights Reserved.
  
 This is part of the Gaussian(R) 16 program.  It is based on
 the Gaussian(R) 09 system (copyright 2009, Gaussian, Inc.),
 the Gaussian(R) 03 system (copyright 2003, Gaussian, Inc.),
 the Gaussian(R) 98 system (copyright 1998, Gaussian, Inc.),
 the Gaussian(R) 94 system (copyright 1995, Gaussian, Inc.),
 the Gaussian 92(TM) system (copyright 1992, Gaussian, Inc.),
 the Gaussian 90(TM) system (copyright 1990, Gaussian, Inc.),
 the Gaussian 88(TM) system (copyright 1988, Gaussian, Inc.),
 the Gaussian 86(TM) system (copyright 1986, Carnegie Mellon
 University), and the Gaussian 82(TM) system (copyright 1983,
 Carnegie Mellon University). Gaussian is a federally registered
 trademark of Gaussian, Inc.
  
 This software contains proprietary and confidential information,
 including trade secrets, belonging to Gaussian, Inc.
  
 This software is provided under written license and may be
 used, copied, transmitted, or stored only in accord with that
 written license.
  
 The following legend is applicable only to US Government
 contracts under FAR:
  
                    RESTRICTED RIGHTS LEGEND
  
 Use, reproduction and disclosure by the US Government is
 subject to restrictions as set forth in subparagraphs (a)
 and (c) of the Commercial Computer Software - Restricted
 Rights clause in FAR 52.227-19.
  
 Gaussian, Inc.
 340 Quinnipiac St., Bldg. 40, Wallingford CT 06492
  
  
 ---------------------------------------------------------------
 Warning -- This program may not be used in any manner that
 competes with the business of Gaussian, Inc. or will provide
 assistance to any competitor of Gaussian, Inc.  The licensee
 of this program is prohibited from giving any competitor of
 Gaussian, Inc. access to this program.  By using this program,
 the user acknowledges that Gaussian, Inc. is engaged in the
 business of creating and licensing software in the field of
 computational chemistry and represents and warrants to the
 licensee that it is not a competitor of Gaussian, Inc. and that
 it will not use this program in any manner prohibited above.
 ---------------------------------------------------------------
  

 Cite this work as:
 Gaussian 16, Revision A.03,
 M. J. Frisch, G. W. Trucks, H. B. Schlegel, G. E. Scuseria, 
 M. A. Robb, J. R. Cheeseman, G. Scalmani, V. Barone, 
 G. A. Petersson, H. Nakatsuji, X. Li, M. Caricato, A. V. Marenich, 
 J. Bloino, B. G. Janesko, R. Gomperts, B. Mennucci, H. P. Hratchian, 
 J. V. Ortiz, A. F. Izmaylov, J. L. Sonnenberg, D. Williams-Young, 
 F. Ding, F. Lipparini, F. Egidi, J. Goings, B. Peng, A. Petrone, 
 T. Henderson, D. Ranasinghe, V. G. Zakrzewski, J. Gao, N. Rega, 
 G. Zheng, W. Liang, M. Hada, M. Ehara, K. Toyota, R. Fukuda, 
 J. Hasegawa, M. Ishida, T. Nakajima, Y. Honda, O. Kitao, H. Nakai, 
 T. Vreven, K. Throssell, J. A. Montgomery, Jr., J. E. Peralta, 
 F. Ogliaro, M. J. Bearpark, J. J. Heyd, E. N. Brothers, K. N. Kudin, 
 V. N. Staroverov, T. A. Keith, R. Kobayashi, J. Normand, 
 K. Raghavachari, A. P. Rendell, J. C. Burant, S. S. Iyengar, 
 J. Tomasi, M. Cossi, J. M. Millam, M. Klene, C. Adamo, R. Cammi, 
 J. W. Ochterski, R. L. Martin, K. Morokuma, O. Farkas, 
 J. B. Foresman, and D. J. Fox, Gaussian, Inc., Wallingford CT, 2016.
 
 ******************************************
 Gaussian 16:  ES64L-G16RevA.03 25-Dec-2016
                12-Feb-2020 
 ******************************************
 %chk=checkpoint.chk
 %mem=3GB
 %nprocshared=4
 Will use up to    4 processors via shared memory.
 ---------------------------------------------------------------------
 #t pop=none jul-cc-pvdz guess=read upbe1pbe empiricaldispersion=gd3bj
 ---------------------------------------------------------------------
 -----------------------------
 theory_abbreviation pbe0_d3bj
 -----------------------------
 Symbolic Z-matrix:
 Charge =  0 Multiplicity = 6
 O                     0.21893   0.41495  -0.83962 
 C                     0.93632   1.41501  -0.62617 
 C                     3.19887  -0.01795   0.48627 
 C                     2.59593  -0.95207  -0.27298 
 C                     2.93286  -1.11157  -1.73219 
 Fe                   -1.46998  -0.16614   0.03214 
 Cl                   -2.08271  -1.93785  -1.06437 
 C                     1.64754  -1.99144   0.2535 
 Cl                   -2.691     1.61908  -0.30856 
 Cl                   -1.08445  -0.48832   2.16522 
 H                     3.93362   0.62459  -0.00152 
 H                     2.14616  -2.97056   0.25912 
 H                     1.29152  -1.7924    1.2641 
 H                     0.77848  -2.09953  -0.40551 
 H                     3.36278  -2.1055   -1.91362 
 H                     2.02804  -1.05043  -2.35054 
 H                     3.65463  -0.36583  -2.07895 
 C                     3.07262   0.16737   1.97315 
 H                     3.92707  -0.28835   2.49233 
 H                     3.07609   1.22942   2.24471 
 H                     2.16334  -0.28079   2.38194 
 C                     0.81656   2.20501   0.63713 
 H                     1.69178   2.83334   0.80849 
 H                    -0.06451   2.85373   0.52182 
 H                     0.63169   1.55653   1.49468 
 C                     1.74435   1.97607  -1.75298 
 H                     1.20739   2.86634  -2.11213 
 H                     2.72959   2.30277  -1.4143 
 H                     1.82847   1.26457  -2.57261 
 
                    Distance matrix (angstroms):
                    1          2          3          4          5
     1  O    0.000000
     2  C    1.249131   0.000000
     3  C    3.290197   2.900000   0.000000
     4  C    2.799990   2.912402   1.346313   0.000000
     5  C    3.239192   3.404854   2.487631   1.506076   0.000000
     6  Fe   1.987464   2.953580   4.693214   4.152392   4.836493
     7  Cl   3.299040   4.533005   5.829703   4.846407   5.126852
     8  C    3.004419   3.589359   2.520993   1.502297   2.523725
     9  Cl   3.193688   3.646914   6.164586   5.879087   6.411784
    10  Cl   3.397604   3.936749   4.624593   4.439031   5.631781
    11  H    3.813824   3.162075   1.091171   2.085414   2.647825
    12  H    4.047602   4.634717   3.142873   2.135349   2.835500
    13  H    3.232405   3.739881   2.718758   2.184088   3.483572
    14  H    2.612310   3.524995   3.314589   2.153451   2.716154
    15  H    4.170125   4.465332   3.184991   2.147131   1.098019
    16  H    2.775444   3.200573   3.237946   2.156020   1.097629
    17  H    3.734912   3.559652   2.628510   2.173946   1.094216
    18  C    4.014535   3.588429   1.503692   2.554495   3.922337
    19  H    5.034558   4.644458   2.151201   3.139964   4.417317
    20  H    4.282501   3.585389   2.159424   3.365735   4.616972
    21  H    3.826651   3.664704   2.175999   2.772426   4.267134
    22  C    2.396307   1.494786   3.261852   3.736520   4.592613
    23  H    3.276306   2.154217   3.241141   4.039353   4.853622
    24  H    2.807402   2.095106   4.347115   4.711020   5.457872
    25  H    2.631072   2.147288   3.175894   3.643617   4.777746
    26  C    2.366062   1.495794   3.332559   3.389629   3.308552
    27  H    2.933540   2.094736   4.363116   4.459906   4.352626
    28  H    3.193364   2.150604   3.036138   3.451736   3.435129
    29  H    2.513109   2.146430   3.588813   3.284935   2.751735
                    6          7          8          9         10
     6  Fe   0.000000
     7  Cl   2.171802   0.000000
     8  C    3.619343   3.956566   0.000000
     9  Cl   2.189510   3.686864   5.672271   0.000000
    10  Cl   2.191451   3.678025   3.657561   3.625147   0.000000
    11  H    5.461242   6.625091   3.483496   6.705878   5.578014
    12  H    4.581782   4.549880   1.098785   6.692166   4.497942
    13  H    3.433408   4.102230   1.089803   5.474653   2.856190
    14  H    2.997521   2.940515   1.096019   5.086725   3.560219
    15  H    5.559016   5.513863   2.766132   7.286768   6.247400
    16  H    4.323799   4.397722   2.794869   5.793557   5.513217
    17  H    5.545998   6.034696   3.480129   6.880488   6.362918
    18  C    4.951151   6.343168   3.106193   6.366547   4.212837
    19  H    5.932580   7.175534   3.620645   7.435186   5.026154
    20  H    5.244975   6.898894   4.047163   6.319047   4.501891
    21  H    4.328478   5.714177   2.778957   5.866253   3.261620
    22  C    3.349119   5.335176   4.295094   3.679762   3.633579
    23  H    4.426767   6.365418   4.856789   4.683055   4.536688
    24  H    3.366704   5.435834   5.145746   3.018668   3.861386
    25  H    3.086032   5.111490   3.893655   3.780981   2.752481
    26  C    4.255301   5.517183   4.447071   4.678264   5.424717
    27  H    4.578434   5.916308   5.421062   4.472805   5.899316
    28  H    5.081737   6.423667   4.732084   5.574310   5.928744
    29  H    4.439745   5.275179   4.315232   5.067265   5.831351
                   11         12         13         14         15
    11  H    0.000000
    12  H    4.023433   0.000000
    13  H    3.797932   1.768742   0.000000
    14  H    4.187950   1.752415   1.773455   0.000000
    15  H    3.381620   2.636154   3.806056   2.992162   0.000000
    16  H    3.457570   3.242091   3.762787   2.538726   1.756588
    17  H    2.318293   3.811382   4.335358   3.752107   1.771706
    18  C    2.202196   3.693613   2.741487   4.007484   4.511880
    19  H    2.655704   3.918303   3.273658   4.646662   4.799253
    20  H    2.479251   4.737837   3.643852   4.835762   5.338119
    21  H    3.103943   3.426587   2.072344   3.604938   4.818720
    22  C    3.552690   5.356975   4.074054   4.429181   5.618723
    23  H    3.249694   5.847517   4.665319   5.161506   5.881688
    24  H    4.607377   6.235249   4.896554   5.109342   6.501663
    25  H    3.742974   4.931000   3.421092   4.122997   5.699637
    26  C    3.112389   5.355289   4.848623   4.399900   4.393671
    27  H    4.112471   6.369730   5.754112   5.268433   5.422573
    28  H    2.502381   5.563159   5.100223   4.919836   4.481419
    29  H    3.384040   5.104502   4.934945   4.137146   3.761088
                   16         17         18         19         20
    16  H    0.000000
    17  H    1.785557   0.000000
    18  C    4.611769   4.128256   0.000000
    19  H    5.257415   4.580043   1.098773   0.000000
    20  H    5.235683   4.644728   1.096223   1.757574   0.000000
    21  H    4.796562   4.704327   1.093043   1.767189   1.769936
    22  C    4.581674   4.694775   3.320647   4.397019   2.939651
    23  H    5.017590   4.735480   3.220330   4.192456   2.559607
    24  H    5.279362   5.564308   4.377720   5.448684   3.933204
    25  H    4.850955   5.060085   2.849010   3.906199   2.577726
    26  C    3.097949   3.039723   4.349676   5.283409   4.279308
    27  H    4.008914   4.054256   5.239561   6.208840   5.015335
    28  H    3.551437   2.901535   4.019004   4.838342   3.828898
    29  H    2.334179   2.497355   4.838972   5.698179   4.976376
                   21         22         23         24         25
    21  H    0.000000
    22  C    3.322254   0.000000
    23  H    3.520782   1.090948   0.000000
    24  H    4.271834   1.100190   1.779647   0.000000
    25  H    2.551266   1.090911   1.795796   1.764611   0.000000
    26  C    4.729326   2.574067   2.701627   3.035944   3.458512
    27  H    5.569107   2.854566   2.960704   2.924993   3.880220
    28  H    4.626756   2.806707   2.509851   3.443705   3.663364
    29  H    5.200755   3.494395   3.729819   3.960334   4.249746
                   26         27         28         29
    26  C    0.000000
    27  H    1.099953   0.000000
    28  H    1.091848   1.766827   0.000000
    29  H    1.088624   1.778602   1.797657   0.000000
 Framework group  C1[X(C8H16Cl3FeO)]
 Deg. of freedom    81
                         Standard orientation:                         
 ---------------------------------------------------------------------
 Center     Atomic      Atomic             Coordinates (Angstroms)
 Number     Number       Type             X           Y           Z
 ---------------------------------------------------------------------
      1          8           0        0.218929    0.414947   -0.839620
      2          6           0        0.936321    1.415005   -0.626172
      3          6           0        3.198865   -0.017954    0.486267
      4          6           0        2.595928   -0.952070   -0.272978
      5          6           0        2.932861   -1.111570   -1.732190
      6         26           0       -1.469975   -0.166135    0.032138
      7         17           0       -2.082705   -1.937845   -1.064370
      8          6           0        1.647543   -1.991435    0.253504
      9         17           0       -2.691000    1.619076   -0.308556
     10         17           0       -1.084445   -0.488321    2.165216
     11          1           0        3.933615    0.624589   -0.001519
     12          1           0        2.146158   -2.970557    0.259122
     13          1           0        1.291517   -1.792397    1.264098
     14          1           0        0.778482   -2.099534   -0.405514
     15          1           0        3.362784   -2.105499   -1.913619
     16          1           0        2.028041   -1.050432   -2.350537
     17          1           0        3.654626   -0.365833   -2.078948
     18          6           0        3.072619    0.167367    1.973146
     19          1           0        3.927065   -0.288345    2.492328
     20          1           0        3.076094    1.229416    2.244706
     21          1           0        2.163343   -0.280791    2.381942
     22          6           0        0.816564    2.205008    0.637133
     23          1           0        1.691781    2.833337    0.808494
     24          1           0       -0.064507    2.853727    0.521822
     25          1           0        0.631687    1.556532    1.494680
     26          6           0        1.744354    1.976072   -1.752975
     27          1           0        1.207390    2.866338   -2.112130
     28          1           0        2.729593    2.302773   -1.414297
     29          1           0        1.828466    1.264573   -2.572607
 ---------------------------------------------------------------------
 Rotational constants (GHZ):           0.5631369           0.3227236           0.3040866
   427 basis functions,  1056 primitive gaussians,   461 cartesian basis functions
    77 alpha electrons       72 beta electrons
       nuclear repulsion energy      1621.2778301193 Hartrees.
 NAtoms=   29 NActive=   29 NUniq=   29 SFac= 1.00D+00 NAtFMM=   60 NAOKFM=F Big=F
 Nuclear repulsion after empirical dispersion term =     1621.2416105462 Hartrees.
 Initial guess from the checkpoint file:  "checkpoint.chk"
 B after Tr=     0.000000    0.000000    0.000000
         Rot=    1.000000    0.000000    0.000000    0.000000 Ang=   0.00 deg.
 Initial guess <Sx>= 0.0000 <Sy>= 0.0000 <Sz>= 2.5000 <S**2>= 8.7630 S= 2.5022
 SCF Done:  E(UPBE1PBE) =  -3033.17367933     A.U. after    1 cycles
            NFock=  1  Conv=0.45D-08     -V/T= 2.0021
 <Sx>= 0.0000 <Sy>= 0.0000 <Sz>= 2.5000 <S**2>= 8.7630 S= 2.5022
 <L.S>= 0.000000000000E+00
 Annihilation of the first spin contaminant:
 S**2 before annihilation     8.7630,   after     8.7501
 1\1\GINC-HOLY7C08308\SP\UPBE1PBE\Jul-CC-pVDZ\C8H16Cl3Fe1O1(6)\EKWAN\12
 -Feb-2020\0\\#t pop=none jul-cc-pvdz guess=read upbe1pbe empiricaldisp
 ersion=gd3bj\\theory_abbreviation pbe0_d3bj\\0,6\O,0,0.218929,0.414947
 ,-0.83962\C,0,0.936321,1.415005,-0.626172\C,0,3.198865,-0.017954,0.486
 267\C,0,2.595928,-0.95207,-0.272978\C,0,2.932861,-1.11157,-1.73219\Fe,
 0,-1.469975,-0.166135,0.032138\Cl,0,-2.082705,-1.937845,-1.06437\C,0,1
 .647543,-1.991435,0.253504\Cl,0,-2.691,1.619076,-0.308556\Cl,0,-1.0844
 45,-0.488321,2.165216\H,0,3.933615,0.624589,-0.001519\H,0,2.146158,-2.
 970557,0.259122\H,0,1.291517,-1.792397,1.264098\H,0,0.778482,-2.099534
 ,-0.405514\H,0,3.362784,-2.105499,-1.913619\H,0,2.028041,-1.050432,-2.
 350537\H,0,3.654626,-0.365833,-2.078948\C,0,3.072619,0.167367,1.973146
 \H,0,3.927065,-0.288345,2.492328\H,0,3.076094,1.229416,2.244706\H,0,2.
 163343,-0.280791,2.381942\C,0,0.816564,2.205008,0.637133\H,0,1.691781,
 2.833337,0.808494\H,0,-0.064507,2.853727,0.521822\H,0,0.631687,1.55653
 2,1.49468\C,0,1.744354,1.976072,-1.752975\H,0,1.20739,2.866338,-2.1121
 3\H,0,2.729593,2.302773,-1.414297\H,0,1.828466,1.264573,-2.572607\\Ver
 sion=ES64L-G16RevA.03\HF=-3033.1736793\S2=8.762963\S2-1=0.\S2A=8.75005
 2\RMSD=4.503e-09\PG=C01 [X(C8H16Cl3Fe1O1)]\\@


 LIFE IS A CONTINUAL STRUGGLE AGAINST THE TENDENCY TO PRODUCE ENTROPY.
 Job cpu time:       0 days  0 hours  4 minutes 26.3 seconds.
 Elapsed time:       0 days  0 hours  1 minutes  7.3 seconds.
 File lengths (MBytes):  RWF=    170 Int=      0 D2E=      0 Chk=     13 Scr=      1
 Normal termination of Gaussian 16 at Wed Feb 12 14:12:37 2020.
 Initial command:
 /n/sw/g16_nehalem/g16/l1.exe "/scratch/Gau-150906.inp" -scrdir="/scratch/"
 Entering Link 1 = /n/sw/g16_nehalem/g16/l1.exe PID=    152386.
  
 Copyright (c) 1988,1990,1992,1993,1995,1998,2003,2009,2016,
            Gaussian, Inc.  All Rights Reserved.
  
 This is part of the Gaussian(R) 16 program.  It is based on
 the Gaussian(R) 09 system (copyright 2009, Gaussian, Inc.),
 the Gaussian(R) 03 system (copyright 2003, Gaussian, Inc.),
 the Gaussian(R) 98 system (copyright 1998, Gaussian, Inc.),
 the Gaussian(R) 94 system (copyright 1995, Gaussian, Inc.),
 the Gaussian 92(TM) system (copyright 1992, Gaussian, Inc.),
 the Gaussian 90(TM) system (copyright 1990, Gaussian, Inc.),
 the Gaussian 88(TM) system (copyright 1988, Gaussian, Inc.),
 the Gaussian 86(TM) system (copyright 1986, Carnegie Mellon
 University), and the Gaussian 82(TM) system (copyright 1983,
 Carnegie Mellon University). Gaussian is a federally registered
 trademark of Gaussian, Inc.
  
 This software contains proprietary and confidential information,
 including trade secrets, belonging to Gaussian, Inc.
  
 This software is provided under written license and may be
 used, copied, transmitted, or stored only in accord with that
 written license.
  
 The following legend is applicable only to US Government
 contracts under FAR:
  
                    RESTRICTED RIGHTS LEGEND
  
 Use, reproduction and disclosure by the US Government is
 subject to restrictions as set forth in subparagraphs (a)
 and (c) of the Commercial Computer Software - Restricted
 Rights clause in FAR 52.227-19.
  
 Gaussian, Inc.
 340 Quinnipiac St., Bldg. 40, Wallingford CT 06492
  
  
 ---------------------------------------------------------------
 Warning -- This program may not be used in any manner that
 competes with the business of Gaussian, Inc. or will provide
 assistance to any competitor of Gaussian, Inc.  The licensee
 of this program is prohibited from giving any competitor of
 Gaussian, Inc. access to this program.  By using this program,
 the user acknowledges that Gaussian, Inc. is engaged in the
 business of creating and licensing software in the field of
 computational chemistry and represents and warrants to the
 licensee that it is not a competitor of Gaussian, Inc. and that
 it will not use this program in any manner prohibited above.
 ---------------------------------------------------------------
  

 Cite this work as:
 Gaussian 16, Revision A.03,
 M. J. Frisch, G. W. Trucks, H. B. Schlegel, G. E. Scuseria, 
 M. A. Robb, J. R. Cheeseman, G. Scalmani, V. Barone, 
 G. A. Petersson, H. Nakatsuji, X. Li, M. Caricato, A. V. Marenich, 
 J. Bloino, B. G. Janesko, R. Gomperts, B. Mennucci, H. P. Hratchian, 
 J. V. Ortiz, A. F. Izmaylov, J. L. Sonnenberg, D. Williams-Young, 
 F. Ding, F. Lipparini, F. Egidi, J. Goings, B. Peng, A. Petrone, 
 T. Henderson, D. Ranasinghe, V. G. Zakrzewski, J. Gao, N. Rega, 
 G. Zheng, W. Liang, M. Hada, M. Ehara, K. Toyota, R. Fukuda, 
 J. Hasegawa, M. Ishida, T. Nakajima, Y. Honda, O. Kitao, H. Nakai, 
 T. Vreven, K. Throssell, J. A. Montgomery, Jr., J. E. Peralta, 
 F. Ogliaro, M. J. Bearpark, J. J. Heyd, E. N. Brothers, K. N. Kudin, 
 V. N. Staroverov, T. A. Keith, R. Kobayashi, J. Normand, 
 K. Raghavachari, A. P. Rendell, J. C. Burant, S. S. Iyengar, 
 J. Tomasi, M. Cossi, J. M. Millam, M. Klene, C. Adamo, R. Cammi, 
 J. W. Ochterski, R. L. Martin, K. Morokuma, O. Farkas, 
 J. B. Foresman, and D. J. Fox, Gaussian, Inc., Wallingford CT, 2016.
 
 ******************************************
 Gaussian 16:  ES64L-G16RevA.03 25-Dec-2016
                12-Feb-2020 
 ******************************************
 %chk=checkpoint.chk
 %mem=3GB
 %nprocshared=4
 Will use up to    4 processors via shared memory.
 -----------------------------------------
 #t pop=none jul-cc-pvdz guess=read ub3lyp
 -----------------------------------------
 -------------------------
 theory_abbreviation b3lyp
 -------------------------
 Symbolic Z-matrix:
 Charge =  0 Multiplicity = 6
 O                     0.21893   0.41495  -0.83962 
 C                     0.93632   1.41501  -0.62617 
 C                     3.19887  -0.01795   0.48627 
 C                     2.59593  -0.95207  -0.27298 
 C                     2.93286  -1.11157  -1.73219 
 Fe                   -1.46998  -0.16614   0.03214 
 Cl                   -2.08271  -1.93785  -1.06437 
 C                     1.64754  -1.99144   0.2535 
 Cl                   -2.691     1.61908  -0.30856 
 Cl                   -1.08445  -0.48832   2.16522 
 H                     3.93362   0.62459  -0.00152 
 H                     2.14616  -2.97056   0.25912 
 H                     1.29152  -1.7924    1.2641 
 H                     0.77848  -2.09953  -0.40551 
 H                     3.36278  -2.1055   -1.91362 
 H                     2.02804  -1.05043  -2.35054 
 H                     3.65463  -0.36583  -2.07895 
 C                     3.07262   0.16737   1.97315 
 H                     3.92707  -0.28835   2.49233 
 H                     3.07609   1.22942   2.24471 
 H                     2.16334  -0.28079   2.38194 
 C                     0.81656   2.20501   0.63713 
 H                     1.69178   2.83334   0.80849 
 H                    -0.06451   2.85373   0.52182 
 H                     0.63169   1.55653   1.49468 
 C                     1.74435   1.97607  -1.75298 
 H                     1.20739   2.86634  -2.11213 
 H                     2.72959   2.30277  -1.4143 
 H                     1.82847   1.26457  -2.57261 
 
                    Distance matrix (angstroms):
                    1          2          3          4          5
     1  O    0.000000
     2  C    1.249131   0.000000
     3  C    3.290197   2.900000   0.000000
     4  C    2.799990   2.912402   1.346313   0.000000
     5  C    3.239192   3.404854   2.487631   1.506076   0.000000
     6  Fe   1.987464   2.953580   4.693214   4.152392   4.836493
     7  Cl   3.299040   4.533005   5.829703   4.846407   5.126852
     8  C    3.004419   3.589359   2.520993   1.502297   2.523725
     9  Cl   3.193688   3.646914   6.164586   5.879087   6.411784
    10  Cl   3.397604   3.936749   4.624593   4.439031   5.631781
    11  H    3.813824   3.162075   1.091171   2.085414   2.647825
    12  H    4.047602   4.634717   3.142873   2.135349   2.835500
    13  H    3.232405   3.739881   2.718758   2.184088   3.483572
    14  H    2.612310   3.524995   3.314589   2.153451   2.716154
    15  H    4.170125   4.465332   3.184991   2.147131   1.098019
    16  H    2.775444   3.200573   3.237946   2.156020   1.097629
    17  H    3.734912   3.559652   2.628510   2.173946   1.094216
    18  C    4.014535   3.588429   1.503692   2.554495   3.922337
    19  H    5.034558   4.644458   2.151201   3.139964   4.417317
    20  H    4.282501   3.585389   2.159424   3.365735   4.616972
    21  H    3.826651   3.664704   2.175999   2.772426   4.267134
    22  C    2.396307   1.494786   3.261852   3.736520   4.592613
    23  H    3.276306   2.154217   3.241141   4.039353   4.853622
    24  H    2.807402   2.095106   4.347115   4.711020   5.457872
    25  H    2.631072   2.147288   3.175894   3.643617   4.777746
    26  C    2.366062   1.495794   3.332559   3.389629   3.308552
    27  H    2.933540   2.094736   4.363116   4.459906   4.352626
    28  H    3.193364   2.150604   3.036138   3.451736   3.435129
    29  H    2.513109   2.146430   3.588813   3.284935   2.751735
                    6          7          8          9         10
     6  Fe   0.000000
     7  Cl   2.171802   0.000000
     8  C    3.619343   3.956566   0.000000
     9  Cl   2.189510   3.686864   5.672271   0.000000
    10  Cl   2.191451   3.678025   3.657561   3.625147   0.000000
    11  H    5.461242   6.625091   3.483496   6.705878   5.578014
    12  H    4.581782   4.549880   1.098785   6.692166   4.497942
    13  H    3.433408   4.102230   1.089803   5.474653   2.856190
    14  H    2.997521   2.940515   1.096019   5.086725   3.560219
    15  H    5.559016   5.513863   2.766132   7.286768   6.247400
    16  H    4.323799   4.397722   2.794869   5.793557   5.513217
    17  H    5.545998   6.034696   3.480129   6.880488   6.362918
    18  C    4.951151   6.343168   3.106193   6.366547   4.212837
    19  H    5.932580   7.175534   3.620645   7.435186   5.026154
    20  H    5.244975   6.898894   4.047163   6.319047   4.501891
    21  H    4.328478   5.714177   2.778957   5.866253   3.261620
    22  C    3.349119   5.335176   4.295094   3.679762   3.633579
    23  H    4.426767   6.365418   4.856789   4.683055   4.536688
    24  H    3.366704   5.435834   5.145746   3.018668   3.861386
    25  H    3.086032   5.111490   3.893655   3.780981   2.752481
    26  C    4.255301   5.517183   4.447071   4.678264   5.424717
    27  H    4.578434   5.916308   5.421062   4.472805   5.899316
    28  H    5.081737   6.423667   4.732084   5.574310   5.928744
    29  H    4.439745   5.275179   4.315232   5.067265   5.831351
                   11         12         13         14         15
    11  H    0.000000
    12  H    4.023433   0.000000
    13  H    3.797932   1.768742   0.000000
    14  H    4.187950   1.752415   1.773455   0.000000
    15  H    3.381620   2.636154   3.806056   2.992162   0.000000
    16  H    3.457570   3.242091   3.762787   2.538726   1.756588
    17  H    2.318293   3.811382   4.335358   3.752107   1.771706
    18  C    2.202196   3.693613   2.741487   4.007484   4.511880
    19  H    2.655704   3.918303   3.273658   4.646662   4.799253
    20  H    2.479251   4.737837   3.643852   4.835762   5.338119
    21  H    3.103943   3.426587   2.072344   3.604938   4.818720
    22  C    3.552690   5.356975   4.074054   4.429181   5.618723
    23  H    3.249694   5.847517   4.665319   5.161506   5.881688
    24  H    4.607377   6.235249   4.896554   5.109342   6.501663
    25  H    3.742974   4.931000   3.421092   4.122997   5.699637
    26  C    3.112389   5.355289   4.848623   4.399900   4.393671
    27  H    4.112471   6.369730   5.754112   5.268433   5.422573
    28  H    2.502381   5.563159   5.100223   4.919836   4.481419
    29  H    3.384040   5.104502   4.934945   4.137146   3.761088
                   16         17         18         19         20
    16  H    0.000000
    17  H    1.785557   0.000000
    18  C    4.611769   4.128256   0.000000
    19  H    5.257415   4.580043   1.098773   0.000000
    20  H    5.235683   4.644728   1.096223   1.757574   0.000000
    21  H    4.796562   4.704327   1.093043   1.767189   1.769936
    22  C    4.581674   4.694775   3.320647   4.397019   2.939651
    23  H    5.017590   4.735480   3.220330   4.192456   2.559607
    24  H    5.279362   5.564308   4.377720   5.448684   3.933204
    25  H    4.850955   5.060085   2.849010   3.906199   2.577726
    26  C    3.097949   3.039723   4.349676   5.283409   4.279308
    27  H    4.008914   4.054256   5.239561   6.208840   5.015335
    28  H    3.551437   2.901535   4.019004   4.838342   3.828898
    29  H    2.334179   2.497355   4.838972   5.698179   4.976376
                   21         22         23         24         25
    21  H    0.000000
    22  C    3.322254   0.000000
    23  H    3.520782   1.090948   0.000000
    24  H    4.271834   1.100190   1.779647   0.000000
    25  H    2.551266   1.090911   1.795796   1.764611   0.000000
    26  C    4.729326   2.574067   2.701627   3.035944   3.458512
    27  H    5.569107   2.854566   2.960704   2.924993   3.880220
    28  H    4.626756   2.806707   2.509851   3.443705   3.663364
    29  H    5.200755   3.494395   3.729819   3.960334   4.249746
                   26         27         28         29
    26  C    0.000000
    27  H    1.099953   0.000000
    28  H    1.091848   1.766827   0.000000
    29  H    1.088624   1.778602   1.797657   0.000000
 Framework group  C1[X(C8H16Cl3FeO)]
 Deg. of freedom    81
                         Standard orientation:                         
 ---------------------------------------------------------------------
 Center     Atomic      Atomic             Coordinates (Angstroms)
 Number     Number       Type             X           Y           Z
 ---------------------------------------------------------------------
      1          8           0        0.218929    0.414947   -0.839620
      2          6           0        0.936321    1.415005   -0.626172
      3          6           0        3.198865   -0.017954    0.486267
      4          6           0        2.595928   -0.952070   -0.272978
      5          6           0        2.932861   -1.111570   -1.732190
      6         26           0       -1.469975   -0.166135    0.032138
      7         17           0       -2.082705   -1.937845   -1.064370
      8          6           0        1.647543   -1.991435    0.253504
      9         17           0       -2.691000    1.619076   -0.308556
     10         17           0       -1.084445   -0.488321    2.165216
     11          1           0        3.933615    0.624589   -0.001519
     12          1           0        2.146158   -2.970557    0.259122
     13          1           0        1.291517   -1.792397    1.264098
     14          1           0        0.778482   -2.099534   -0.405514
     15          1           0        3.362784   -2.105499   -1.913619
     16          1           0        2.028041   -1.050432   -2.350537
     17          1           0        3.654626   -0.365833   -2.078948
     18          6           0        3.072619    0.167367    1.973146
     19          1           0        3.927065   -0.288345    2.492328
     20          1           0        3.076094    1.229416    2.244706
     21          1           0        2.163343   -0.280791    2.381942
     22          6           0        0.816564    2.205008    0.637133
     23          1           0        1.691781    2.833337    0.808494
     24          1           0       -0.064507    2.853727    0.521822
     25          1           0        0.631687    1.556532    1.494680
     26          6           0        1.744354    1.976072   -1.752975
     27          1           0        1.207390    2.866338   -2.112130
     28          1           0        2.729593    2.302773   -1.414297
     29          1           0        1.828466    1.264573   -2.572607
 ---------------------------------------------------------------------
 Rotational constants (GHZ):           0.5631369           0.3227236           0.3040866
   427 basis functions,  1056 primitive gaussians,   461 cartesian basis functions
    77 alpha electrons       72 beta electrons
       nuclear repulsion energy      1621.2778301193 Hartrees.
 NAtoms=   29 NActive=   29 NUniq=   29 SFac= 1.00D+00 NAtFMM=   60 NAOKFM=F Big=F
 Initial guess from the checkpoint file:  "checkpoint.chk"
 B after Tr=     0.000000    0.000000    0.000000
         Rot=    1.000000    0.000000    0.000000    0.000000 Ang=   0.00 deg.
 Initial guess <Sx>= 0.0000 <Sy>= 0.0000 <Sz>= 2.5000 <S**2>= 8.7630 S= 2.5022
 SCF Done:  E(UB3LYP) =  -3034.35599178     A.U. after   13 cycles
            NFock= 13  Conv=0.89D-08     -V/T= 2.0024
 <Sx>= 0.0000 <Sy>= 0.0000 <Sz>= 2.5000 <S**2>= 8.7622 S= 2.5020
 <L.S>= 0.000000000000E+00
 Annihilation of the first spin contaminant:
 S**2 before annihilation     8.7622,   after     8.7500
 1\1\GINC-HOLY7C08308\SP\UB3LYP\Jul-CC-pVDZ\C8H16Cl3Fe1O1(6)\EKWAN\12-F
 eb-2020\0\\#t pop=none jul-cc-pvdz guess=read ub3lyp\\theory_abbreviat
 ion b3lyp\\0,6\O,0,0.218929,0.414947,-0.83962\C,0,0.936321,1.415005,-0
 .626172\C,0,3.198865,-0.017954,0.486267\C,0,2.595928,-0.95207,-0.27297
 8\C,0,2.932861,-1.11157,-1.73219\Fe,0,-1.469975,-0.166135,0.032138\Cl,
 0,-2.082705,-1.937845,-1.06437\C,0,1.647543,-1.991435,0.253504\Cl,0,-2
 .691,1.619076,-0.308556\Cl,0,-1.084445,-0.488321,2.165216\H,0,3.933615
 ,0.624589,-0.001519\H,0,2.146158,-2.970557,0.259122\H,0,1.291517,-1.79
 2397,1.264098\H,0,0.778482,-2.099534,-0.405514\H,0,3.362784,-2.105499,
 -1.913619\H,0,2.028041,-1.050432,-2.350537\H,0,3.654626,-0.365833,-2.0
 78948\C,0,3.072619,0.167367,1.973146\H,0,3.927065,-0.288345,2.492328\H
 ,0,3.076094,1.229416,2.244706\H,0,2.163343,-0.280791,2.381942\C,0,0.81
 6564,2.205008,0.637133\H,0,1.691781,2.833337,0.808494\H,0,-0.064507,2.
 853727,0.521822\H,0,0.631687,1.556532,1.49468\C,0,1.744354,1.976072,-1
 .752975\H,0,1.20739,2.866338,-2.11213\H,0,2.729593,2.302773,-1.414297\
 H,0,1.828466,1.264573,-2.572607\\Version=ES64L-G16RevA.03\HF=-3034.355
 9918\S2=8.762238\S2-1=0.\S2A=8.750046\RMSD=8.855e-09\PG=C01 [X(C8H16Cl
 3Fe1O1)]\\@


 I HAVE NOT FAILED, I HAVE ONLY DISCOVERED 10,000
 WAYS THAT DIDN'T WORK.  -- THOMAS A. EDISON
 Job cpu time:       0 days  0 hours 51 minutes 55.1 seconds.
 Elapsed time:       0 days  0 hours 13 minutes  1.2 seconds.
 File lengths (MBytes):  RWF=    174 Int=      0 D2E=      0 Chk=     13 Scr=      1
 Normal termination of Gaussian 16 at Wed Feb 12 14:25:39 2020.
 Initial command:
 /n/sw/g16_nehalem/g16/l1.exe "/scratch/Gau-150906.inp" -scrdir="/scratch/"
 Entering Link 1 = /n/sw/g16_nehalem/g16/l1.exe PID=    153189.
  
 Copyright (c) 1988,1990,1992,1993,1995,1998,2003,2009,2016,
            Gaussian, Inc.  All Rights Reserved.
  
 This is part of the Gaussian(R) 16 program.  It is based on
 the Gaussian(R) 09 system (copyright 2009, Gaussian, Inc.),
 the Gaussian(R) 03 system (copyright 2003, Gaussian, Inc.),
 the Gaussian(R) 98 system (copyright 1998, Gaussian, Inc.),
 the Gaussian(R) 94 system (copyright 1995, Gaussian, Inc.),
 the Gaussian 92(TM) system (copyright 1992, Gaussian, Inc.),
 the Gaussian 90(TM) system (copyright 1990, Gaussian, Inc.),
 the Gaussian 88(TM) system (copyright 1988, Gaussian, Inc.),
 the Gaussian 86(TM) system (copyright 1986, Carnegie Mellon
 University), and the Gaussian 82(TM) system (copyright 1983,
 Carnegie Mellon University). Gaussian is a federally registered
 trademark of Gaussian, Inc.
  
 This software contains proprietary and confidential information,
 including trade secrets, belonging to Gaussian, Inc.
  
 This software is provided under written license and may be
 used, copied, transmitted, or stored only in accord with that
 written license.
  
 The following legend is applicable only to US Government
 contracts under FAR:
  
                    RESTRICTED RIGHTS LEGEND
  
 Use, reproduction and disclosure by the US Government is
 subject to restrictions as set forth in subparagraphs (a)
 and (c) of the Commercial Computer Software - Restricted
 Rights clause in FAR 52.227-19.
  
 Gaussian, Inc.
 340 Quinnipiac St., Bldg. 40, Wallingford CT 06492
  
  
 ---------------------------------------------------------------
 Warning -- This program may not be used in any manner that
 competes with the business of Gaussian, Inc. or will provide
 assistance to any competitor of Gaussian, Inc.  The licensee
 of this program is prohibited from giving any competitor of
 Gaussian, Inc. access to this program.  By using this program,
 the user acknowledges that Gaussian, Inc. is engaged in the
 business of creating and licensing software in the field of
 computational chemistry and represents and warrants to the
 licensee that it is not a competitor of Gaussian, Inc. and that
 it will not use this program in any manner prohibited above.
 ---------------------------------------------------------------
  

 Cite this work as:
 Gaussian 16, Revision A.03,
 M. J. Frisch, G. W. Trucks, H. B. Schlegel, G. E. Scuseria, 
 M. A. Robb, J. R. Cheeseman, G. Scalmani, V. Barone, 
 G. A. Petersson, H. Nakatsuji, X. Li, M. Caricato, A. V. Marenich, 
 J. Bloino, B. G. Janesko, R. Gomperts, B. Mennucci, H. P. Hratchian, 
 J. V. Ortiz, A. F. Izmaylov, J. L. Sonnenberg, D. Williams-Young, 
 F. Ding, F. Lipparini, F. Egidi, J. Goings, B. Peng, A. Petrone, 
 T. Henderson, D. Ranasinghe, V. G. Zakrzewski, J. Gao, N. Rega, 
 G. Zheng, W. Liang, M. Hada, M. Ehara, K. Toyota, R. Fukuda, 
 J. Hasegawa, M. Ishida, T. Nakajima, Y. Honda, O. Kitao, H. Nakai, 
 T. Vreven, K. Throssell, J. A. Montgomery, Jr., J. E. Peralta, 
 F. Ogliaro, M. J. Bearpark, J. J. Heyd, E. N. Brothers, K. N. Kudin, 
 V. N. Staroverov, T. A. Keith, R. Kobayashi, J. Normand, 
 K. Raghavachari, A. P. Rendell, J. C. Burant, S. S. Iyengar, 
 J. Tomasi, M. Cossi, J. M. Millam, M. Klene, C. Adamo, R. Cammi, 
 J. W. Ochterski, R. L. Martin, K. Morokuma, O. Farkas, 
 J. B. Foresman, and D. J. Fox, Gaussian, Inc., Wallingford CT, 2016.
 
 ******************************************
 Gaussian 16:  ES64L-G16RevA.03 25-Dec-2016
                12-Feb-2020 
 ******************************************
 %chk=checkpoint.chk
 %mem=3GB
 %nprocshared=4
 Will use up to    4 processors via shared memory.
 -------------------------------------------------------------------
 #t pop=none jul-cc-pvdz guess=read ub3lyp empiricaldispersion=gd3bj
 -------------------------------------------------------------------
 ------------------------------
 theory_abbreviation b3lyp_d3bj
 ------------------------------
 Symbolic Z-matrix:
 Charge =  0 Multiplicity = 6
 O                     0.21893   0.41495  -0.83962 
 C                     0.93632   1.41501  -0.62617 
 C                     3.19887  -0.01795   0.48627 
 C                     2.59593  -0.95207  -0.27298 
 C                     2.93286  -1.11157  -1.73219 
 Fe                   -1.46998  -0.16614   0.03214 
 Cl                   -2.08271  -1.93785  -1.06437 
 C                     1.64754  -1.99144   0.2535 
 Cl                   -2.691     1.61908  -0.30856 
 Cl                   -1.08445  -0.48832   2.16522 
 H                     3.93362   0.62459  -0.00152 
 H                     2.14616  -2.97056   0.25912 
 H                     1.29152  -1.7924    1.2641 
 H                     0.77848  -2.09953  -0.40551 
 H                     3.36278  -2.1055   -1.91362 
 H                     2.02804  -1.05043  -2.35054 
 H                     3.65463  -0.36583  -2.07895 
 C                     3.07262   0.16737   1.97315 
 H                     3.92707  -0.28835   2.49233 
 H                     3.07609   1.22942   2.24471 
 H                     2.16334  -0.28079   2.38194 
 C                     0.81656   2.20501   0.63713 
 H                     1.69178   2.83334   0.80849 
 H                    -0.06451   2.85373   0.52182 
 H                     0.63169   1.55653   1.49468 
 C                     1.74435   1.97607  -1.75298 
 H                     1.20739   2.86634  -2.11213 
 H                     2.72959   2.30277  -1.4143 
 H                     1.82847   1.26457  -2.57261 
 
                    Distance matrix (angstroms):
                    1          2          3          4          5
     1  O    0.000000
     2  C    1.249131   0.000000
     3  C    3.290197   2.900000   0.000000
     4  C    2.799990   2.912402   1.346313   0.000000
     5  C    3.239192   3.404854   2.487631   1.506076   0.000000
     6  Fe   1.987464   2.953580   4.693214   4.152392   4.836493
     7  Cl   3.299040   4.533005   5.829703   4.846407   5.126852
     8  C    3.004419   3.589359   2.520993   1.502297   2.523725
     9  Cl   3.193688   3.646914   6.164586   5.879087   6.411784
    10  Cl   3.397604   3.936749   4.624593   4.439031   5.631781
    11  H    3.813824   3.162075   1.091171   2.085414   2.647825
    12  H    4.047602   4.634717   3.142873   2.135349   2.835500
    13  H    3.232405   3.739881   2.718758   2.184088   3.483572
    14  H    2.612310   3.524995   3.314589   2.153451   2.716154
    15  H    4.170125   4.465332   3.184991   2.147131   1.098019
    16  H    2.775444   3.200573   3.237946   2.156020   1.097629
    17  H    3.734912   3.559652   2.628510   2.173946   1.094216
    18  C    4.014535   3.588429   1.503692   2.554495   3.922337
    19  H    5.034558   4.644458   2.151201   3.139964   4.417317
    20  H    4.282501   3.585389   2.159424   3.365735   4.616972
    21  H    3.826651   3.664704   2.175999   2.772426   4.267134
    22  C    2.396307   1.494786   3.261852   3.736520   4.592613
    23  H    3.276306   2.154217   3.241141   4.039353   4.853622
    24  H    2.807402   2.095106   4.347115   4.711020   5.457872
    25  H    2.631072   2.147288   3.175894   3.643617   4.777746
    26  C    2.366062   1.495794   3.332559   3.389629   3.308552
    27  H    2.933540   2.094736   4.363116   4.459906   4.352626
    28  H    3.193364   2.150604   3.036138   3.451736   3.435129
    29  H    2.513109   2.146430   3.588813   3.284935   2.751735
                    6          7          8          9         10
     6  Fe   0.000000
     7  Cl   2.171802   0.000000
     8  C    3.619343   3.956566   0.000000
     9  Cl   2.189510   3.686864   5.672271   0.000000
    10  Cl   2.191451   3.678025   3.657561   3.625147   0.000000
    11  H    5.461242   6.625091   3.483496   6.705878   5.578014
    12  H    4.581782   4.549880   1.098785   6.692166   4.497942
    13  H    3.433408   4.102230   1.089803   5.474653   2.856190
    14  H    2.997521   2.940515   1.096019   5.086725   3.560219
    15  H    5.559016   5.513863   2.766132   7.286768   6.247400
    16  H    4.323799   4.397722   2.794869   5.793557   5.513217
    17  H    5.545998   6.034696   3.480129   6.880488   6.362918
    18  C    4.951151   6.343168   3.106193   6.366547   4.212837
    19  H    5.932580   7.175534   3.620645   7.435186   5.026154
    20  H    5.244975   6.898894   4.047163   6.319047   4.501891
    21  H    4.328478   5.714177   2.778957   5.866253   3.261620
    22  C    3.349119   5.335176   4.295094   3.679762   3.633579
    23  H    4.426767   6.365418   4.856789   4.683055   4.536688
    24  H    3.366704   5.435834   5.145746   3.018668   3.861386
    25  H    3.086032   5.111490   3.893655   3.780981   2.752481
    26  C    4.255301   5.517183   4.447071   4.678264   5.424717
    27  H    4.578434   5.916308   5.421062   4.472805   5.899316
    28  H    5.081737   6.423667   4.732084   5.574310   5.928744
    29  H    4.439745   5.275179   4.315232   5.067265   5.831351
                   11         12         13         14         15
    11  H    0.000000
    12  H    4.023433   0.000000
    13  H    3.797932   1.768742   0.000000
    14  H    4.187950   1.752415   1.773455   0.000000
    15  H    3.381620   2.636154   3.806056   2.992162   0.000000
    16  H    3.457570   3.242091   3.762787   2.538726   1.756588
    17  H    2.318293   3.811382   4.335358   3.752107   1.771706
    18  C    2.202196   3.693613   2.741487   4.007484   4.511880
    19  H    2.655704   3.918303   3.273658   4.646662   4.799253
    20  H    2.479251   4.737837   3.643852   4.835762   5.338119
    21  H    3.103943   3.426587   2.072344   3.604938   4.818720
    22  C    3.552690   5.356975   4.074054   4.429181   5.618723
    23  H    3.249694   5.847517   4.665319   5.161506   5.881688
    24  H    4.607377   6.235249   4.896554   5.109342   6.501663
    25  H    3.742974   4.931000   3.421092   4.122997   5.699637
    26  C    3.112389   5.355289   4.848623   4.399900   4.393671
    27  H    4.112471   6.369730   5.754112   5.268433   5.422573
    28  H    2.502381   5.563159   5.100223   4.919836   4.481419
    29  H    3.384040   5.104502   4.934945   4.137146   3.761088
                   16         17         18         19         20
    16  H    0.000000
    17  H    1.785557   0.000000
    18  C    4.611769   4.128256   0.000000
    19  H    5.257415   4.580043   1.098773   0.000000
    20  H    5.235683   4.644728   1.096223   1.757574   0.000000
    21  H    4.796562   4.704327   1.093043   1.767189   1.769936
    22  C    4.581674   4.694775   3.320647   4.397019   2.939651
    23  H    5.017590   4.735480   3.220330   4.192456   2.559607
    24  H    5.279362   5.564308   4.377720   5.448684   3.933204
    25  H    4.850955   5.060085   2.849010   3.906199   2.577726
    26  C    3.097949   3.039723   4.349676   5.283409   4.279308
    27  H    4.008914   4.054256   5.239561   6.208840   5.015335
    28  H    3.551437   2.901535   4.019004   4.838342   3.828898
    29  H    2.334179   2.497355   4.838972   5.698179   4.976376
                   21         22         23         24         25
    21  H    0.000000
    22  C    3.322254   0.000000
    23  H    3.520782   1.090948   0.000000
    24  H    4.271834   1.100190   1.779647   0.000000
    25  H    2.551266   1.090911   1.795796   1.764611   0.000000
    26  C    4.729326   2.574067   2.701627   3.035944   3.458512
    27  H    5.569107   2.854566   2.960704   2.924993   3.880220
    28  H    4.626756   2.806707   2.509851   3.443705   3.663364
    29  H    5.200755   3.494395   3.729819   3.960334   4.249746
                   26         27         28         29
    26  C    0.000000
    27  H    1.099953   0.000000
    28  H    1.091848   1.766827   0.000000
    29  H    1.088624   1.778602   1.797657   0.000000
 Framework group  C1[X(C8H16Cl3FeO)]
 Deg. of freedom    81
                         Standard orientation:                         
 ---------------------------------------------------------------------
 Center     Atomic      Atomic             Coordinates (Angstroms)
 Number     Number       Type             X           Y           Z
 ---------------------------------------------------------------------
      1          8           0        0.218929    0.414947   -0.839620
      2          6           0        0.936321    1.415005   -0.626172
      3          6           0        3.198865   -0.017954    0.486267
      4          6           0        2.595928   -0.952070   -0.272978
      5          6           0        2.932861   -1.111570   -1.732190
      6         26           0       -1.469975   -0.166135    0.032138
      7         17           0       -2.082705   -1.937845   -1.064370
      8          6           0        1.647543   -1.991435    0.253504
      9         17           0       -2.691000    1.619076   -0.308556
     10         17           0       -1.084445   -0.488321    2.165216
     11          1           0        3.933615    0.624589   -0.001519
     12          1           0        2.146158   -2.970557    0.259122
     13          1           0        1.291517   -1.792397    1.264098
     14          1           0        0.778482   -2.099534   -0.405514
     15          1           0        3.362784   -2.105499   -1.913619
     16          1           0        2.028041   -1.050432   -2.350537
     17          1           0        3.654626   -0.365833   -2.078948
     18          6           0        3.072619    0.167367    1.973146
     19          1           0        3.927065   -0.288345    2.492328
     20          1           0        3.076094    1.229416    2.244706
     21          1           0        2.163343   -0.280791    2.381942
     22          6           0        0.816564    2.205008    0.637133
     23          1           0        1.691781    2.833337    0.808494
     24          1           0       -0.064507    2.853727    0.521822
     25          1           0        0.631687    1.556532    1.494680
     26          6           0        1.744354    1.976072   -1.752975
     27          1           0        1.207390    2.866338   -2.112130
     28          1           0        2.729593    2.302773   -1.414297
     29          1           0        1.828466    1.264573   -2.572607
 ---------------------------------------------------------------------
 Rotational constants (GHZ):           0.5631369           0.3227236           0.3040866
   427 basis functions,  1056 primitive gaussians,   461 cartesian basis functions
    77 alpha electrons       72 beta electrons
       nuclear repulsion energy      1621.2778301193 Hartrees.
 NAtoms=   29 NActive=   29 NUniq=   29 SFac= 1.00D+00 NAtFMM=   60 NAOKFM=F Big=F
 Nuclear repulsion after empirical dispersion term =     1621.2108307825 Hartrees.
 Initial guess from the checkpoint file:  "checkpoint.chk"
 B after Tr=     0.000000    0.000000    0.000000
         Rot=    1.000000    0.000000    0.000000    0.000000 Ang=   0.00 deg.
 Initial guess <Sx>= 0.0000 <Sy>= 0.0000 <Sz>= 2.5000 <S**2>= 8.7622 S= 2.5020
 SCF Done:  E(UB3LYP) =  -3034.42299112     A.U. after    1 cycles
            NFock=  1  Conv=0.80D-08     -V/T= 2.0024
 <Sx>= 0.0000 <Sy>= 0.0000 <Sz>= 2.5000 <S**2>= 8.7622 S= 2.5020
 <L.S>= 0.000000000000E+00
 Annihilation of the first spin contaminant:
 S**2 before annihilation     8.7622,   after     8.7500
 1\1\GINC-HOLY7C08308\SP\UB3LYP\Jul-CC-pVDZ\C8H16Cl3Fe1O1(6)\EKWAN\12-F
 eb-2020\0\\#t pop=none jul-cc-pvdz guess=read ub3lyp empiricaldispersi
 on=gd3bj\\theory_abbreviation b3lyp_d3bj\\0,6\O,0,0.218929,0.414947,-0
 .83962\C,0,0.936321,1.415005,-0.626172\C,0,3.198865,-0.017954,0.486267
 \C,0,2.595928,-0.95207,-0.272978\C,0,2.932861,-1.11157,-1.73219\Fe,0,-
 1.469975,-0.166135,0.032138\Cl,0,-2.082705,-1.937845,-1.06437\C,0,1.64
 7543,-1.991435,0.253504\Cl,0,-2.691,1.619076,-0.308556\Cl,0,-1.084445,
 -0.488321,2.165216\H,0,3.933615,0.624589,-0.001519\H,0,2.146158,-2.970
 557,0.259122\H,0,1.291517,-1.792397,1.264098\H,0,0.778482,-2.099534,-0
 .405514\H,0,3.362784,-2.105499,-1.913619\H,0,2.028041,-1.050432,-2.350
 537\H,0,3.654626,-0.365833,-2.078948\C,0,3.072619,0.167367,1.973146\H,
 0,3.927065,-0.288345,2.492328\H,0,3.076094,1.229416,2.244706\H,0,2.163
 343,-0.280791,2.381942\C,0,0.816564,2.205008,0.637133\H,0,1.691781,2.8
 33337,0.808494\H,0,-0.064507,2.853727,0.521822\H,0,0.631687,1.556532,1
 .49468\C,0,1.744354,1.976072,-1.752975\H,0,1.20739,2.866338,-2.11213\H
 ,0,2.729593,2.302773,-1.414297\H,0,1.828466,1.264573,-2.572607\\Versio
 n=ES64L-G16RevA.03\HF=-3034.4229911\S2=8.762238\S2-1=0.\S2A=8.750046\R
 MSD=7.954e-09\PG=C01 [X(C8H16Cl3Fe1O1)]\\@


 Sacred cows make the best hamburger.
                               -- Mark Twain
 Job cpu time:       0 days  0 hours  4 minutes 25.5 seconds.
 Elapsed time:       0 days  0 hours  1 minutes  7.1 seconds.
 File lengths (MBytes):  RWF=    170 Int=      0 D2E=      0 Chk=     13 Scr=      1
 Normal termination of Gaussian 16 at Wed Feb 12 14:26:47 2020.
 Initial command:
 /n/sw/g16_nehalem/g16/l1.exe "/scratch/Gau-150906.inp" -scrdir="/scratch/"
 Entering Link 1 = /n/sw/g16_nehalem/g16/l1.exe PID=    153272.
  
 Copyright (c) 1988,1990,1992,1993,1995,1998,2003,2009,2016,
            Gaussian, Inc.  All Rights Reserved.
  
 This is part of the Gaussian(R) 16 program.  It is based on
 the Gaussian(R) 09 system (copyright 2009, Gaussian, Inc.),
 the Gaussian(R) 03 system (copyright 2003, Gaussian, Inc.),
 the Gaussian(R) 98 system (copyright 1998, Gaussian, Inc.),
 the Gaussian(R) 94 system (copyright 1995, Gaussian, Inc.),
 the Gaussian 92(TM) system (copyright 1992, Gaussian, Inc.),
 the Gaussian 90(TM) system (copyright 1990, Gaussian, Inc.),
 the Gaussian 88(TM) system (copyright 1988, Gaussian, Inc.),
 the Gaussian 86(TM) system (copyright 1986, Carnegie Mellon
 University), and the Gaussian 82(TM) system (copyright 1983,
 Carnegie Mellon University). Gaussian is a federally registered
 trademark of Gaussian, Inc.
  
 This software contains proprietary and confidential information,
 including trade secrets, belonging to Gaussian, Inc.
  
 This software is provided under written license and may be
 used, copied, transmitted, or stored only in accord with that
 written license.
  
 The following legend is applicable only to US Government
 contracts under FAR:
  
                    RESTRICTED RIGHTS LEGEND
  
 Use, reproduction and disclosure by the US Government is
 subject to restrictions as set forth in subparagraphs (a)
 and (c) of the Commercial Computer Software - Restricted
 Rights clause in FAR 52.227-19.
  
 Gaussian, Inc.
 340 Quinnipiac St., Bldg. 40, Wallingford CT 06492
  
  
 ---------------------------------------------------------------
 Warning -- This program may not be used in any manner that
 competes with the business of Gaussian, Inc. or will provide
 assistance to any competitor of Gaussian, Inc.  The licensee
 of this program is prohibited from giving any competitor of
 Gaussian, Inc. access to this program.  By using this program,
 the user acknowledges that Gaussian, Inc. is engaged in the
 business of creating and licensing software in the field of
 computational chemistry and represents and warrants to the
 licensee that it is not a competitor of Gaussian, Inc. and that
 it will not use this program in any manner prohibited above.
 ---------------------------------------------------------------
  

 Cite this work as:
 Gaussian 16, Revision A.03,
 M. J. Frisch, G. W. Trucks, H. B. Schlegel, G. E. Scuseria, 
 M. A. Robb, J. R. Cheeseman, G. Scalmani, V. Barone, 
 G. A. Petersson, H. Nakatsuji, X. Li, M. Caricato, A. V. Marenich, 
 J. Bloino, B. G. Janesko, R. Gomperts, B. Mennucci, H. P. Hratchian, 
 J. V. Ortiz, A. F. Izmaylov, J. L. Sonnenberg, D. Williams-Young, 
 F. Ding, F. Lipparini, F. Egidi, J. Goings, B. Peng, A. Petrone, 
 T. Henderson, D. Ranasinghe, V. G. Zakrzewski, J. Gao, N. Rega, 
 G. Zheng, W. Liang, M. Hada, M. Ehara, K. Toyota, R. Fukuda, 
 J. Hasegawa, M. Ishida, T. Nakajima, Y. Honda, O. Kitao, H. Nakai, 
 T. Vreven, K. Throssell, J. A. Montgomery, Jr., J. E. Peralta, 
 F. Ogliaro, M. J. Bearpark, J. J. Heyd, E. N. Brothers, K. N. Kudin, 
 V. N. Staroverov, T. A. Keith, R. Kobayashi, J. Normand, 
 K. Raghavachari, A. P. Rendell, J. C. Burant, S. S. Iyengar, 
 J. Tomasi, M. Cossi, J. M. Millam, M. Klene, C. Adamo, R. Cammi, 
 J. W. Ochterski, R. L. Martin, K. Morokuma, O. Farkas, 
 J. B. Foresman, and D. J. Fox, Gaussian, Inc., Wallingford CT, 2016.
 
 ******************************************
 Gaussian 16:  ES64L-G16RevA.03 25-Dec-2016
                12-Feb-2020 
 ******************************************
 %chk=checkpoint.chk
 %mem=3GB
 %nprocshared=4
 Will use up to    4 processors via shared memory.
 ----------------------------------------
 #t pop=none jul-cc-pvdz guess=read ub97d
 ----------------------------------------
 ------------------------
 theory_abbreviation b97d
 ------------------------
 Symbolic Z-matrix:
 Charge =  0 Multiplicity = 6
 O                     0.21893   0.41495  -0.83962 
 C                     0.93632   1.41501  -0.62617 
 C                     3.19887  -0.01795   0.48627 
 C                     2.59593  -0.95207  -0.27298 
 C                     2.93286  -1.11157  -1.73219 
 Fe                   -1.46998  -0.16614   0.03214 
 Cl                   -2.08271  -1.93785  -1.06437 
 C                     1.64754  -1.99144   0.2535 
 Cl                   -2.691     1.61908  -0.30856 
 Cl                   -1.08445  -0.48832   2.16522 
 H                     3.93362   0.62459  -0.00152 
 H                     2.14616  -2.97056   0.25912 
 H                     1.29152  -1.7924    1.2641 
 H                     0.77848  -2.09953  -0.40551 
 H                     3.36278  -2.1055   -1.91362 
 H                     2.02804  -1.05043  -2.35054 
 H                     3.65463  -0.36583  -2.07895 
 C                     3.07262   0.16737   1.97315 
 H                     3.92707  -0.28835   2.49233 
 H                     3.07609   1.22942   2.24471 
 H                     2.16334  -0.28079   2.38194 
 C                     0.81656   2.20501   0.63713 
 H                     1.69178   2.83334   0.80849 
 H                    -0.06451   2.85373   0.52182 
 H                     0.63169   1.55653   1.49468 
 C                     1.74435   1.97607  -1.75298 
 H                     1.20739   2.86634  -2.11213 
 H                     2.72959   2.30277  -1.4143 
 H                     1.82847   1.26457  -2.57261 
 
                    Distance matrix (angstroms):
                    1          2          3          4          5
     1  O    0.000000
     2  C    1.249131   0.000000
     3  C    3.290197   2.900000   0.000000
     4  C    2.799990   2.912402   1.346313   0.000000
     5  C    3.239192   3.404854   2.487631   1.506076   0.000000
     6  Fe   1.987464   2.953580   4.693214   4.152392   4.836493
     7  Cl   3.299040   4.533005   5.829703   4.846407   5.126852
     8  C    3.004419   3.589359   2.520993   1.502297   2.523725
     9  Cl   3.193688   3.646914   6.164586   5.879087   6.411784
    10  Cl   3.397604   3.936749   4.624593   4.439031   5.631781
    11  H    3.813824   3.162075   1.091171   2.085414   2.647825
    12  H    4.047602   4.634717   3.142873   2.135349   2.835500
    13  H    3.232405   3.739881   2.718758   2.184088   3.483572
    14  H    2.612310   3.524995   3.314589   2.153451   2.716154
    15  H    4.170125   4.465332   3.184991   2.147131   1.098019
    16  H    2.775444   3.200573   3.237946   2.156020   1.097629
    17  H    3.734912   3.559652   2.628510   2.173946   1.094216
    18  C    4.014535   3.588429   1.503692   2.554495   3.922337
    19  H    5.034558   4.644458   2.151201   3.139964   4.417317
    20  H    4.282501   3.585389   2.159424   3.365735   4.616972
    21  H    3.826651   3.664704   2.175999   2.772426   4.267134
    22  C    2.396307   1.494786   3.261852   3.736520   4.592613
    23  H    3.276306   2.154217   3.241141   4.039353   4.853622
    24  H    2.807402   2.095106   4.347115   4.711020   5.457872
    25  H    2.631072   2.147288   3.175894   3.643617   4.777746
    26  C    2.366062   1.495794   3.332559   3.389629   3.308552
    27  H    2.933540   2.094736   4.363116   4.459906   4.352626
    28  H    3.193364   2.150604   3.036138   3.451736   3.435129
    29  H    2.513109   2.146430   3.588813   3.284935   2.751735
                    6          7          8          9         10
     6  Fe   0.000000
     7  Cl   2.171802   0.000000
     8  C    3.619343   3.956566   0.000000
     9  Cl   2.189510   3.686864   5.672271   0.000000
    10  Cl   2.191451   3.678025   3.657561   3.625147   0.000000
    11  H    5.461242   6.625091   3.483496   6.705878   5.578014
    12  H    4.581782   4.549880   1.098785   6.692166   4.497942
    13  H    3.433408   4.102230   1.089803   5.474653   2.856190
    14  H    2.997521   2.940515   1.096019   5.086725   3.560219
    15  H    5.559016   5.513863   2.766132   7.286768   6.247400
    16  H    4.323799   4.397722   2.794869   5.793557   5.513217
    17  H    5.545998   6.034696   3.480129   6.880488   6.362918
    18  C    4.951151   6.343168   3.106193   6.366547   4.212837
    19  H    5.932580   7.175534   3.620645   7.435186   5.026154
    20  H    5.244975   6.898894   4.047163   6.319047   4.501891
    21  H    4.328478   5.714177   2.778957   5.866253   3.261620
    22  C    3.349119   5.335176   4.295094   3.679762   3.633579
    23  H    4.426767   6.365418   4.856789   4.683055   4.536688
    24  H    3.366704   5.435834   5.145746   3.018668   3.861386
    25  H    3.086032   5.111490   3.893655   3.780981   2.752481
    26  C    4.255301   5.517183   4.447071   4.678264   5.424717
    27  H    4.578434   5.916308   5.421062   4.472805   5.899316
    28  H    5.081737   6.423667   4.732084   5.574310   5.928744
    29  H    4.439745   5.275179   4.315232   5.067265   5.831351
                   11         12         13         14         15
    11  H    0.000000
    12  H    4.023433   0.000000
    13  H    3.797932   1.768742   0.000000
    14  H    4.187950   1.752415   1.773455   0.000000
    15  H    3.381620   2.636154   3.806056   2.992162   0.000000
    16  H    3.457570   3.242091   3.762787   2.538726   1.756588
    17  H    2.318293   3.811382   4.335358   3.752107   1.771706
    18  C    2.202196   3.693613   2.741487   4.007484   4.511880
    19  H    2.655704   3.918303   3.273658   4.646662   4.799253
    20  H    2.479251   4.737837   3.643852   4.835762   5.338119
    21  H    3.103943   3.426587   2.072344   3.604938   4.818720
    22  C    3.552690   5.356975   4.074054   4.429181   5.618723
    23  H    3.249694   5.847517   4.665319   5.161506   5.881688
    24  H    4.607377   6.235249   4.896554   5.109342   6.501663
    25  H    3.742974   4.931000   3.421092   4.122997   5.699637
    26  C    3.112389   5.355289   4.848623   4.399900   4.393671
    27  H    4.112471   6.369730   5.754112   5.268433   5.422573
    28  H    2.502381   5.563159   5.100223   4.919836   4.481419
    29  H    3.384040   5.104502   4.934945   4.137146   3.761088
                   16         17         18         19         20
    16  H    0.000000
    17  H    1.785557   0.000000
    18  C    4.611769   4.128256   0.000000
    19  H    5.257415   4.580043   1.098773   0.000000
    20  H    5.235683   4.644728   1.096223   1.757574   0.000000
    21  H    4.796562   4.704327   1.093043   1.767189   1.769936
    22  C    4.581674   4.694775   3.320647   4.397019   2.939651
    23  H    5.017590   4.735480   3.220330   4.192456   2.559607
    24  H    5.279362   5.564308   4.377720   5.448684   3.933204
    25  H    4.850955   5.060085   2.849010   3.906199   2.577726
    26  C    3.097949   3.039723   4.349676   5.283409   4.279308
    27  H    4.008914   4.054256   5.239561   6.208840   5.015335
    28  H    3.551437   2.901535   4.019004   4.838342   3.828898
    29  H    2.334179   2.497355   4.838972   5.698179   4.976376
                   21         22         23         24         25
    21  H    0.000000
[...]
 Rotational constants (GHZ):           0.5631369           0.3227236           0.3040866
   427 basis functions,  1056 primitive gaussians,   461 cartesian basis functions
    77 alpha electrons       72 beta electrons
       nuclear repulsion energy      1621.2778301193 Hartrees.
 NAtoms=   29 NActive=   29 NUniq=   29 SFac= 1.00D+00 NAtFMM=   60 NAOKFM=F Big=F
 Nuclear repulsion after empirical dispersion term =     1621.2753284366 Hartrees.
 Initial guess from the checkpoint file:  "checkpoint.chk"
 B after Tr=     0.000000    0.000000    0.000000
         Rot=    1.000000    0.000000    0.000000    0.000000 Ang=   0.00 deg.
 Initial guess <Sx>= 0.0000 <Sy>= 0.0000 <Sz>= 2.5000 <S**2>= 8.7619 S= 2.5020
 SCF Done:  E(UM06L) =  -3034.22334865     A.U. after   17 cycles
            NFock= 17  Conv=0.80D-08     -V/T= 2.0020
 <Sx>= 0.0000 <Sy>= 0.0000 <Sz>= 2.5000 <S**2>= 8.7617 S= 2.5020
 <L.S>= 0.000000000000E+00
 Annihilation of the first spin contaminant:
 S**2 before annihilation     8.7617,   after     8.7500
 1\1\GINC-HOLY7C08308\SP\UM06L\Jul-CC-pVDZ\C8H16Cl3Fe1O1(6)\EKWAN\12-Fe
 b-2020\0\\#t pop=none jul-cc-pvdz guess=read um06l empiricaldispersion
 =gd3\\theory_abbreviation m06l_d3\\0,6\O,0,0.218929,0.414947,-0.83962\
 C,0,0.936321,1.415005,-0.626172\C,0,3.198865,-0.017954,0.486267\C,0,2.
 595928,-0.95207,-0.272978\C,0,2.932861,-1.11157,-1.73219\Fe,0,-1.46997
 5,-0.166135,0.032138\Cl,0,-2.082705,-1.937845,-1.06437\C,0,1.647543,-1
 .991435,0.253504\Cl,0,-2.691,1.619076,-0.308556\Cl,0,-1.084445,-0.4883
 21,2.165216\H,0,3.933615,0.624589,-0.001519\H,0,2.146158,-2.970557,0.2
 59122\H,0,1.291517,-1.792397,1.264098\H,0,0.778482,-2.099534,-0.405514
 \H,0,3.362784,-2.105499,-1.913619\H,0,2.028041,-1.050432,-2.350537\H,0
 ,3.654626,-0.365833,-2.078948\C,0,3.072619,0.167367,1.973146\H,0,3.927
 065,-0.288345,2.492328\H,0,3.076094,1.229416,2.244706\H,0,2.163343,-0.
 280791,2.381942\C,0,0.816564,2.205008,0.637133\H,0,1.691781,2.833337,0
 .808494\H,0,-0.064507,2.853727,0.521822\H,0,0.631687,1.556532,1.49468\
 C,0,1.744354,1.976072,-1.752975\H,0,1.20739,2.866338,-2.11213\H,0,2.72
 9593,2.302773,-1.414297\H,0,1.828466,1.264573,-2.572607\\Version=ES64L
 -G16RevA.03\HF=-3034.2233487\S2=8.761741\S2-1=0.\S2A=8.750044\RMSD=8.0
 14e-09\PG=C01 [X(C8H16Cl3Fe1O1)]\\@


 ... UNTIL SCIENCE IS MIXED WITH EMOTION AND APPEALS TO THE HEART AND
 IMAGINATION , IT IS LIKE DEAD INORGANIC MATTER; AND WHEN IT IS SO MIXED
 AND SO TRANSFORMED IT IS LITERATURE.

                                  -- JOHN BURROUGHS
 Job cpu time:       0 days  1 hours 12 minutes 57.3 seconds.
 Elapsed time:       0 days  0 hours 22 minutes 32.5 seconds.
 File lengths (MBytes):  RWF=    174 Int=      0 D2E=      0 Chk=     13 Scr=      1
 Normal termination of Gaussian 16 at Wed Feb 12 22:40:34 2020.
 Initial command:
 /n/sw/g16_nehalem/g16/l1.exe "/scratch/Gau-150906.inp" -scrdir="/scratch/"
 Entering Link 1 = /n/sw/g16_nehalem/g16/l1.exe PID=    192538.
  
 Copyright (c) 1988,1990,1992,1993,1995,1998,2003,2009,2016,
            Gaussian, Inc.  All Rights Reserved.
  
 This is part of the Gaussian(R) 16 program.  It is based on
 the Gaussian(R) 09 system (copyright 2009, Gaussian, Inc.),
 the Gaussian(R) 03 system (copyright 2003, Gaussian, Inc.),
 the Gaussian(R) 98 system (copyright 1998, Gaussian, Inc.),
 the Gaussian(R) 94 system (copyright 1995, Gaussian, Inc.),
 the Gaussian 92(TM) system (copyright 1992, Gaussian, Inc.),
 the Gaussian 90(TM) system (copyright 1990, Gaussian, Inc.),
 the Gaussian 88(TM) system (copyright 1988, Gaussian, Inc.),
 the Gaussian 86(TM) system (copyright 1986, Carnegie Mellon
 University), and the Gaussian 82(TM) system (copyright 1983,
 Carnegie Mellon University). Gaussian is a federally registered
 trademark of Gaussian, Inc.
  
 This software contains proprietary and confidential information,
 including trade secrets, belonging to Gaussian, Inc.
  
 This software is provided under written license and may be
 used, copied, transmitted, or stored only in accord with that
 written license.
  
 The following legend is applicable only to US Government
 contracts under FAR:
  
                    RESTRICTED RIGHTS LEGEND
  
 Use, reproduction and disclosure by the US Government is
 subject to restrictions as set forth in subparagraphs (a)
 and (c) of the Commercial Computer Software - Restricted
 Rights clause in FAR 52.227-19.
  
 Gaussian, Inc.
 340 Quinnipiac St., Bldg. 40, Wallingford CT 06492
  
  
 ---------------------------------------------------------------
 Warning -- This program may not be used in any manner that
 competes with the business of Gaussian, Inc. or will provide
 assistance to any competitor of Gaussian, Inc.  The licensee
 of this program is prohibited from giving any competitor of
 Gaussian, Inc. access to this program.  By using this program,
 the user acknowledges that Gaussian, Inc. is engaged in the
 business of creating and licensing software in the field of
 computational chemistry and represents and warrants to the
 licensee that it is not a competitor of Gaussian, Inc. and that
 it will not use this program in any manner prohibited above.
 ---------------------------------------------------------------
  

 Cite this work as:
 Gaussian 16, Revision A.03,
 M. J. Frisch, G. W. Trucks, H. B. Schlegel, G. E. Scuseria, 
 M. A. Robb, J. R. Cheeseman, G. Scalmani, V. Barone, 
 G. A. Petersson, H. Nakatsuji, X. Li, M. Caricato, A. V. Marenich, 
 J. Bloino, B. G. Janesko, R. Gomperts, B. Mennucci, H. P. Hratchian, 
 J. V. Ortiz, A. F. Izmaylov, J. L. Sonnenberg, D. Williams-Young, 
 F. Ding, F. Lipparini, F. Egidi, J. Goings, B. Peng, A. Petrone, 
 T. Henderson, D. Ranasinghe, V. G. Zakrzewski, J. Gao, N. Rega, 
 G. Zheng, W. Liang, M. Hada, M. Ehara, K. Toyota, R. Fukuda, 
 J. Hasegawa, M. Ishida, T. Nakajima, Y. Honda, O. Kitao, H. Nakai, 
 T. Vreven, K. Throssell, J. A. Montgomery, Jr., J. E. Peralta, 
 F. Ogliaro, M. J. Bearpark, J. J. Heyd, E. N. Brothers, K. N. Kudin, 
 V. N. Staroverov, T. A. Keith, R. Kobayashi, J. Normand, 
 K. Raghavachari, A. P. Rendell, J. C. Burant, S. S. Iyengar, 
 J. Tomasi, M. Cossi, J. M. Millam, M. Klene, C. Adamo, R. Cammi, 
 J. W. Ochterski, R. L. Martin, K. Morokuma, O. Farkas, 
 J. B. Foresman, and D. J. Fox, Gaussian, Inc., Wallingford CT, 2016.
 
 ******************************************
 Gaussian 16:  ES64L-G16RevA.03 25-Dec-2016
                12-Feb-2020 
 ******************************************
 %chk=checkpoint.chk
 %mem=3GB
 %nprocshared=4
 Will use up to    4 processors via shared memory.
 -------------------------------------------------------------------
 #t pop=none jul-cc-pvdz guess=read ub97d3 empiricaldispersion=gd3bj
 -------------------------------------------------------------------
 ------------------------------
 theory_abbreviation b97d3_d3bj
 ------------------------------
 Symbolic Z-matrix:
 Charge =  0 Multiplicity = 6
 O                     0.21893   0.41495  -0.83962 
 C                     0.93632   1.41501  -0.62617 
 C                     3.19887  -0.01795   0.48627 
 C                     2.59593  -0.95207  -0.27298 
 C                     2.93286  -1.11157  -1.73219 
 Fe                   -1.46998  -0.16614   0.03214 
 Cl                   -2.08271  -1.93785  -1.06437 
 C                     1.64754  -1.99144   0.2535 
 Cl                   -2.691     1.61908  -0.30856 
 Cl                   -1.08445  -0.48832   2.16522 
 H                     3.93362   0.62459  -0.00152 
 H                     2.14616  -2.97056   0.25912 
 H                     1.29152  -1.7924    1.2641 
 H                     0.77848  -2.09953  -0.40551 
 H                     3.36278  -2.1055   -1.91362 
 H                     2.02804  -1.05043  -2.35054 
 H                     3.65463  -0.36583  -2.07895 
 C                     3.07262   0.16737   1.97315 
 H                     3.92707  -0.28835   2.49233 
 H                     3.07609   1.22942   2.24471 
 H                     2.16334  -0.28079   2.38194 
 C                     0.81656   2.20501   0.63713 
 H                     1.69178   2.83334   0.80849 
 H                    -0.06451   2.85373   0.52182 
 H                     0.63169   1.55653   1.49468 
 C                     1.74435   1.97607  -1.75298 
 H                     1.20739   2.86634  -2.11213 
 H                     2.72959   2.30277  -1.4143 
 H                     1.82847   1.26457  -2.57261 
 
                    Distance matrix (angstroms):
                    1          2          3          4          5
     1  O    0.000000
     2  C    1.249131   0.000000
     3  C    3.290197   2.900000   0.000000
     4  C    2.799990   2.912402   1.346313   0.000000
     5  C    3.239192   3.404854   2.487631   1.506076   0.000000
     6  Fe   1.987464   2.953580   4.693214   4.152392   4.836493
     7  Cl   3.299040   4.533005   5.829703   4.846407   5.126852
     8  C    3.004419   3.589359   2.520993   1.502297   2.523725
     9  Cl   3.193688   3.646914   6.164586   5.879087   6.411784
    10  Cl   3.397604   3.936749   4.624593   4.439031   5.631781
    11  H    3.813824   3.162075   1.091171   2.085414   2.647825
    12  H    4.047602   4.634717   3.142873   2.135349   2.835500
    13  H    3.232405   3.739881   2.718758   2.184088   3.483572
    14  H    2.612310   3.524995   3.314589   2.153451   2.716154
    15  H    4.170125   4.465332   3.184991   2.147131   1.098019
    16  H    2.775444   3.200573   3.237946   2.156020   1.097629
    17  H    3.734912   3.559652   2.628510   2.173946   1.094216
    18  C    4.014535   3.588429   1.503692   2.554495   3.922337
    19  H    5.034558   4.644458   2.151201   3.139964   4.417317
    20  H    4.282501   3.585389   2.159424   3.365735   4.616972
    21  H    3.826651   3.664704   2.175999   2.772426   4.267134
    22  C    2.396307   1.494786   3.261852   3.736520   4.592613
    23  H    3.276306   2.154217   3.241141   4.039353   4.853622
    24  H    2.807402   2.095106   4.347115   4.711020   5.457872
    25  H    2.631072   2.147288   3.175894   3.643617   4.777746
    26  C    2.366062   1.495794   3.332559   3.389629   3.308552
    27  H    2.933540   2.094736   4.363116   4.459906   4.352626
    28  H    3.193364   2.150604   3.036138   3.451736   3.435129
    29  H    2.513109   2.146430   3.588813   3.284935   2.751735
                    6          7          8          9         10
     6  Fe   0.000000
     7  Cl   2.171802   0.000000
     8  C    3.619343   3.956566   0.000000
     9  Cl   2.189510   3.686864   5.672271   0.000000
    10  Cl   2.191451   3.678025   3.657561   3.625147   0.000000
    11  H    5.461242   6.625091   3.483496   6.705878   5.578014
    12  H    4.581782   4.549880   1.098785   6.692166   4.497942
    13  H    3.433408   4.102230   1.089803   5.474653   2.856190
    14  H    2.997521   2.940515   1.096019   5.086725   3.560219
    15  H    5.559016   5.513863   2.766132   7.286768   6.247400
    16  H    4.323799   4.397722   2.794869   5.793557   5.513217
    17  H    5.545998   6.034696   3.480129   6.880488   6.362918
    18  C    4.951151   6.343168   3.106193   6.366547   4.212837
    19  H    5.932580   7.175534   3.620645   7.435186   5.026154
    20  H    5.244975   6.898894   4.047163   6.319047   4.501891
    21  H    4.328478   5.714177   2.778957   5.866253   3.261620
    22  C    3.349119   5.335176   4.295094   3.679762   3.633579
    23  H    4.426767   6.365418   4.856789   4.683055   4.536688
    24  H    3.366704   5.435834   5.145746   3.018668   3.861386
    25  H    3.086032   5.111490   3.893655   3.780981   2.752481
    26  C    4.255301   5.517183   4.447071   4.678264   5.424717
    27  H    4.578434   5.916308   5.421062   4.472805   5.899316
    28  H    5.081737   6.423667   4.732084   5.574310   5.928744
    29  H    4.439745   5.275179   4.315232   5.067265   5.831351
                   11         12         13         14         15
    11  H    0.000000
    12  H    4.023433   0.000000
    13  H    3.797932   1.768742   0.000000
    14  H    4.187950   1.752415   1.773455   0.000000
    15  H    3.381620   2.636154   3.806056   2.992162   0.000000
    16  H    3.457570   3.242091   3.762787   2.538726   1.756588
    17  H    2.318293   3.811382   4.335358   3.752107   1.771706
    18  C    2.202196   3.693613   2.741487   4.007484   4.511880
    19  H    2.655704   3.918303   3.273658   4.646662   4.799253
    20  H    2.479251   4.737837   3.643852   4.835762   5.338119
    21  H    3.103943   3.426587   2.072344   3.604938   4.818720
    22  C    3.552690   5.356975   4.074054   4.429181   5.618723
    23  H    3.249694   5.847517   4.665319   5.161506   5.881688
    24  H    4.607377   6.235249   4.896554   5.109342   6.501663
    25  H    3.742974   4.931000   3.421092   4.122997   5.699637
    26  C    3.112389   5.355289   4.848623   4.399900   4.393671
    27  H    4.112471   6.369730   5.754112   5.268433   5.422573
    28  H    2.502381   5.563159   5.100223   4.919836   4.481419
    29  H    3.384040   5.104502   4.934945   4.137146   3.761088
                   16         17         18         19         20
    16  H    0.000000
    17  H    1.785557   0.000000
    18  C    4.611769   4.128256   0.000000
    19  H    5.257415   4.580043   1.098773   0.000000
    20  H    5.235683   4.644728   1.096223   1.757574   0.000000
    21  H    4.796562   4.704327   1.093043   1.767189   1.769936
    22  C    4.581674   4.694775   3.320647   4.397019   2.939651
    23  H    5.017590   4.735480   3.220330   4.192456   2.559607
    24  H    5.279362   5.564308   4.377720   5.448684   3.933204
    25  H    4.850955   5.060085   2.849010   3.906199   2.577726
    26  C    3.097949   3.039723   4.349676   5.283409   4.279308
    27  H    4.008914   4.054256   5.239561   6.208840   5.015335
    28  H    3.551437   2.901535   4.019004   4.838342   3.828898
    29  H    2.334179   2.497355   4.838972   5.698179   4.976376
                   21         22         23         24         25
    21  H    0.000000
    22  C    3.322254   0.000000
    23  H    3.520782   1.090948   0.000000
    24  H    4.271834   1.100190   1.779647   0.000000
    25  H    2.551266   1.090911   1.795796   1.764611   0.000000
    26  C    4.729326   2.574067   2.701627   3.035944   3.458512
    27  H    5.569107   2.854566   2.960704   2.924993   3.880220
    28  H    4.626756   2.806707   2.509851   3.443705   3.663364
    29  H    5.200755   3.494395   3.729819   3.960334   4.249746
                   26         27         28         29
    26  C    0.000000
    27  H    1.099953   0.000000
    28  H    1.091848   1.766827   0.000000
    29  H    1.088624   1.778602   1.797657   0.000000
 Framework group  C1[X(C8H16Cl3FeO)]
 Deg. of freedom    81
                         Standard orientation:                         
 ---------------------------------------------------------------------
 Center     Atomic      Atomic             Coordinates (Angstroms)
 Number     Number       Type             X           Y           Z
 ---------------------------------------------------------------------
      1          8           0        0.218929    0.414947   -0.839620
      2          6           0        0.936321    1.415005   -0.626172
      3          6           0        3.198865   -0.017954    0.486267
      4          6           0        2.595928   -0.952070   -0.272978
      5          6           0        2.932861   -1.111570   -1.732190
      6         26           0       -1.469975   -0.166135    0.032138
      7         17           0       -2.082705   -1.937845   -1.064370
      8          6           0        1.647543   -1.991435    0.253504
      9         17           0       -2.691000    1.619076   -0.308556
     10         17           0       -1.084445   -0.488321    2.165216
     11          1           0        3.933615    0.624589   -0.001519
     12          1           0        2.146158   -2.970557    0.259122
     13          1           0        1.291517   -1.792397    1.264098
     14          1           0        0.778482   -2.099534   -0.405514
     15          1           0        3.362784   -2.105499   -1.913619
     16          1           0        2.028041   -1.050432   -2.350537
     17          1           0        3.654626   -0.365833   -2.078948
     18          6           0        3.072619    0.167367    1.973146
     19          1           0        3.927065   -0.288345    2.492328
     20          1           0        3.076094    1.229416    2.244706
     21          1           0        2.163343   -0.280791    2.381942
     22          6           0        0.816564    2.205008    0.637133
     23          1           0        1.691781    2.833337    0.808494
     24          1           0       -0.064507    2.853727    0.521822
     25          1           0        0.631687    1.556532    1.494680
     26          6           0        1.744354    1.976072   -1.752975
     27          1           0        1.207390    2.866338   -2.112130
     28          1           0        2.729593    2.302773   -1.414297
     29          1           0        1.828466    1.264573   -2.572607
 ---------------------------------------------------------------------
 Rotational constants (GHZ):           0.5631369           0.3227236           0.3040866
   427 basis functions,  1056 primitive gaussians,   461 cartesian basis functions
    77 alpha electrons       72 beta electrons
       nuclear repulsion energy      1621.2778301193 Hartrees.
 NAtoms=   29 NActive=   29 NUniq=   29 SFac= 1.00D+00 NAtFMM=   60 NAOKFM=F Big=F
 Nuclear repulsion after empirical dispersion term =     1621.1801654822 Hartrees.
 Initial guess from the checkpoint file:  "checkpoint.chk"
 B after Tr=     0.000000    0.000000    0.000000
         Rot=    1.000000    0.000000    0.000000    0.000000 Ang=   0.00 deg.
 Initial guess <Sx>= 0.0000 <Sy>= 0.0000 <Sz>= 2.5000 <S**2>= 8.7617 S= 2.5020
 SCF Done:  E(UB97D3) =  -3034.64195183     A.U. after   16 cycles
            NFock= 16  Conv=0.68D-08     -V/T= 2.0019
 <Sx>= 0.0000 <Sy>= 0.0000 <Sz>= 2.5000 <S**2>= 8.7600 S= 2.5017
 <L.S>= 0.000000000000E+00
 Annihilation of the first spin contaminant:
 S**2 before annihilation     8.7600,   after     8.7500
 1\1\GINC-HOLY7C08308\SP\UB97D3\Jul-CC-pVDZ\C8H16Cl3Fe1O1(6)\EKWAN\12-F
 eb-2020\0\\#t pop=none jul-cc-pvdz guess=read ub97d3 empiricaldispersi
 on=gd3bj\\theory_abbreviation b97d3_d3bj\\0,6\O,0,0.218929,0.414947,-0
 .83962\C,0,0.936321,1.415005,-0.626172\C,0,3.198865,-0.017954,0.486267
 \C,0,2.595928,-0.95207,-0.272978\C,0,2.932861,-1.11157,-1.73219\Fe,0,-
 1.469975,-0.166135,0.032138\Cl,0,-2.082705,-1.937845,-1.06437\C,0,1.64
 7543,-1.991435,0.253504\Cl,0,-2.691,1.619076,-0.308556\Cl,0,-1.084445,
 -0.488321,2.165216\H,0,3.933615,0.624589,-0.001519\H,0,2.146158,-2.970
 557,0.259122\H,0,1.291517,-1.792397,1.264098\H,0,0.778482,-2.099534,-0
 .405514\H,0,3.362784,-2.105499,-1.913619\H,0,2.028041,-1.050432,-2.350
 537\H,0,3.654626,-0.365833,-2.078948\C,0,3.072619,0.167367,1.973146\H,
 0,3.927065,-0.288345,2.492328\H,0,3.076094,1.229416,2.244706\H,0,2.163
 343,-0.280791,2.381942\C,0,0.816564,2.205008,0.637133\H,0,1.691781,2.8
 33337,0.808494\H,0,-0.064507,2.853727,0.521822\H,0,0.631687,1.556532,1
 .49468\C,0,1.744354,1.976072,-1.752975\H,0,1.20739,2.866338,-2.11213\H
 ,0,2.729593,2.302773,-1.414297\H,0,1.828466,1.264573,-2.572607\\Versio
 n=ES64L-G16RevA.03\HF=-3034.6419518\S2=8.759966\S2-1=0.\S2A=8.750031\R
 MSD=6.787e-09\PG=C01 [X(C8H16Cl3Fe1O1)]\\@


 NO MATTER HOW THIN YOU SLICE IT, IT'S STILL BALONEY

                                   -- ALFRED E. SMITH
 Job cpu time:       0 days  0 hours 49 minutes 36.4 seconds.
 Elapsed time:       0 days  0 hours 12 minutes 46.0 seconds.
 File lengths (MBytes):  RWF=    174 Int=      0 D2E=      0 Chk=     13 Scr=      1
 Normal termination of Gaussian 16 at Wed Feb 12 22:53:20 2020.
