 Entering Gaussian System, Link 0=g16
 Input=simple-grid-300-300-b3lyp_d3bj-631gd-gas-singlepoint-DFT-juldz2-gas.gjf
 Output=simple-grid-300-300-b3lyp_d3bj-631gd-gas-singlepoint-DFT-juldz2-gas.out
 Initial command:
 /n/sw/g16_nehalem/g16/l1.exe "/scratch/Gau-296503.inp" -scrdir="/scratch/"
 Entering Link 1 = /n/sw/g16_nehalem/g16/l1.exe PID=    296504.
  
 Copyright (c) 1988,1990,1992,1993,1995,1998,2003,2009,2016,
            Gaussian, Inc.  All Rights Reserved.
  
 This is part of the Gaussian(R) 16 program.  It is based on
 the Gaussian(R) 09 system (copyright 2009, Gaussian, Inc.),
 the Gaussian(R) 03 system (copyright 2003, Gaussian, Inc.),
 the Gaussian(R) 98 system (copyright 1998, Gaussian, Inc.),
 the Gaussian(R) 94 system (copyright 1995, Gaussian, Inc.),
 the Gaussian 92(TM) system (copyright 1992, Gaussian, Inc.),
 the Gaussian 90(TM) system (copyright 1990, Gaussian, Inc.),
 the Gaussian 88(TM) system (copyright 1988, Gaussian, Inc.),
 the Gaussian 86(TM) system (copyright 1986, Carnegie Mellon
 University), and the Gaussian 82(TM) system (copyright 1983,
 Carnegie Mellon University). Gaussian is a federally registered
 trademark of Gaussian, Inc.
  
 This software contains proprietary and confidential information,
 including trade secrets, belonging to Gaussian, Inc.
  
 This software is provided under written license and may be
 used, copied, transmitted, or stored only in accord with that
 written license.
  
 The following legend is applicable only to US Government
 contracts under FAR:
  
                    RESTRICTED RIGHTS LEGEND
  
 Use, reproduction and disclosure by the US Government is
 subject to restrictions as set forth in subparagraphs (a)
 and (c) of the Commercial Computer Software - Restricted
 Rights clause in FAR 52.227-19.
  
 Gaussian, Inc.
 340 Quinnipiac St., Bldg. 40, Wallingford CT 06492
  
  
 ---------------------------------------------------------------
 Warning -- This program may not be used in any manner that
 competes with the business of Gaussian, Inc. or will provide
 assistance to any competitor of Gaussian, Inc.  The licensee
 of this program is prohibited from giving any competitor of
 Gaussian, Inc. access to this program.  By using this program,
 the user acknowledges that Gaussian, Inc. is engaged in the
 business of creating and licensing software in the field of
 computational chemistry and represents and warrants to the
 licensee that it is not a competitor of Gaussian, Inc. and that
 it will not use this program in any manner prohibited above.
 ---------------------------------------------------------------
  

 Cite this work as:
 Gaussian 16, Revision A.03,
 M. J. Frisch, G. W. Trucks, H. B. Schlegel, G. E. Scuseria, 
 M. A. Robb, J. R. Cheeseman, G. Scalmani, V. Barone, 
 G. A. Petersson, H. Nakatsuji, X. Li, M. Caricato, A. V. Marenich, 
 J. Bloino, B. G. Janesko, R. Gomperts, B. Mennucci, H. P. Hratchian, 
 J. V. Ortiz, A. F. Izmaylov, J. L. Sonnenberg, D. Williams-Young, 
 F. Ding, F. Lipparini, F. Egidi, J. Goings, B. Peng, A. Petrone, 
 T. Henderson, D. Ranasinghe, V. G. Zakrzewski, J. Gao, N. Rega, 
 G. Zheng, W. Liang, M. Hada, M. Ehara, K. Toyota, R. Fukuda, 
 J. Hasegawa, M. Ishida, T. Nakajima, Y. Honda, O. Kitao, H. Nakai, 
 T. Vreven, K. Throssell, J. A. Montgomery, Jr., J. E. Peralta, 
 F. Ogliaro, M. J. Bearpark, J. J. Heyd, E. N. Brothers, K. N. Kudin, 
 V. N. Staroverov, T. A. Keith, R. Kobayashi, J. Normand, 
 K. Raghavachari, A. P. Rendell, J. C. Burant, S. S. Iyengar, 
 J. Tomasi, M. Cossi, J. M. Millam, M. Klene, C. Adamo, R. Cammi, 
 J. W. Ochterski, R. L. Martin, K. Morokuma, O. Farkas, 
 J. B. Foresman, and D. J. Fox, Gaussian, Inc., Wallingford CT, 2016.
 
 ******************************************
 Gaussian 16:  ES64L-G16RevA.03 25-Dec-2016
                12-Feb-2020 
 ******************************************
 %chk=checkpoint.chk
 %mem=3GB
 %nprocshared=4
 Will use up to    4 processors via shared memory.
 --------------------------------
 #t pop=none jul-cc-pvdz upbe1pbe
 --------------------------------
 ------------------------
 theory_abbreviation pbe0
 ------------------------
 Symbolic Z-matrix:
 Charge =  0 Multiplicity = 6
 O                     0.1397    0.48623  -0.89243 
 C                     0.86854   1.47167  -0.65776 
 C                     3.19682   0.03602   0.5743 
 C                     2.71315  -0.91409  -0.24707 
 C                     3.16013  -1.00535  -1.68331 
 Fe                   -1.49531  -0.18855   0.02014 
 Cl                   -2.05485  -1.96025  -1.10221 
 C                     1.76282  -2.00119   0.17002 
 Cl                   -2.80073   1.54942  -0.22512 
 Cl                   -1.00632  -0.55585   2.12373 
 H                     3.9281    0.73026   0.15638 
 H                     2.25919  -2.97818   0.09398 
 H                     1.3889   -1.89189   1.18784 
 H                     0.90213  -2.04591  -0.5091 
 H                     3.66637  -1.96277  -1.86452 
 H                     2.29874  -0.98074  -2.36392 
 H                     3.85186  -0.20286  -1.95733 
 C                     2.94955   0.18221   2.05022 
 H                     3.78951  -0.23301   2.62421 
 H                     2.87113   1.23716   2.33781 
 H                     2.03991  -0.32384   2.38237 
 C                     0.73519   2.25365   0.60913 
 H                     1.60007   2.89443   0.78622 
 H                    -0.15819   2.88618   0.49991 
 H                     0.5615    1.59545   1.46213 
 C                     1.72411   2.01091  -1.75932 
 H                     1.23698   2.92666  -2.12486 
 H                     2.71276   2.29168  -1.39053 
 H                     1.802     1.30031  -2.58075 
 
                    Distance matrix (angstroms):
                    1          2          3          4          5
     1  O    0.000000
     2  C    1.247947   0.000000
     3  C    3.420525   3.000000   0.000000
     4  C    3.000001   3.043536   1.345846   0.000000
     5  C    3.460246   3.526868   2.486486   1.506957   0.000000
     6  Fe   1.990316   2.967091   4.730074   4.278890   5.024147
     7  Cl   3.293216   4.530095   5.863085   4.955749   5.333435
     8  C    3.154452   3.680452   2.523888   1.502951   2.525671
     9  Cl   3.197162   3.695506   6.236997   6.039226   6.647189
    10  Cl   3.390651   3.919517   4.518567   4.425322   5.661711
    11  H    3.938466   3.251682   1.091509   2.083928   2.643209
    12  H    4.179395   4.722307   3.192997   2.140757   2.804020
    13  H    3.397564   3.871759   2.713264   2.183727   3.488082
    14  H    2.672071   3.520882   3.282348   2.151620   2.749573
    15  H    4.402265   4.591243   3.188020   2.150466   1.098074
    16  H    2.996450   3.312217   3.236282   2.158064   1.098108
    17  H    3.922882   3.659668   2.625893   2.174286   1.094332
    18  C    4.080058   3.650546   1.503611   2.556422   3.923506
    19  H    5.119100   4.712681   2.150763   3.141129   4.421244
    20  H    4.296402   3.610931   2.158415   3.366663   4.613215
    21  H    3.871859   3.719990   2.176473   2.777695   4.271898
    22  C    2.394384   1.494749   3.313415   3.831442   4.664405
    23  H    3.278717   2.155102   3.281014   4.100178   4.872439
    24  H    2.790548   2.096477   4.402846   4.821268   5.560731
    25  H    2.636710   2.145581   3.188261   3.721392   4.838478
    26  C    2.363578   1.495397   3.393362   3.438132   3.341523
    27  H    2.945949   2.098838   4.413871   4.522888   4.399335
    28  H    3.182515   2.147212   3.030331   3.403599   3.340103
    29  H    2.505269   2.144434   3.674006   3.343623   2.822405
                    6          7          8          9         10
     6  Fe   0.000000
     7  Cl   2.170639   0.000000
     8  C    3.731428   4.024279   0.000000
     9  Cl   2.187425   3.693702   5.795605   0.000000
    10  Cl   2.190684   3.671294   3.684313   3.628932   0.000000
    11  H    5.502370   6.679705   3.485599   6.789236   5.465622
    12  H    4.678007   4.591074   1.098484   6.797339   4.544352
    13  H    3.547328   4.136227   1.089827   5.602864   2.897928
    14  H    3.078569   3.017085   1.097268   5.168970   3.576904
    15  H    5.774316   5.771779   2.786451   7.539666   6.302349
    16  H    4.550394   4.637350   2.783768   6.081184   5.589539
    17  H    5.701126   6.221644   3.481910   7.094230   6.354653
    18  C    4.900552   6.290616   3.116199   6.333416   4.024802
    19  H    5.891727   7.143251   3.641016   7.397771   4.832671
    20  H    5.144902   6.806054   4.051488   6.231866   4.277309
    21  H    4.253957   5.620241   2.790123   5.808602   3.065981
    22  C    3.359518   5.335720   4.399148   3.700631   3.635957
    23  H    4.435421   6.363367   4.936930   4.711569   4.526213
    24  H    3.387041   5.445367   5.261704   3.048878   3.899193
    25  H    3.080977   5.105298   4.006067   3.762113   2.742969
    26  C    4.285875   5.521084   4.452057   4.800095   5.396440
    27  H    4.665934   5.980285   5.461380   4.670005   5.933866
    28  H    5.084225   6.394693   4.665452   5.683987   5.855765
    29  H    4.455730   5.262370   4.297457   5.176503   5.784815
                   11         12         13         14         15
    11  H    0.000000
    12  H    4.067139   0.000000
    13  H    3.793025   1.770299   0.000000
    14  H    4.160104   1.753410   1.772080   0.000000
    15  H    3.377117   2.616663   3.809038   3.079792   0.000000
    16  H    3.454599   3.167427   3.777958   2.554500   1.756191
    17  H    2.311772   3.800904   4.337173   3.767647   1.772091
    18  C    2.201034   3.780408   2.735172   3.963149   4.521055
    19  H    2.652788   4.034836   3.252377   4.630468   4.812063
    20  H    2.476438   4.814382   3.648334   4.770786   5.341486
    21  H    3.103447   3.511457   2.075931   3.552557   4.833997
    22  C    3.566559   5.473569   4.236472   4.445730   5.699904
    23  H    3.240381   5.949886   4.807773   5.154797   5.906641
    24  H    4.632898   6.356038   5.069187   5.144700   6.612875
    25  H    3.713158   5.066763   3.594629   4.154671   5.776483
    26  C    3.188663   5.349024   4.902033   4.323947   4.424206
    27  H    4.155759   6.390247   5.849393   5.239205   5.465914
    28  H    2.511578   5.493717   5.089479   4.782263   4.385707
    29  H    3.512427   5.066422   4.956105   4.037162   3.825773
                   16         17         18         19         20
    16  H    0.000000
    17  H    1.783991   0.000000
    18  C    4.610928   4.125884   0.000000
    19  H    5.259563   4.582068   1.098820   0.000000
    20  H    5.230007   4.635050   1.096256   1.756936   0.000000
    21  H    4.798518   4.704338   1.092631   1.768571   1.769072
    22  C    4.663150   4.725967   3.357230   4.424125   2.929819
    23  H    5.042667   4.710717   3.282520   4.237066   2.601841
    24  H    5.402881   5.626786   4.401471   5.461345   3.908186
    25  H    4.928836   5.074754   2.836531   3.887644   2.495920
    26  C    3.105758   3.076905   4.399827   5.340079   4.324446
    27  H    4.056138   4.081611   5.281684   6.249205   5.043833
    28  H    3.439142   2.800282   4.042857   4.863289   3.877831
    29  H    2.344557   2.617271   4.900296   5.778658   5.033810
                   21         22         23         24         25
    21  H    0.000000
    22  C    3.389703   0.000000
    23  H    3.619165   1.090856   0.000000
    24  H    4.321974   1.100069   1.781429   0.000000
    25  H    2.591564   1.091330   1.795219   1.763457   0.000000
    26  C    4.764908   2.578063   2.697365   3.068103   3.449925
    27  H    5.614755   2.859966   2.933812   2.972803   3.885209
    28  H    4.639868   2.812616   2.517857   3.488480   3.640093
    29  H    5.227519   3.496031   3.730750   3.980930   4.239197
                   26         27         28         29
    26  C    0.000000
    27  H    1.099772   0.000000
    28  H    1.091916   1.766452   0.000000
    29  H    1.088931   1.781039   1.796928   0.000000
 Framework group  C1[X(C8H16Cl3FeO)]
 Deg. of freedom    81
                         Standard orientation:                         
 ---------------------------------------------------------------------
 Center     Atomic      Atomic             Coordinates (Angstroms)
 Number     Number       Type             X           Y           Z
 ---------------------------------------------------------------------
      1          8           0        0.139700    0.486226   -0.892433
      2          6           0        0.868536    1.471670   -0.657762
      3          6           0        3.196821    0.036016    0.574303
      4          6           0        2.713146   -0.914092   -0.247070
      5          6           0        3.160134   -1.005348   -1.683313
      6         26           0       -1.495308   -0.188547    0.020140
      7         17           0       -2.054846   -1.960248   -1.102209
      8          6           0        1.762822   -2.001191    0.170017
      9         17           0       -2.800733    1.549424   -0.225118
     10         17           0       -1.006324   -0.555849    2.123727
     11          1           0        3.928097    0.730255    0.156380
     12          1           0        2.259190   -2.978178    0.093980
     13          1           0        1.388901   -1.891885    1.187837
     14          1           0        0.902126   -2.045912   -0.509099
     15          1           0        3.666370   -1.962770   -1.864519
     16          1           0        2.298735   -0.980743   -2.363922
     17          1           0        3.851863   -0.202860   -1.957331
     18          6           0        2.949546    0.182205    2.050220
     19          1           0        3.789507   -0.233009    2.624213
     20          1           0        2.871133    1.237156    2.337807
     21          1           0        2.039906   -0.323835    2.382366
     22          6           0        0.735193    2.253649    0.609125
     23          1           0        1.600067    2.894428    0.786221
     24          1           0       -0.158185    2.886184    0.499912
     25          1           0        0.561496    1.595453    1.462125
     26          6           0        1.724105    2.010911   -1.759322
     27          1           0        1.236983    2.926659   -2.124859
     28          1           0        2.712758    2.291684   -1.390525
     29          1           0        1.801997    1.300306   -2.580750
 ---------------------------------------------------------------------
 Rotational constants (GHZ):           0.5616506           0.3161332           0.2975736
   427 basis functions,  1056 primitive gaussians,   461 cartesian basis functions
    77 alpha electrons       72 beta electrons
       nuclear repulsion energy      1612.1442920647 Hartrees.
 NAtoms=   29 NActive=   29 NUniq=   29 SFac= 1.00D+00 NAtFMM=   60 NAOKFM=F Big=F
 ExpMin= 1.40D-02 ExpMax= 4.32D+06 ExpMxC= 4.91D+03 IAcc=3 IRadAn=         5 AccDes= 0.00D+00
 Harris functional with IExCor= 1009 and IRadAn=       5 diagonalized for initial guess.
 HarFok:  IExCor= 1009 AccDes= 0.00D+00 IRadAn=         5 IDoV= 1 UseB2=F ITyADJ=14
 ICtDFT=  3500011 ScaDFX=  1.000000  1.000000  1.000000  1.000000
 FoFCou: FMM=F IPFlag=           0 FMFlag=      100000 FMFlg1=           0
         NFxFlg=           0 DoJE=T BraDBF=F KetDBF=T FulRan=T
         wScrn=  0.000000 ICntrl=       500 IOpCl=  0 I1Cent=   200000004 NGrid=           0
         NMat0=    1 NMatS0=      1 NMatT0=    0 NMatD0=    1 NMtDS0=    0 NMtDT0=    0
 Petite list used in FoFCou.
 Initial guess <Sx>= 0.0000 <Sy>= 0.0000 <Sz>= 2.5000 <S**2>= 8.7500 S= 2.5000
 EnCoef did   100 forward-backward iterations
 SCF Done:  E(UPBE1PBE) =  -3033.14089730     A.U. after   20 cycles
            NFock= 20  Conv=0.89D-08     -V/T= 2.0021
 <Sx>= 0.0000 <Sy>= 0.0000 <Sz>= 2.5000 <S**2>= 8.7630 S= 2.5022
 <L.S>= 0.000000000000E+00
 Annihilation of the first spin contaminant:
 S**2 before annihilation     8.7630,   after     8.7501
 1\1\GINC-HOLY7C16606\SP\UPBE1PBE\Jul-CC-pVDZ\C8H16Cl3Fe1O1(6)\EKWAN\12
 -Feb-2020\0\\#t pop=none jul-cc-pvdz upbe1pbe\\theory_abbreviation pbe
 0\\0,6\O,0,0.1397,0.486226,-0.892433\C,0,0.868536,1.47167,-0.657762\C,
 0,3.196821,0.036016,0.574303\C,0,2.713146,-0.914092,-0.24707\C,0,3.160
 134,-1.005348,-1.683313\Fe,0,-1.495308,-0.188547,0.02014\Cl,0,-2.05484
 6,-1.960248,-1.102209\C,0,1.762822,-2.001191,0.170017\Cl,0,-2.800733,1
 .549424,-0.225118\Cl,0,-1.006324,-0.555849,2.123727\H,0,3.928097,0.730
 255,0.15638\H,0,2.25919,-2.978178,0.09398\H,0,1.388901,-1.891885,1.187
 837\H,0,0.902126,-2.045912,-0.509099\H,0,3.66637,-1.96277,-1.864519\H,
 0,2.298735,-0.980743,-2.363922\H,0,3.851863,-0.20286,-1.957331\C,0,2.9
 49546,0.182205,2.05022\H,0,3.789507,-0.233009,2.624213\H,0,2.871133,1.
 237156,2.337807\H,0,2.039906,-0.323835,2.382366\C,0,0.735193,2.253649,
 0.609125\H,0,1.600067,2.894428,0.786221\H,0,-0.158185,2.886184,0.49991
 2\H,0,0.561496,1.595453,1.462125\C,0,1.724105,2.010911,-1.759322\H,0,1
 .236983,2.926659,-2.124859\H,0,2.712758,2.291684,-1.390525\H,0,1.80199
 7,1.300306,-2.58075\\Version=ES64L-G16RevA.03\HF=-3033.1408973\S2=8.76
 3006\S2-1=0.\S2A=8.750052\RMSD=8.910e-09\PG=C01 [X(C8H16Cl3Fe1O1)]\\@


 SUCCESS IS COUNTED SWEETEST
 BY THOSE WHO NE'ER SUCCEED.
 TO COMPREHEND NECTAR
 REQUIRES SOREST NEED.
           EMILY DICKINSON
 Job cpu time:       0 days  1 hours 19 minutes  1.9 seconds.
 Elapsed time:       0 days  0 hours 20 minutes 13.5 seconds.
 File lengths (MBytes):  RWF=    173 Int=      0 D2E=      0 Chk=     13 Scr=      1
 Normal termination of Gaussian 16 at Wed Feb 12 15:26:54 2020.
 Initial command:
 /n/sw/g16_nehalem/g16/l1.exe "/scratch/Gau-296503.inp" -scrdir="/scratch/"
 Entering Link 1 = /n/sw/g16_nehalem/g16/l1.exe PID=    297712.
  
 Copyright (c) 1988,1990,1992,1993,1995,1998,2003,2009,2016,
            Gaussian, Inc.  All Rights Reserved.
  
 This is part of the Gaussian(R) 16 program.  It is based on
 the Gaussian(R) 09 system (copyright 2009, Gaussian, Inc.),
 the Gaussian(R) 03 system (copyright 2003, Gaussian, Inc.),
 the Gaussian(R) 98 system (copyright 1998, Gaussian, Inc.),
 the Gaussian(R) 94 system (copyright 1995, Gaussian, Inc.),
 the Gaussian 92(TM) system (copyright 1992, Gaussian, Inc.),
 the Gaussian 90(TM) system (copyright 1990, Gaussian, Inc.),
 the Gaussian 88(TM) system (copyright 1988, Gaussian, Inc.),
 the Gaussian 86(TM) system (copyright 1986, Carnegie Mellon
 University), and the Gaussian 82(TM) system (copyright 1983,
 Carnegie Mellon University). Gaussian is a federally registered
 trademark of Gaussian, Inc.
  
 This software contains proprietary and confidential information,
 including trade secrets, belonging to Gaussian, Inc.
  
 This software is provided under written license and may be
 used, copied, transmitted, or stored only in accord with that
 written license.
  
 The following legend is applicable only to US Government
 contracts under FAR:
  
                    RESTRICTED RIGHTS LEGEND
  
 Use, reproduction and disclosure by the US Government is
 subject to restrictions as set forth in subparagraphs (a)
 and (c) of the Commercial Computer Software - Restricted
 Rights clause in FAR 52.227-19.
  
 Gaussian, Inc.
 340 Quinnipiac St., Bldg. 40, Wallingford CT 06492
  
  
 ---------------------------------------------------------------
 Warning -- This program may not be used in any manner that
 competes with the business of Gaussian, Inc. or will provide
 assistance to any competitor of Gaussian, Inc.  The licensee
 of this program is prohibited from giving any competitor of
 Gaussian, Inc. access to this program.  By using this program,
 the user acknowledges that Gaussian, Inc. is engaged in the
 business of creating and licensing software in the field of
 computational chemistry and represents and warrants to the
 licensee that it is not a competitor of Gaussian, Inc. and that
 it will not use this program in any manner prohibited above.
 ---------------------------------------------------------------
  

 Cite this work as:
 Gaussian 16, Revision A.03,
 M. J. Frisch, G. W. Trucks, H. B. Schlegel, G. E. Scuseria, 
 M. A. Robb, J. R. Cheeseman, G. Scalmani, V. Barone, 
 G. A. Petersson, H. Nakatsuji, X. Li, M. Caricato, A. V. Marenich, 
 J. Bloino, B. G. Janesko, R. Gomperts, B. Mennucci, H. P. Hratchian, 
 J. V. Ortiz, A. F. Izmaylov, J. L. Sonnenberg, D. Williams-Young, 
 F. Ding, F. Lipparini, F. Egidi, J. Goings, B. Peng, A. Petrone, 
 T. Henderson, D. Ranasinghe, V. G. Zakrzewski, J. Gao, N. Rega, 
 G. Zheng, W. Liang, M. Hada, M. Ehara, K. Toyota, R. Fukuda, 
 J. Hasegawa, M. Ishida, T. Nakajima, Y. Honda, O. Kitao, H. Nakai, 
 T. Vreven, K. Throssell, J. A. Montgomery, Jr., J. E. Peralta, 
 F. Ogliaro, M. J. Bearpark, J. J. Heyd, E. N. Brothers, K. N. Kudin, 
 V. N. Staroverov, T. A. Keith, R. Kobayashi, J. Normand, 
 K. Raghavachari, A. P. Rendell, J. C. Burant, S. S. Iyengar, 
 J. Tomasi, M. Cossi, J. M. Millam, M. Klene, C. Adamo, R. Cammi, 
 J. W. Ochterski, R. L. Martin, K. Morokuma, O. Farkas, 
 J. B. Foresman, and D. J. Fox, Gaussian, Inc., Wallingford CT, 2016.
 
 ******************************************
 Gaussian 16:  ES64L-G16RevA.03 25-Dec-2016
                12-Feb-2020 
 ******************************************
 %chk=checkpoint.chk
 %mem=3GB
 %nprocshared=4
 Will use up to    4 processors via shared memory.
 ---------------------------------------------------------------------
 #t pop=none jul-cc-pvdz guess=read upbe1pbe empiricaldispersion=gd3bj
 ---------------------------------------------------------------------
 -----------------------------
 theory_abbreviation pbe0_d3bj
 -----------------------------
 Symbolic Z-matrix:
 Charge =  0 Multiplicity = 6
 O                     0.1397    0.48623  -0.89243 
 C                     0.86854   1.47167  -0.65776 
 C                     3.19682   0.03602   0.5743 
 C                     2.71315  -0.91409  -0.24707 
 C                     3.16013  -1.00535  -1.68331 
 Fe                   -1.49531  -0.18855   0.02014 
 Cl                   -2.05485  -1.96025  -1.10221 
 C                     1.76282  -2.00119   0.17002 
 Cl                   -2.80073   1.54942  -0.22512 
 Cl                   -1.00632  -0.55585   2.12373 
 H                     3.9281    0.73026   0.15638 
 H                     2.25919  -2.97818   0.09398 
 H                     1.3889   -1.89189   1.18784 
 H                     0.90213  -2.04591  -0.5091 
 H                     3.66637  -1.96277  -1.86452 
 H                     2.29874  -0.98074  -2.36392 
 H                     3.85186  -0.20286  -1.95733 
 C                     2.94955   0.18221   2.05022 
 H                     3.78951  -0.23301   2.62421 
 H                     2.87113   1.23716   2.33781 
 H                     2.03991  -0.32384   2.38237 
 C                     0.73519   2.25365   0.60913 
 H                     1.60007   2.89443   0.78622 
 H                    -0.15819   2.88618   0.49991 
 H                     0.5615    1.59545   1.46213 
 C                     1.72411   2.01091  -1.75932 
 H                     1.23698   2.92666  -2.12486 
 H                     2.71276   2.29168  -1.39053 
 H                     1.802     1.30031  -2.58075 
 
                    Distance matrix (angstroms):
                    1          2          3          4          5
     1  O    0.000000
     2  C    1.247947   0.000000
     3  C    3.420525   3.000000   0.000000
     4  C    3.000001   3.043536   1.345846   0.000000
     5  C    3.460246   3.526868   2.486486   1.506957   0.000000
     6  Fe   1.990316   2.967091   4.730074   4.278890   5.024147
     7  Cl   3.293216   4.530095   5.863085   4.955749   5.333435
     8  C    3.154452   3.680452   2.523888   1.502951   2.525671
     9  Cl   3.197162   3.695506   6.236997   6.039226   6.647189
    10  Cl   3.390651   3.919517   4.518567   4.425322   5.661711
    11  H    3.938466   3.251682   1.091509   2.083928   2.643209
    12  H    4.179395   4.722307   3.192997   2.140757   2.804020
    13  H    3.397564   3.871759   2.713264   2.183727   3.488082
    14  H    2.672071   3.520882   3.282348   2.151620   2.749573
    15  H    4.402265   4.591243   3.188020   2.150466   1.098074
    16  H    2.996450   3.312217   3.236282   2.158064   1.098108
    17  H    3.922882   3.659668   2.625893   2.174286   1.094332
    18  C    4.080058   3.650546   1.503611   2.556422   3.923506
    19  H    5.119100   4.712681   2.150763   3.141129   4.421244
    20  H    4.296402   3.610931   2.158415   3.366663   4.613215
    21  H    3.871859   3.719990   2.176473   2.777695   4.271898
    22  C    2.394384   1.494749   3.313415   3.831442   4.664405
    23  H    3.278717   2.155102   3.281014   4.100178   4.872439
    24  H    2.790548   2.096477   4.402846   4.821268   5.560731
    25  H    2.636710   2.145581   3.188261   3.721392   4.838478
    26  C    2.363578   1.495397   3.393362   3.438132   3.341523
    27  H    2.945949   2.098838   4.413871   4.522888   4.399335
    28  H    3.182515   2.147212   3.030331   3.403599   3.340103
    29  H    2.505269   2.144434   3.674006   3.343623   2.822405
                    6          7          8          9         10
     6  Fe   0.000000
     7  Cl   2.170639   0.000000
     8  C    3.731428   4.024279   0.000000
     9  Cl   2.187425   3.693702   5.795605   0.000000
    10  Cl   2.190684   3.671294   3.684313   3.628932   0.000000
    11  H    5.502370   6.679705   3.485599   6.789236   5.465622
    12  H    4.678007   4.591074   1.098484   6.797339   4.544352
    13  H    3.547328   4.136227   1.089827   5.602864   2.897928
    14  H    3.078569   3.017085   1.097268   5.168970   3.576904
    15  H    5.774316   5.771779   2.786451   7.539666   6.302349
    16  H    4.550394   4.637350   2.783768   6.081184   5.589539
    17  H    5.701126   6.221644   3.481910   7.094230   6.354653
    18  C    4.900552   6.290616   3.116199   6.333416   4.024802
    19  H    5.891727   7.143251   3.641016   7.397771   4.832671
    20  H    5.144902   6.806054   4.051488   6.231866   4.277309
    21  H    4.253957   5.620241   2.790123   5.808602   3.065981
    22  C    3.359518   5.335720   4.399148   3.700631   3.635957
    23  H    4.435421   6.363367   4.936930   4.711569   4.526213
    24  H    3.387041   5.445367   5.261704   3.048878   3.899193
    25  H    3.080977   5.105298   4.006067   3.762113   2.742969
    26  C    4.285875   5.521084   4.452057   4.800095   5.396440
    27  H    4.665934   5.980285   5.461380   4.670005   5.933866
    28  H    5.084225   6.394693   4.665452   5.683987   5.855765
    29  H    4.455730   5.262370   4.297457   5.176503   5.784815
                   11         12         13         14         15
    11  H    0.000000
    12  H    4.067139   0.000000
    13  H    3.793025   1.770299   0.000000
    14  H    4.160104   1.753410   1.772080   0.000000
    15  H    3.377117   2.616663   3.809038   3.079792   0.000000
    16  H    3.454599   3.167427   3.777958   2.554500   1.756191
    17  H    2.311772   3.800904   4.337173   3.767647   1.772091
    18  C    2.201034   3.780408   2.735172   3.963149   4.521055
    19  H    2.652788   4.034836   3.252377   4.630468   4.812063
    20  H    2.476438   4.814382   3.648334   4.770786   5.341486
    21  H    3.103447   3.511457   2.075931   3.552557   4.833997
    22  C    3.566559   5.473569   4.236472   4.445730   5.699904
    23  H    3.240381   5.949886   4.807773   5.154797   5.906641
    24  H    4.632898   6.356038   5.069187   5.144700   6.612875
    25  H    3.713158   5.066763   3.594629   4.154671   5.776483
    26  C    3.188663   5.349024   4.902033   4.323947   4.424206
    27  H    4.155759   6.390247   5.849393   5.239205   5.465914
    28  H    2.511578   5.493717   5.089479   4.782263   4.385707
    29  H    3.512427   5.066422   4.956105   4.037162   3.825773
                   16         17         18         19         20
    16  H    0.000000
    17  H    1.783991   0.000000
    18  C    4.610928   4.125884   0.000000
    19  H    5.259563   4.582068   1.098820   0.000000
    20  H    5.230007   4.635050   1.096256   1.756936   0.000000
    21  H    4.798518   4.704338   1.092631   1.768571   1.769072
    22  C    4.663150   4.725967   3.357230   4.424125   2.929819
    23  H    5.042667   4.710717   3.282520   4.237066   2.601841
    24  H    5.402881   5.626786   4.401471   5.461345   3.908186
    25  H    4.928836   5.074754   2.836531   3.887644   2.495920
    26  C    3.105758   3.076905   4.399827   5.340079   4.324446
    27  H    4.056138   4.081611   5.281684   6.249205   5.043833
    28  H    3.439142   2.800282   4.042857   4.863289   3.877831
    29  H    2.344557   2.617271   4.900296   5.778658   5.033810
                   21         22         23         24         25
    21  H    0.000000
    22  C    3.389703   0.000000
    23  H    3.619165   1.090856   0.000000
    24  H    4.321974   1.100069   1.781429   0.000000
    25  H    2.591564   1.091330   1.795219   1.763457   0.000000
    26  C    4.764908   2.578063   2.697365   3.068103   3.449925
    27  H    5.614755   2.859966   2.933812   2.972803   3.885209
    28  H    4.639868   2.812616   2.517857   3.488480   3.640093
    29  H    5.227519   3.496031   3.730750   3.980930   4.239197
                   26         27         28         29
    26  C    0.000000
    27  H    1.099772   0.000000
    28  H    1.091916   1.766452   0.000000
    29  H    1.088931   1.781039   1.796928   0.000000
 Framework group  C1[X(C8H16Cl3FeO)]
 Deg. of freedom    81
                         Standard orientation:                         
 ---------------------------------------------------------------------
 Center     Atomic      Atomic             Coordinates (Angstroms)
 Number     Number       Type             X           Y           Z
 ---------------------------------------------------------------------
      1          8           0        0.139700    0.486226   -0.892433
      2          6           0        0.868536    1.471670   -0.657762
      3          6           0        3.196821    0.036016    0.574303
      4          6           0        2.713146   -0.914092   -0.247070
      5          6           0        3.160134   -1.005348   -1.683313
      6         26           0       -1.495308   -0.188547    0.020140
      7         17           0       -2.054846   -1.960248   -1.102209
      8          6           0        1.762822   -2.001191    0.170017
      9         17           0       -2.800733    1.549424   -0.225118
     10         17           0       -1.006324   -0.555849    2.123727
     11          1           0        3.928097    0.730255    0.156380
     12          1           0        2.259190   -2.978178    0.093980
     13          1           0        1.388901   -1.891885    1.187837
     14          1           0        0.902126   -2.045912   -0.509099
     15          1           0        3.666370   -1.962770   -1.864519
     16          1           0        2.298735   -0.980743   -2.363922
     17          1           0        3.851863   -0.202860   -1.957331
     18          6           0        2.949546    0.182205    2.050220
     19          1           0        3.789507   -0.233009    2.624213
     20          1           0        2.871133    1.237156    2.337807
     21          1           0        2.039906   -0.323835    2.382366
     22          6           0        0.735193    2.253649    0.609125
     23          1           0        1.600067    2.894428    0.786221
     24          1           0       -0.158185    2.886184    0.499912
     25          1           0        0.561496    1.595453    1.462125
     26          6           0        1.724105    2.010911   -1.759322
     27          1           0        1.236983    2.926659   -2.124859
     28          1           0        2.712758    2.291684   -1.390525
     29          1           0        1.801997    1.300306   -2.580750
 ---------------------------------------------------------------------
 Rotational constants (GHZ):           0.5616506           0.3161332           0.2975736
   427 basis functions,  1056 primitive gaussians,   461 cartesian basis functions
    77 alpha electrons       72 beta electrons
       nuclear repulsion energy      1612.1442920647 Hartrees.
 NAtoms=   29 NActive=   29 NUniq=   29 SFac= 1.00D+00 NAtFMM=   60 NAOKFM=F Big=F
 Nuclear repulsion after empirical dispersion term =     1612.1086331639 Hartrees.
 Initial guess from the checkpoint file:  "checkpoint.chk"
 B after Tr=     0.000000    0.000000    0.000000
         Rot=    1.000000    0.000000    0.000000    0.000000 Ang=   0.00 deg.
 Initial guess <Sx>= 0.0000 <Sy>= 0.0000 <Sz>= 2.5000 <S**2>= 8.7630 S= 2.5022
 SCF Done:  E(UPBE1PBE) =  -3033.17655620     A.U. after    1 cycles
            NFock=  1  Conv=0.42D-08     -V/T= 2.0021
 <Sx>= 0.0000 <Sy>= 0.0000 <Sz>= 2.5000 <S**2>= 8.7630 S= 2.5022
 <L.S>= 0.000000000000E+00
 Annihilation of the first spin contaminant:
 S**2 before annihilation     8.7630,   after     8.7501
 1\1\GINC-HOLY7C16606\SP\UPBE1PBE\Jul-CC-pVDZ\C8H16Cl3Fe1O1(6)\EKWAN\12
 -Feb-2020\0\\#t pop=none jul-cc-pvdz guess=read upbe1pbe empiricaldisp
 ersion=gd3bj\\theory_abbreviation pbe0_d3bj\\0,6\O,0,0.1397,0.486226,-
 0.892433\C,0,0.868536,1.47167,-0.657762\C,0,3.196821,0.036016,0.574303
 \C,0,2.713146,-0.914092,-0.24707\C,0,3.160134,-1.005348,-1.683313\Fe,0
 ,-1.495308,-0.188547,0.02014\Cl,0,-2.054846,-1.960248,-1.102209\C,0,1.
 762822,-2.001191,0.170017\Cl,0,-2.800733,1.549424,-0.225118\Cl,0,-1.00
 6324,-0.555849,2.123727\H,0,3.928097,0.730255,0.15638\H,0,2.25919,-2.9
 78178,0.09398\H,0,1.388901,-1.891885,1.187837\H,0,0.902126,-2.045912,-
 0.509099\H,0,3.66637,-1.96277,-1.864519\H,0,2.298735,-0.980743,-2.3639
 22\H,0,3.851863,-0.20286,-1.957331\C,0,2.949546,0.182205,2.05022\H,0,3
 .789507,-0.233009,2.624213\H,0,2.871133,1.237156,2.337807\H,0,2.039906
 ,-0.323835,2.382366\C,0,0.735193,2.253649,0.609125\H,0,1.600067,2.8944
 28,0.786221\H,0,-0.158185,2.886184,0.499912\H,0,0.561496,1.595453,1.46
 2125\C,0,1.724105,2.010911,-1.759322\H,0,1.236983,2.926659,-2.124859\H
 ,0,2.712758,2.291684,-1.390525\H,0,1.801997,1.300306,-2.58075\\Version
 =ES64L-G16RevA.03\HF=-3033.1765562\S2=8.763006\S2-1=0.\S2A=8.750052\RM
 SD=4.181e-09\PG=C01 [X(C8H16Cl3Fe1O1)]\\@


 LET US PLACE AT THE END OF EVERY CHAPTER.....THE
 TWO LETTERS USED BY THE ROMAN JUDGES WHEN THEY DID
 NOT UNDERSTAND A PLEADING.
 N. L. -NON LIQUET- IT IS NOT CLEAR.
                                              -- VOLTAIRE
 Job cpu time:       0 days  0 hours  4 minutes 52.6 seconds.
 Elapsed time:       0 days  0 hours  1 minutes 39.7 seconds.
 File lengths (MBytes):  RWF=    170 Int=      0 D2E=      0 Chk=     13 Scr=      1
 Normal termination of Gaussian 16 at Wed Feb 12 15:28:34 2020.
 Initial command:
 /n/sw/g16_nehalem/g16/l1.exe "/scratch/Gau-296503.inp" -scrdir="/scratch/"
 Entering Link 1 = /n/sw/g16_nehalem/g16/l1.exe PID=    297843.
  
 Copyright (c) 1988,1990,1992,1993,1995,1998,2003,2009,2016,
            Gaussian, Inc.  All Rights Reserved.
  
 This is part of the Gaussian(R) 16 program.  It is based on
 the Gaussian(R) 09 system (copyright 2009, Gaussian, Inc.),
 the Gaussian(R) 03 system (copyright 2003, Gaussian, Inc.),
 the Gaussian(R) 98 system (copyright 1998, Gaussian, Inc.),
 the Gaussian(R) 94 system (copyright 1995, Gaussian, Inc.),
 the Gaussian 92(TM) system (copyright 1992, Gaussian, Inc.),
 the Gaussian 90(TM) system (copyright 1990, Gaussian, Inc.),
 the Gaussian 88(TM) system (copyright 1988, Gaussian, Inc.),
 the Gaussian 86(TM) system (copyright 1986, Carnegie Mellon
 University), and the Gaussian 82(TM) system (copyright 1983,
 Carnegie Mellon University). Gaussian is a federally registered
 trademark of Gaussian, Inc.
  
 This software contains proprietary and confidential information,
 including trade secrets, belonging to Gaussian, Inc.
  
 This software is provided under written license and may be
 used, copied, transmitted, or stored only in accord with that
 written license.
  
 The following legend is applicable only to US Government
 contracts under FAR:
  
                    RESTRICTED RIGHTS LEGEND
  
 Use, reproduction and disclosure by the US Government is
 subject to restrictions as set forth in subparagraphs (a)
 and (c) of the Commercial Computer Software - Restricted
 Rights clause in FAR 52.227-19.
  
 Gaussian, Inc.
 340 Quinnipiac St., Bldg. 40, Wallingford CT 06492
  
  
 ---------------------------------------------------------------
 Warning -- This program may not be used in any manner that
 competes with the business of Gaussian, Inc. or will provide
 assistance to any competitor of Gaussian, Inc.  The licensee
 of this program is prohibited from giving any competitor of
 Gaussian, Inc. access to this program.  By using this program,
 the user acknowledges that Gaussian, Inc. is engaged in the
 business of creating and licensing software in the field of
 computational chemistry and represents and warrants to the
 licensee that it is not a competitor of Gaussian, Inc. and that
 it will not use this program in any manner prohibited above.
 ---------------------------------------------------------------
  

 Cite this work as:
 Gaussian 16, Revision A.03,
 M. J. Frisch, G. W. Trucks, H. B. Schlegel, G. E. Scuseria, 
 M. A. Robb, J. R. Cheeseman, G. Scalmani, V. Barone, 
 G. A. Petersson, H. Nakatsuji, X. Li, M. Caricato, A. V. Marenich, 
 J. Bloino, B. G. Janesko, R. Gomperts, B. Mennucci, H. P. Hratchian, 
 J. V. Ortiz, A. F. Izmaylov, J. L. Sonnenberg, D. Williams-Young, 
 F. Ding, F. Lipparini, F. Egidi, J. Goings, B. Peng, A. Petrone, 
 T. Henderson, D. Ranasinghe, V. G. Zakrzewski, J. Gao, N. Rega, 
 G. Zheng, W. Liang, M. Hada, M. Ehara, K. Toyota, R. Fukuda, 
 J. Hasegawa, M. Ishida, T. Nakajima, Y. Honda, O. Kitao, H. Nakai, 
 T. Vreven, K. Throssell, J. A. Montgomery, Jr., J. E. Peralta, 
 F. Ogliaro, M. J. Bearpark, J. J. Heyd, E. N. Brothers, K. N. Kudin, 
 V. N. Staroverov, T. A. Keith, R. Kobayashi, J. Normand, 
 K. Raghavachari, A. P. Rendell, J. C. Burant, S. S. Iyengar, 
 J. Tomasi, M. Cossi, J. M. Millam, M. Klene, C. Adamo, R. Cammi, 
 J. W. Ochterski, R. L. Martin, K. Morokuma, O. Farkas, 
 J. B. Foresman, and D. J. Fox, Gaussian, Inc., Wallingford CT, 2016.
 
 ******************************************
 Gaussian 16:  ES64L-G16RevA.03 25-Dec-2016
                12-Feb-2020 
 ******************************************
 %chk=checkpoint.chk
 %mem=3GB
 %nprocshared=4
 Will use up to    4 processors via shared memory.
 -----------------------------------------
 #t pop=none jul-cc-pvdz guess=read ub3lyp
 -----------------------------------------
 -------------------------
 theory_abbreviation b3lyp
 -------------------------
 Symbolic Z-matrix:
 Charge =  0 Multiplicity = 6
 O                     0.1397    0.48623  -0.89243 
 C                     0.86854   1.47167  -0.65776 
 C                     3.19682   0.03602   0.5743 
 C                     2.71315  -0.91409  -0.24707 
 C                     3.16013  -1.00535  -1.68331 
 Fe                   -1.49531  -0.18855   0.02014 
 Cl                   -2.05485  -1.96025  -1.10221 
 C                     1.76282  -2.00119   0.17002 
 Cl                   -2.80073   1.54942  -0.22512 
 Cl                   -1.00632  -0.55585   2.12373 
 H                     3.9281    0.73026   0.15638 
 H                     2.25919  -2.97818   0.09398 
 H                     1.3889   -1.89189   1.18784 
 H                     0.90213  -2.04591  -0.5091 
 H                     3.66637  -1.96277  -1.86452 
 H                     2.29874  -0.98074  -2.36392 
 H                     3.85186  -0.20286  -1.95733 
 C                     2.94955   0.18221   2.05022 
 H                     3.78951  -0.23301   2.62421 
 H                     2.87113   1.23716   2.33781 
 H                     2.03991  -0.32384   2.38237 
 C                     0.73519   2.25365   0.60913 
 H                     1.60007   2.89443   0.78622 
 H                    -0.15819   2.88618   0.49991 
 H                     0.5615    1.59545   1.46213 
 C                     1.72411   2.01091  -1.75932 
 H                     1.23698   2.92666  -2.12486 
 H                     2.71276   2.29168  -1.39053 
 H                     1.802     1.30031  -2.58075 
 
                    Distance matrix (angstroms):
                    1          2          3          4          5
     1  O    0.000000
     2  C    1.247947   0.000000
     3  C    3.420525   3.000000   0.000000
     4  C    3.000001   3.043536   1.345846   0.000000
     5  C    3.460246   3.526868   2.486486   1.506957   0.000000
     6  Fe   1.990316   2.967091   4.730074   4.278890   5.024147
     7  Cl   3.293216   4.530095   5.863085   4.955749   5.333435
     8  C    3.154452   3.680452   2.523888   1.502951   2.525671
     9  Cl   3.197162   3.695506   6.236997   6.039226   6.647189
    10  Cl   3.390651   3.919517   4.518567   4.425322   5.661711
    11  H    3.938466   3.251682   1.091509   2.083928   2.643209
    12  H    4.179395   4.722307   3.192997   2.140757   2.804020
    13  H    3.397564   3.871759   2.713264   2.183727   3.488082
    14  H    2.672071   3.520882   3.282348   2.151620   2.749573
    15  H    4.402265   4.591243   3.188020   2.150466   1.098074
    16  H    2.996450   3.312217   3.236282   2.158064   1.098108
    17  H    3.922882   3.659668   2.625893   2.174286   1.094332
    18  C    4.080058   3.650546   1.503611   2.556422   3.923506
    19  H    5.119100   4.712681   2.150763   3.141129   4.421244
    20  H    4.296402   3.610931   2.158415   3.366663   4.613215
    21  H    3.871859   3.719990   2.176473   2.777695   4.271898
    22  C    2.394384   1.494749   3.313415   3.831442   4.664405
    23  H    3.278717   2.155102   3.281014   4.100178   4.872439
    24  H    2.790548   2.096477   4.402846   4.821268   5.560731
    25  H    2.636710   2.145581   3.188261   3.721392   4.838478
    26  C    2.363578   1.495397   3.393362   3.438132   3.341523
    27  H    2.945949   2.098838   4.413871   4.522888   4.399335
    28  H    3.182515   2.147212   3.030331   3.403599   3.340103
    29  H    2.505269   2.144434   3.674006   3.343623   2.822405
                    6          7          8          9         10
     6  Fe   0.000000
     7  Cl   2.170639   0.000000
     8  C    3.731428   4.024279   0.000000
     9  Cl   2.187425   3.693702   5.795605   0.000000
    10  Cl   2.190684   3.671294   3.684313   3.628932   0.000000
    11  H    5.502370   6.679705   3.485599   6.789236   5.465622
    12  H    4.678007   4.591074   1.098484   6.797339   4.544352
    13  H    3.547328   4.136227   1.089827   5.602864   2.897928
    14  H    3.078569   3.017085   1.097268   5.168970   3.576904
    15  H    5.774316   5.771779   2.786451   7.539666   6.302349
    16  H    4.550394   4.637350   2.783768   6.081184   5.589539
    17  H    5.701126   6.221644   3.481910   7.094230   6.354653
    18  C    4.900552   6.290616   3.116199   6.333416   4.024802
    19  H    5.891727   7.143251   3.641016   7.397771   4.832671
    20  H    5.144902   6.806054   4.051488   6.231866   4.277309
    21  H    4.253957   5.620241   2.790123   5.808602   3.065981
    22  C    3.359518   5.335720   4.399148   3.700631   3.635957
    23  H    4.435421   6.363367   4.936930   4.711569   4.526213
    24  H    3.387041   5.445367   5.261704   3.048878   3.899193
    25  H    3.080977   5.105298   4.006067   3.762113   2.742969
    26  C    4.285875   5.521084   4.452057   4.800095   5.396440
    27  H    4.665934   5.980285   5.461380   4.670005   5.933866
    28  H    5.084225   6.394693   4.665452   5.683987   5.855765
    29  H    4.455730   5.262370   4.297457   5.176503   5.784815
                   11         12         13         14         15
    11  H    0.000000
    12  H    4.067139   0.000000
    13  H    3.793025   1.770299   0.000000
    14  H    4.160104   1.753410   1.772080   0.000000
    15  H    3.377117   2.616663   3.809038   3.079792   0.000000
    16  H    3.454599   3.167427   3.777958   2.554500   1.756191
    17  H    2.311772   3.800904   4.337173   3.767647   1.772091
    18  C    2.201034   3.780408   2.735172   3.963149   4.521055
    19  H    2.652788   4.034836   3.252377   4.630468   4.812063
    20  H    2.476438   4.814382   3.648334   4.770786   5.341486
    21  H    3.103447   3.511457   2.075931   3.552557   4.833997
    22  C    3.566559   5.473569   4.236472   4.445730   5.699904
    23  H    3.240381   5.949886   4.807773   5.154797   5.906641
    24  H    4.632898   6.356038   5.069187   5.144700   6.612875
    25  H    3.713158   5.066763   3.594629   4.154671   5.776483
    26  C    3.188663   5.349024   4.902033   4.323947   4.424206
    27  H    4.155759   6.390247   5.849393   5.239205   5.465914
    28  H    2.511578   5.493717   5.089479   4.782263   4.385707
    29  H    3.512427   5.066422   4.956105   4.037162   3.825773
                   16         17         18         19         20
    16  H    0.000000
    17  H    1.783991   0.000000
    18  C    4.610928   4.125884   0.000000
    19  H    5.259563   4.582068   1.098820   0.000000
    20  H    5.230007   4.635050   1.096256   1.756936   0.000000
    21  H    4.798518   4.704338   1.092631   1.768571   1.769072
    22  C    4.663150   4.725967   3.357230   4.424125   2.929819
    23  H    5.042667   4.710717   3.282520   4.237066   2.601841
    24  H    5.402881   5.626786   4.401471   5.461345   3.908186
    25  H    4.928836   5.074754   2.836531   3.887644   2.495920
    26  C    3.105758   3.076905   4.399827   5.340079   4.324446
    27  H    4.056138   4.081611   5.281684   6.249205   5.043833
    28  H    3.439142   2.800282   4.042857   4.863289   3.877831
    29  H    2.344557   2.617271   4.900296   5.778658   5.033810
                   21         22         23         24         25
    21  H    0.000000
    22  C    3.389703   0.000000
    23  H    3.619165   1.090856   0.000000
    24  H    4.321974   1.100069   1.781429   0.000000
    25  H    2.591564   1.091330   1.795219   1.763457   0.000000
    26  C    4.764908   2.578063   2.697365   3.068103   3.449925
    27  H    5.614755   2.859966   2.933812   2.972803   3.885209
    28  H    4.639868   2.812616   2.517857   3.488480   3.640093
    29  H    5.227519   3.496031   3.730750   3.980930   4.239197
                   26         27         28         29
    26  C    0.000000
    27  H    1.099772   0.000000
    28  H    1.091916   1.766452   0.000000
    29  H    1.088931   1.781039   1.796928   0.000000
 Framework group  C1[X(C8H16Cl3FeO)]
 Deg. of freedom    81
                         Standard orientation:                         
 ---------------------------------------------------------------------
 Center     Atomic      Atomic             Coordinates (Angstroms)
 Number     Number       Type             X           Y           Z
 ---------------------------------------------------------------------
      1          8           0        0.139700    0.486226   -0.892433
      2          6           0        0.868536    1.471670   -0.657762
      3          6           0        3.196821    0.036016    0.574303
      4          6           0        2.713146   -0.914092   -0.247070
      5          6           0        3.160134   -1.005348   -1.683313
      6         26           0       -1.495308   -0.188547    0.020140
      7         17           0       -2.054846   -1.960248   -1.102209
      8          6           0        1.762822   -2.001191    0.170017
      9         17           0       -2.800733    1.549424   -0.225118
     10         17           0       -1.006324   -0.555849    2.123727
     11          1           0        3.928097    0.730255    0.156380
     12          1           0        2.259190   -2.978178    0.093980
     13          1           0        1.388901   -1.891885    1.187837
     14          1           0        0.902126   -2.045912   -0.509099
     15          1           0        3.666370   -1.962770   -1.864519
     16          1           0        2.298735   -0.980743   -2.363922
     17          1           0        3.851863   -0.202860   -1.957331
     18          6           0        2.949546    0.182205    2.050220
     19          1           0        3.789507   -0.233009    2.624213
     20          1           0        2.871133    1.237156    2.337807
     21          1           0        2.039906   -0.323835    2.382366
     22          6           0        0.735193    2.253649    0.609125
     23          1           0        1.600067    2.894428    0.786221
     24          1           0       -0.158185    2.886184    0.499912
     25          1           0        0.561496    1.595453    1.462125
     26          6           0        1.724105    2.010911   -1.759322
     27          1           0        1.236983    2.926659   -2.124859
     28          1           0        2.712758    2.291684   -1.390525
     29          1           0        1.801997    1.300306   -2.580750
 ---------------------------------------------------------------------
 Rotational constants (GHZ):           0.5616506           0.3161332           0.2975736
   427 basis functions,  1056 primitive gaussians,   461 cartesian basis functions
    77 alpha electrons       72 beta electrons
       nuclear repulsion energy      1612.1442920647 Hartrees.
 NAtoms=   29 NActive=   29 NUniq=   29 SFac= 1.00D+00 NAtFMM=   60 NAOKFM=F Big=F
 Initial guess from the checkpoint file:  "checkpoint.chk"
 B after Tr=     0.000000    0.000000    0.000000
         Rot=    1.000000    0.000000    0.000000    0.000000 Ang=   0.00 deg.
 Initial guess <Sx>= 0.0000 <Sy>= 0.0000 <Sz>= 2.5000 <S**2>= 8.7630 S= 2.5022
 SCF Done:  E(UB3LYP) =  -3034.36009069     A.U. after   13 cycles
            NFock= 13  Conv=0.84D-08     -V/T= 2.0024
 <Sx>= 0.0000 <Sy>= 0.0000 <Sz>= 2.5000 <S**2>= 8.7623 S= 2.5020
 <L.S>= 0.000000000000E+00
 Annihilation of the first spin contaminant:
 S**2 before annihilation     8.7623,   after     8.7500
 1\1\GINC-HOLY7C16606\SP\UB3LYP\Jul-CC-pVDZ\C8H16Cl3Fe1O1(6)\EKWAN\12-F
 eb-2020\0\\#t pop=none jul-cc-pvdz guess=read ub3lyp\\theory_abbreviat
 ion b3lyp\\0,6\O,0,0.1397,0.486226,-0.892433\C,0,0.868536,1.47167,-0.6
 57762\C,0,3.196821,0.036016,0.574303\C,0,2.713146,-0.914092,-0.24707\C
 ,0,3.160134,-1.005348,-1.683313\Fe,0,-1.495308,-0.188547,0.02014\Cl,0,
 -2.054846,-1.960248,-1.102209\C,0,1.762822,-2.001191,0.170017\Cl,0,-2.
 800733,1.549424,-0.225118\Cl,0,-1.006324,-0.555849,2.123727\H,0,3.9280
 97,0.730255,0.15638\H,0,2.25919,-2.978178,0.09398\H,0,1.388901,-1.8918
 85,1.187837\H,0,0.902126,-2.045912,-0.509099\H,0,3.66637,-1.96277,-1.8
 64519\H,0,2.298735,-0.980743,-2.363922\H,0,3.851863,-0.20286,-1.957331
 \C,0,2.949546,0.182205,2.05022\H,0,3.789507,-0.233009,2.624213\H,0,2.8
 71133,1.237156,2.337807\H,0,2.039906,-0.323835,2.382366\C,0,0.735193,2
 .253649,0.609125\H,0,1.600067,2.894428,0.786221\H,0,-0.158185,2.886184
 ,0.499912\H,0,0.561496,1.595453,1.462125\C,0,1.724105,2.010911,-1.7593
 22\H,0,1.236983,2.926659,-2.124859\H,0,2.712758,2.291684,-1.390525\H,0
 ,1.801997,1.300306,-2.58075\\Version=ES64L-G16RevA.03\HF=-3034.3600907
 \S2=8.762291\S2-1=0.\S2A=8.750047\RMSD=8.407e-09\PG=C01 [X(C8H16Cl3Fe1
 O1)]\\@


 THERE'S A SUCKER BORN EVERY MINUTE

              -- PHINEAS TAYLOR (P.T.) BARNUM
 Job cpu time:       0 days  0 hours 50 minutes 58.2 seconds.
 Elapsed time:       0 days  0 hours 13 minutes  7.7 seconds.
 File lengths (MBytes):  RWF=    174 Int=      0 D2E=      0 Chk=     13 Scr=      1
 Normal termination of Gaussian 16 at Wed Feb 12 15:41:42 2020.
 Initial command:
 /n/sw/g16_nehalem/g16/l1.exe "/scratch/Gau-296503.inp" -scrdir="/scratch/"
 Entering Link 1 = /n/sw/g16_nehalem/g16/l1.exe PID=    299021.
  
 Copyright (c) 1988,1990,1992,1993,1995,1998,2003,2009,2016,
            Gaussian, Inc.  All Rights Reserved.
  
 This is part of the Gaussian(R) 16 program.  It is based on
 the Gaussian(R) 09 system (copyright 2009, Gaussian, Inc.),
 the Gaussian(R) 03 system (copyright 2003, Gaussian, Inc.),
 the Gaussian(R) 98 system (copyright 1998, Gaussian, Inc.),
 the Gaussian(R) 94 system (copyright 1995, Gaussian, Inc.),
 the Gaussian 92(TM) system (copyright 1992, Gaussian, Inc.),
 the Gaussian 90(TM) system (copyright 1990, Gaussian, Inc.),
 the Gaussian 88(TM) system (copyright 1988, Gaussian, Inc.),
 the Gaussian 86(TM) system (copyright 1986, Carnegie Mellon
 University), and the Gaussian 82(TM) system (copyright 1983,
 Carnegie Mellon University). Gaussian is a federally registered
 trademark of Gaussian, Inc.
  
 This software contains proprietary and confidential information,
 including trade secrets, belonging to Gaussian, Inc.
  
 This software is provided under written license and may be
 used, copied, transmitted, or stored only in accord with that
 written license.
  
 The following legend is applicable only to US Government
 contracts under FAR:
  
                    RESTRICTED RIGHTS LEGEND
  
 Use, reproduction and disclosure by the US Government is
 subject to restrictions as set forth in subparagraphs (a)
 and (c) of the Commercial Computer Software - Restricted
 Rights clause in FAR 52.227-19.
  
 Gaussian, Inc.
 340 Quinnipiac St., Bldg. 40, Wallingford CT 06492
  
  
 ---------------------------------------------------------------
 Warning -- This program may not be used in any manner that
 competes with the business of Gaussian, Inc. or will provide
 assistance to any competitor of Gaussian, Inc.  The licensee
 of this program is prohibited from giving any competitor of
 Gaussian, Inc. access to this program.  By using this program,
 the user acknowledges that Gaussian, Inc. is engaged in the
 business of creating and licensing software in the field of
 computational chemistry and represents and warrants to the
 licensee that it is not a competitor of Gaussian, Inc. and that
 it will not use this program in any manner prohibited above.
 ---------------------------------------------------------------
  

 Cite this work as:
 Gaussian 16, Revision A.03,
 M. J. Frisch, G. W. Trucks, H. B. Schlegel, G. E. Scuseria, 
 M. A. Robb, J. R. Cheeseman, G. Scalmani, V. Barone, 
 G. A. Petersson, H. Nakatsuji, X. Li, M. Caricato, A. V. Marenich, 
 J. Bloino, B. G. Janesko, R. Gomperts, B. Mennucci, H. P. Hratchian, 
 J. V. Ortiz, A. F. Izmaylov, J. L. Sonnenberg, D. Williams-Young, 
 F. Ding, F. Lipparini, F. Egidi, J. Goings, B. Peng, A. Petrone, 
 T. Henderson, D. Ranasinghe, V. G. Zakrzewski, J. Gao, N. Rega, 
 G. Zheng, W. Liang, M. Hada, M. Ehara, K. Toyota, R. Fukuda, 
 J. Hasegawa, M. Ishida, T. Nakajima, Y. Honda, O. Kitao, H. Nakai, 
 T. Vreven, K. Throssell, J. A. Montgomery, Jr., J. E. Peralta, 
 F. Ogliaro, M. J. Bearpark, J. J. Heyd, E. N. Brothers, K. N. Kudin, 
 V. N. Staroverov, T. A. Keith, R. Kobayashi, J. Normand, 
 K. Raghavachari, A. P. Rendell, J. C. Burant, S. S. Iyengar, 
 J. Tomasi, M. Cossi, J. M. Millam, M. Klene, C. Adamo, R. Cammi, 
 J. W. Ochterski, R. L. Martin, K. Morokuma, O. Farkas, 
 J. B. Foresman, and D. J. Fox, Gaussian, Inc., Wallingford CT, 2016.
 
 ******************************************
 Gaussian 16:  ES64L-G16RevA.03 25-Dec-2016
                12-Feb-2020 
 ******************************************
 %chk=checkpoint.chk
 %mem=3GB
 %nprocshared=4
 Will use up to    4 processors via shared memory.
 -------------------------------------------------------------------
 #t pop=none jul-cc-pvdz guess=read ub3lyp empiricaldispersion=gd3bj
 -------------------------------------------------------------------
 ------------------------------
 theory_abbreviation b3lyp_d3bj
 ------------------------------
 Symbolic Z-matrix:
 Charge =  0 Multiplicity = 6
 O                     0.1397    0.48623  -0.89243 
 C                     0.86854   1.47167  -0.65776 
 C                     3.19682   0.03602   0.5743 
 C                     2.71315  -0.91409  -0.24707 
 C                     3.16013  -1.00535  -1.68331 
 Fe                   -1.49531  -0.18855   0.02014 
 Cl                   -2.05485  -1.96025  -1.10221 
 C                     1.76282  -2.00119   0.17002 
 Cl                   -2.80073   1.54942  -0.22512 
 Cl                   -1.00632  -0.55585   2.12373 
 H                     3.9281    0.73026   0.15638 
 H                     2.25919  -2.97818   0.09398 
 H                     1.3889   -1.89189   1.18784 
 H                     0.90213  -2.04591  -0.5091 
 H                     3.66637  -1.96277  -1.86452 
 H                     2.29874  -0.98074  -2.36392 
 H                     3.85186  -0.20286  -1.95733 
 C                     2.94955   0.18221   2.05022 
 H                     3.78951  -0.23301   2.62421 
 H                     2.87113   1.23716   2.33781 
 H                     2.03991  -0.32384   2.38237 
 C                     0.73519   2.25365   0.60913 
 H                     1.60007   2.89443   0.78622 
 H                    -0.15819   2.88618   0.49991 
 H                     0.5615    1.59545   1.46213 
 C                     1.72411   2.01091  -1.75932 
 H                     1.23698   2.92666  -2.12486 
 H                     2.71276   2.29168  -1.39053 
 H                     1.802     1.30031  -2.58075 
 
                    Distance matrix (angstroms):
                    1          2          3          4          5
     1  O    0.000000
     2  C    1.247947   0.000000
     3  C    3.420525   3.000000   0.000000
     4  C    3.000001   3.043536   1.345846   0.000000
     5  C    3.460246   3.526868   2.486486   1.506957   0.000000
     6  Fe   1.990316   2.967091   4.730074   4.278890   5.024147
     7  Cl   3.293216   4.530095   5.863085   4.955749   5.333435
     8  C    3.154452   3.680452   2.523888   1.502951   2.525671
     9  Cl   3.197162   3.695506   6.236997   6.039226   6.647189
    10  Cl   3.390651   3.919517   4.518567   4.425322   5.661711
    11  H    3.938466   3.251682   1.091509   2.083928   2.643209
    12  H    4.179395   4.722307   3.192997   2.140757   2.804020
    13  H    3.397564   3.871759   2.713264   2.183727   3.488082
    14  H    2.672071   3.520882   3.282348   2.151620   2.749573
    15  H    4.402265   4.591243   3.188020   2.150466   1.098074
    16  H    2.996450   3.312217   3.236282   2.158064   1.098108
    17  H    3.922882   3.659668   2.625893   2.174286   1.094332
    18  C    4.080058   3.650546   1.503611   2.556422   3.923506
    19  H    5.119100   4.712681   2.150763   3.141129   4.421244
    20  H    4.296402   3.610931   2.158415   3.366663   4.613215
    21  H    3.871859   3.719990   2.176473   2.777695   4.271898
    22  C    2.394384   1.494749   3.313415   3.831442   4.664405
    23  H    3.278717   2.155102   3.281014   4.100178   4.872439
    24  H    2.790548   2.096477   4.402846   4.821268   5.560731
    25  H    2.636710   2.145581   3.188261   3.721392   4.838478
    26  C    2.363578   1.495397   3.393362   3.438132   3.341523
    27  H    2.945949   2.098838   4.413871   4.522888   4.399335
    28  H    3.182515   2.147212   3.030331   3.403599   3.340103
    29  H    2.505269   2.144434   3.674006   3.343623   2.822405
                    6          7          8          9         10
     6  Fe   0.000000
     7  Cl   2.170639   0.000000
     8  C    3.731428   4.024279   0.000000
     9  Cl   2.187425   3.693702   5.795605   0.000000
    10  Cl   2.190684   3.671294   3.684313   3.628932   0.000000
    11  H    5.502370   6.679705   3.485599   6.789236   5.465622
    12  H    4.678007   4.591074   1.098484   6.797339   4.544352
    13  H    3.547328   4.136227   1.089827   5.602864   2.897928
    14  H    3.078569   3.017085   1.097268   5.168970   3.576904
    15  H    5.774316   5.771779   2.786451   7.539666   6.302349
    16  H    4.550394   4.637350   2.783768   6.081184   5.589539
    17  H    5.701126   6.221644   3.481910   7.094230   6.354653
    18  C    4.900552   6.290616   3.116199   6.333416   4.024802
    19  H    5.891727   7.143251   3.641016   7.397771   4.832671
    20  H    5.144902   6.806054   4.051488   6.231866   4.277309
    21  H    4.253957   5.620241   2.790123   5.808602   3.065981
    22  C    3.359518   5.335720   4.399148   3.700631   3.635957
    23  H    4.435421   6.363367   4.936930   4.711569   4.526213
    24  H    3.387041   5.445367   5.261704   3.048878   3.899193
    25  H    3.080977   5.105298   4.006067   3.762113   2.742969
    26  C    4.285875   5.521084   4.452057   4.800095   5.396440
    27  H    4.665934   5.980285   5.461380   4.670005   5.933866
    28  H    5.084225   6.394693   4.665452   5.683987   5.855765
    29  H    4.455730   5.262370   4.297457   5.176503   5.784815
                   11         12         13         14         15
    11  H    0.000000
    12  H    4.067139   0.000000
    13  H    3.793025   1.770299   0.000000
    14  H    4.160104   1.753410   1.772080   0.000000
    15  H    3.377117   2.616663   3.809038   3.079792   0.000000
    16  H    3.454599   3.167427   3.777958   2.554500   1.756191
    17  H    2.311772   3.800904   4.337173   3.767647   1.772091
    18  C    2.201034   3.780408   2.735172   3.963149   4.521055
    19  H    2.652788   4.034836   3.252377   4.630468   4.812063
    20  H    2.476438   4.814382   3.648334   4.770786   5.341486
    21  H    3.103447   3.511457   2.075931   3.552557   4.833997
    22  C    3.566559   5.473569   4.236472   4.445730   5.699904
    23  H    3.240381   5.949886   4.807773   5.154797   5.906641
    24  H    4.632898   6.356038   5.069187   5.144700   6.612875
    25  H    3.713158   5.066763   3.594629   4.154671   5.776483
    26  C    3.188663   5.349024   4.902033   4.323947   4.424206
    27  H    4.155759   6.390247   5.849393   5.239205   5.465914
    28  H    2.511578   5.493717   5.089479   4.782263   4.385707
    29  H    3.512427   5.066422   4.956105   4.037162   3.825773
                   16         17         18         19         20
    16  H    0.000000
    17  H    1.783991   0.000000
    18  C    4.610928   4.125884   0.000000
    19  H    5.259563   4.582068   1.098820   0.000000
    20  H    5.230007   4.635050   1.096256   1.756936   0.000000
    21  H    4.798518   4.704338   1.092631   1.768571   1.769072
    22  C    4.663150   4.725967   3.357230   4.424125   2.929819
    23  H    5.042667   4.710717   3.282520   4.237066   2.601841
    24  H    5.402881   5.626786   4.401471   5.461345   3.908186
    25  H    4.928836   5.074754   2.836531   3.887644   2.495920
    26  C    3.105758   3.076905   4.399827   5.340079   4.324446
    27  H    4.056138   4.081611   5.281684   6.249205   5.043833
    28  H    3.439142   2.800282   4.042857   4.863289   3.877831
    29  H    2.344557   2.617271   4.900296   5.778658   5.033810
                   21         22         23         24         25
    21  H    0.000000
    22  C    3.389703   0.000000
    23  H    3.619165   1.090856   0.000000
    24  H    4.321974   1.100069   1.781429   0.000000
    25  H    2.591564   1.091330   1.795219   1.763457   0.000000
    26  C    4.764908   2.578063   2.697365   3.068103   3.449925
    27  H    5.614755   2.859966   2.933812   2.972803   3.885209
    28  H    4.639868   2.812616   2.517857   3.488480   3.640093
    29  H    5.227519   3.496031   3.730750   3.980930   4.239197
                   26         27         28         29
    26  C    0.000000
    27  H    1.099772   0.000000
    28  H    1.091916   1.766452   0.000000
    29  H    1.088931   1.781039   1.796928   0.000000
 Framework group  C1[X(C8H16Cl3FeO)]
 Deg. of freedom    81
                         Standard orientation:                         
 ---------------------------------------------------------------------
 Center     Atomic      Atomic             Coordinates (Angstroms)
 Number     Number       Type             X           Y           Z
 ---------------------------------------------------------------------
      1          8           0        0.139700    0.486226   -0.892433
      2          6           0        0.868536    1.471670   -0.657762
      3          6           0        3.196821    0.036016    0.574303
      4          6           0        2.713146   -0.914092   -0.247070
      5          6           0        3.160134   -1.005348   -1.683313
      6         26           0       -1.495308   -0.188547    0.020140
      7         17           0       -2.054846   -1.960248   -1.102209
      8          6           0        1.762822   -2.001191    0.170017
      9         17           0       -2.800733    1.549424   -0.225118
     10         17           0       -1.006324   -0.555849    2.123727
     11          1           0        3.928097    0.730255    0.156380
     12          1           0        2.259190   -2.978178    0.093980
     13          1           0        1.388901   -1.891885    1.187837
     14          1           0        0.902126   -2.045912   -0.509099
     15          1           0        3.666370   -1.962770   -1.864519
     16          1           0        2.298735   -0.980743   -2.363922
     17          1           0        3.851863   -0.202860   -1.957331
     18          6           0        2.949546    0.182205    2.050220
     19          1           0        3.789507   -0.233009    2.624213
     20          1           0        2.871133    1.237156    2.337807
     21          1           0        2.039906   -0.323835    2.382366
     22          6           0        0.735193    2.253649    0.609125
     23          1           0        1.600067    2.894428    0.786221
     24          1           0       -0.158185    2.886184    0.499912
     25          1           0        0.561496    1.595453    1.462125
     26          6           0        1.724105    2.010911   -1.759322
     27          1           0        1.236983    2.926659   -2.124859
     28          1           0        2.712758    2.291684   -1.390525
     29          1           0        1.801997    1.300306   -2.580750
 ---------------------------------------------------------------------
 Rotational constants (GHZ):           0.5616506           0.3161332           0.2975736
   427 basis functions,  1056 primitive gaussians,   461 cartesian basis functions
    77 alpha electrons       72 beta electrons
       nuclear repulsion energy      1612.1442920647 Hartrees.
 NAtoms=   29 NActive=   29 NUniq=   29 SFac= 1.00D+00 NAtFMM=   60 NAOKFM=F Big=F
 Nuclear repulsion after empirical dispersion term =     1612.0784701963 Hartrees.
 Initial guess from the checkpoint file:  "checkpoint.chk"
 B after Tr=     0.000000    0.000000    0.000000
         Rot=    1.000000    0.000000    0.000000    0.000000 Ang=   0.00 deg.
 Initial guess <Sx>= 0.0000 <Sy>= 0.0000 <Sz>= 2.5000 <S**2>= 8.7623 S= 2.5020
 SCF Done:  E(UB3LYP) =  -3034.42591256     A.U. after    1 cycles
            NFock=  1  Conv=0.74D-08     -V/T= 2.0024
 <Sx>= 0.0000 <Sy>= 0.0000 <Sz>= 2.5000 <S**2>= 8.7623 S= 2.5020
 <L.S>= 0.000000000000E+00
 Annihilation of the first spin contaminant:
 S**2 before annihilation     8.7623,   after     8.7500
 1\1\GINC-HOLY7C16606\SP\UB3LYP\Jul-CC-pVDZ\C8H16Cl3Fe1O1(6)\EKWAN\12-F
 eb-2020\0\\#t pop=none jul-cc-pvdz guess=read ub3lyp empiricaldispersi
 on=gd3bj\\theory_abbreviation b3lyp_d3bj\\0,6\O,0,0.1397,0.486226,-0.8
 92433\C,0,0.868536,1.47167,-0.657762\C,0,3.196821,0.036016,0.574303\C,
 0,2.713146,-0.914092,-0.24707\C,0,3.160134,-1.005348,-1.683313\Fe,0,-1
 .495308,-0.188547,0.02014\Cl,0,-2.054846,-1.960248,-1.102209\C,0,1.762
 822,-2.001191,0.170017\Cl,0,-2.800733,1.549424,-0.225118\Cl,0,-1.00632
 4,-0.555849,2.123727\H,0,3.928097,0.730255,0.15638\H,0,2.25919,-2.9781
 78,0.09398\H,0,1.388901,-1.891885,1.187837\H,0,0.902126,-2.045912,-0.5
 09099\H,0,3.66637,-1.96277,-1.864519\H,0,2.298735,-0.980743,-2.363922\
 H,0,3.851863,-0.20286,-1.957331\C,0,2.949546,0.182205,2.05022\H,0,3.78
 9507,-0.233009,2.624213\H,0,2.871133,1.237156,2.337807\H,0,2.039906,-0
 .323835,2.382366\C,0,0.735193,2.253649,0.609125\H,0,1.600067,2.894428,
 0.786221\H,0,-0.158185,2.886184,0.499912\H,0,0.561496,1.595453,1.46212
 5\C,0,1.724105,2.010911,-1.759322\H,0,1.236983,2.926659,-2.124859\H,0,
 2.712758,2.291684,-1.390525\H,0,1.801997,1.300306,-2.58075\\Version=ES
 64L-G16RevA.03\HF=-3034.4259126\S2=8.762291\S2-1=0.\S2A=8.750047\RMSD=
 7.419e-09\PG=C01 [X(C8H16Cl3Fe1O1)]\\@


 WE SHOULD BE CAREFUL TO GET OUT OF AN EXPERIENCE ONLY THE WISDOM
 THAT IS IN IT -- AND STOP THERE;
 LEST WE BE LIKE THE CAT THAT SITS DOWN ON A HOT STOVE-LID.
 SHE WILL NEVER SIT DOWN ON A HOT STOVE LID AGAIN;
 BUT ALSO SHE WILL NEVER SIT DOWN ON A COLD ONE ANY MORE.

                                                     -- MARK TWAIN
 Job cpu time:       0 days  0 hours  4 minutes 59.8 seconds.
 Elapsed time:       0 days  0 hours  1 minutes 56.7 seconds.
 File lengths (MBytes):  RWF=    170 Int=      0 D2E=      0 Chk=     13 Scr=      1
 Normal termination of Gaussian 16 at Wed Feb 12 15:43:39 2020.
 Initial command:
 /n/sw/g16_nehalem/g16/l1.exe "/scratch/Gau-296503.inp" -scrdir="/scratch/"
 Entering Link 1 = /n/sw/g16_nehalem/g16/l1.exe PID=    299144.
  
 Copyright (c) 1988,1990,1992,1993,1995,1998,2003,2009,2016,
            Gaussian, Inc.  All Rights Reserved.
  
 This is part of the Gaussian(R) 16 program.  It is based on
 the Gaussian(R) 09 system (copyright 2009, Gaussian, Inc.),
 the Gaussian(R) 03 system (copyright 2003, Gaussian, Inc.),
 the Gaussian(R) 98 system (copyright 1998, Gaussian, Inc.),
 the Gaussian(R) 94 system (copyright 1995, Gaussian, Inc.),
 the Gaussian 92(TM) system (copyright 1992, Gaussian, Inc.),
 the Gaussian 90(TM) system (copyright 1990, Gaussian, Inc.),
 the Gaussian 88(TM) system (copyright 1988, Gaussian, Inc.),
 the Gaussian 86(TM) system (copyright 1986, Carnegie Mellon
 University), and the Gaussian 82(TM) system (copyright 1983,
 Carnegie Mellon University). Gaussian is a federally registered
 trademark of Gaussian, Inc.
  
 This software contains proprietary and confidential information,
 including trade secrets, belonging to Gaussian, Inc.
  
 This software is provided under written license and may be
 used, copied, transmitted, or stored only in accord with that
 written license.
  
 The following legend is applicable only to US Government
 contracts under FAR:
  
                    RESTRICTED RIGHTS LEGEND
  
 Use, reproduction and disclosure by the US Government is
 subject to restrictions as set forth in subparagraphs (a)
 and (c) of the Commercial Computer Software - Restricted
 Rights clause in FAR 52.227-19.
  
 Gaussian, Inc.
 340 Quinnipiac St., Bldg. 40, Wallingford CT 06492
  
  
 ---------------------------------------------------------------
 Warning -- This program may not be used in any manner that
 competes with the business of Gaussian, Inc. or will provide
 assistance to any competitor of Gaussian, Inc.  The licensee
 of this program is prohibited from giving any competitor of
 Gaussian, Inc. access to this program.  By using this program,
 the user acknowledges that Gaussian, Inc. is engaged in the
 business of creating and licensing software in the field of
 computational chemistry and represents and warrants to the
 licensee that it is not a competitor of Gaussian, Inc. and that
 it will not use this program in any manner prohibited above.
 ---------------------------------------------------------------
  

 Cite this work as:
 Gaussian 16, Revision A.03,
 M. J. Frisch, G. W. Trucks, H. B. Schlegel, G. E. Scuseria, 
 M. A. Robb, J. R. Cheeseman, G. Scalmani, V. Barone, 
 G. A. Petersson, H. Nakatsuji, X. Li, M. Caricato, A. V. Marenich, 
 J. Bloino, B. G. Janesko, R. Gomperts, B. Mennucci, H. P. Hratchian, 
 J. V. Ortiz, A. F. Izmaylov, J. L. Sonnenberg, D. Williams-Young, 
 F. Ding, F. Lipparini, F. Egidi, J. Goings, B. Peng, A. Petrone, 
 T. Henderson, D. Ranasinghe, V. G. Zakrzewski, J. Gao, N. Rega, 
 G. Zheng, W. Liang, M. Hada, M. Ehara, K. Toyota, R. Fukuda, 
 J. Hasegawa, M. Ishida, T. Nakajima, Y. Honda, O. Kitao, H. Nakai, 
 T. Vreven, K. Throssell, J. A. Montgomery, Jr., J. E. Peralta, 
 F. Ogliaro, M. J. Bearpark, J. J. Heyd, E. N. Brothers, K. N. Kudin, 
 V. N. Staroverov, T. A. Keith, R. Kobayashi, J. Normand, 
 K. Raghavachari, A. P. Rendell, J. C. Burant, S. S. Iyengar, 
 J. Tomasi, M. Cossi, J. M. Millam, M. Klene, C. Adamo, R. Cammi, 
 J. W. Ochterski, R. L. Martin, K. Morokuma, O. Farkas, 
 J. B. Foresman, and D. J. Fox, Gaussian, Inc., Wallingford CT, 2016.
 
 ******************************************
 Gaussian 16:  ES64L-G16RevA.03 25-Dec-2016
                12-Feb-2020 
 ******************************************
 %chk=checkpoint.chk
 %mem=3GB
 %nprocshared=4
 Will use up to    4 processors via shared memory.
 ----------------------------------------
 #t pop=none jul-cc-pvdz guess=read ub97d
 ----------------------------------------
 ------------------------
 theory_abbreviation b97d
 ------------------------
 Symbolic Z-matrix:
 Charge =  0 Multiplicity = 6
 O                     0.1397    0.48623  -0.89243 
 C                     0.86854   1.47167  -0.65776 
 C                     3.19682   0.03602   0.5743 
 C                     2.71315  -0.91409  -0.24707 
 C                     3.16013  -1.00535  -1.68331 
 Fe                   -1.49531  -0.18855   0.02014 
 Cl                   -2.05485  -1.96025  -1.10221 
 C                     1.76282  -2.00119   0.17002 
 Cl                   -2.80073   1.54942  -0.22512 
 Cl                   -1.00632  -0.55585   2.12373 
 H                     3.9281    0.73026   0.15638 
 H                     2.25919  -2.97818   0.09398 
 H                     1.3889   -1.89189   1.18784 
 H                     0.90213  -2.04591  -0.5091 
 H                     3.66637  -1.96277  -1.86452 
 H                     2.29874  -0.98074  -2.36392 
 H                     3.85186  -0.20286  -1.95733 
 C                     2.94955   0.18221   2.05022 
 H                     3.78951  -0.23301   2.62421 
 H                     2.87113   1.23716   2.33781 
 H                     2.03991  -0.32384   2.38237 
 C                     0.73519   2.25365   0.60913 
 H                     1.60007   2.89443   0.78622 
 H                    -0.15819   2.88618   0.49991 
 H                     0.5615    1.59545   1.46213 
 C                     1.72411   2.01091  -1.75932 
 H                     1.23698   2.92666  -2.12486 
 H                     2.71276   2.29168  -1.39053 
 H                     1.802     1.30031  -2.58075 
 
                    Distance matrix (angstroms):
                    1          2          3          4          5
     1  O    0.000000
     2  C    1.247947   0.000000
     3  C    3.420525   3.000000   0.000000
     4  C    3.000001   3.043536   1.345846   0.000000
     5  C    3.460246   3.526868   2.486486   1.506957   0.000000
     6  Fe   1.990316   2.967091   4.730074   4.278890   5.024147
     7  Cl   3.293216   4.530095   5.863085   4.955749   5.333435
     8  C    3.154452   3.680452   2.523888   1.502951   2.525671
     9  Cl   3.197162   3.695506   6.236997   6.039226   6.647189
    10  Cl   3.390651   3.919517   4.518567   4.425322   5.661711
    11  H    3.938466   3.251682   1.091509   2.083928   2.643209
    12  H    4.179395   4.722307   3.192997   2.140757   2.804020
    13  H    3.397564   3.871759   2.713264   2.183727   3.488082
    14  H    2.672071   3.520882   3.282348   2.151620   2.749573
    15  H    4.402265   4.591243   3.188020   2.150466   1.098074
    16  H    2.996450   3.312217   3.236282   2.158064   1.098108
    17  H    3.922882   3.659668   2.625893   2.174286   1.094332
    18  C    4.080058   3.650546   1.503611   2.556422   3.923506
    19  H    5.119100   4.712681   2.150763   3.141129   4.421244
    20  H    4.296402   3.610931   2.158415   3.366663   4.613215
    21  H    3.871859   3.719990   2.176473   2.777695   4.271898
    22  C    2.394384   1.494749   3.313415   3.831442   4.664405
    23  H    3.278717   2.155102   3.281014   4.100178   4.872439
    24  H    2.790548   2.096477   4.402846   4.821268   5.560731
    25  H    2.636710   2.145581   3.188261   3.721392   4.838478
    26  C    2.363578   1.495397   3.393362   3.438132   3.341523
    27  H    2.945949   2.098838   4.413871   4.522888   4.399335
    28  H    3.182515   2.147212   3.030331   3.403599   3.340103
    29  H    2.505269   2.144434   3.674006   3.343623   2.822405
                    6          7          8          9         10
     6  Fe   0.000000
     7  Cl   2.170639   0.000000
     8  C    3.731428   4.024279   0.000000
     9  Cl   2.187425   3.693702   5.795605   0.000000
    10  Cl   2.190684   3.671294   3.684313   3.628932   0.000000
    11  H    5.502370   6.679705   3.485599   6.789236   5.465622
    12  H    4.678007   4.591074   1.098484   6.797339   4.544352
    13  H    3.547328   4.136227   1.089827   5.602864   2.897928
    14  H    3.078569   3.017085   1.097268   5.168970   3.576904
    15  H    5.774316   5.771779   2.786451   7.539666   6.302349
    16  H    4.550394   4.637350   2.783768   6.081184   5.589539
    17  H    5.701126   6.221644   3.481910   7.094230   6.354653
    18  C    4.900552   6.290616   3.116199   6.333416   4.024802
    19  H    5.891727   7.143251   3.641016   7.397771   4.832671
    20  H    5.144902   6.806054   4.051488   6.231866   4.277309
    21  H    4.253957   5.620241   2.790123   5.808602   3.065981
    22  C    3.359518   5.335720   4.399148   3.700631   3.635957
    23  H    4.435421   6.363367   4.936930   4.711569   4.526213
    24  H    3.387041   5.445367   5.261704   3.048878   3.899193
    25  H    3.080977   5.105298   4.006067   3.762113   2.742969
    26  C    4.285875   5.521084   4.452057   4.800095   5.396440
    27  H    4.665934   5.980285   5.461380   4.670005   5.933866
    28  H    5.084225   6.394693   4.665452   5.683987   5.855765
    29  H    4.455730   5.262370   4.297457   5.176503   5.784815
                   11         12         13         14         15
    11  H    0.000000
    12  H    4.067139   0.000000
    13  H    3.793025   1.770299   0.000000
    14  H    4.160104   1.753410   1.772080   0.000000
    15  H    3.377117   2.616663   3.809038   3.079792   0.000000
    16  H    3.454599   3.167427   3.777958   2.554500   1.756191
    17  H    2.311772   3.800904   4.337173   3.767647   1.772091
    18  C    2.201034   3.780408   2.735172   3.963149   4.521055
    19  H    2.652788   4.034836   3.252377   4.630468   4.812063
    20  H    2.476438   4.814382   3.648334   4.770786   5.341486
    21  H    3.103447   3.511457   2.075931   3.552557   4.833997
    22  C    3.566559   5.473569   4.236472   4.445730   5.699904
    23  H    3.240381   5.949886   4.807773   5.154797   5.906641
    24  H    4.632898   6.356038   5.069187   5.144700   6.612875
    25  H    3.713158   5.066763   3.594629   4.154671   5.776483
    26  C    3.188663   5.349024   4.902033   4.323947   4.424206
    27  H    4.155759   6.390247   5.849393   5.239205   5.465914
    28  H    2.511578   5.493717   5.089479   4.782263   4.385707
    29  H    3.512427   5.066422   4.956105   4.037162   3.825773
                   16         17         18         19         20
    16  H    0.000000
    17  H    1.783991   0.000000
    18  C    4.610928   4.125884   0.000000
    19  H    5.259563   4.582068   1.098820   0.000000
    20  H    5.230007   4.635050   1.096256   1.756936   0.000000
    21  H    4.798518   4.704338   1.092631   1.768571   1.769072
    22  C    4.663150   4.725967   3.357230   4.424125   2.929819
    23  H    5.042667   4.710717   3.282520   4.237066   2.601841
[...]
    77 alpha electrons       72 beta electrons
       nuclear repulsion energy      1612.1442920647 Hartrees.
 NAtoms=   29 NActive=   29 NUniq=   29 SFac= 1.00D+00 NAtFMM=   60 NAOKFM=F Big=F
 Nuclear repulsion after empirical dispersion term =     1612.1417875763 Hartrees.
 Initial guess from the checkpoint file:  "checkpoint.chk"
 B after Tr=     0.000000    0.000000    0.000000
         Rot=    1.000000    0.000000    0.000000    0.000000 Ang=   0.00 deg.
 Initial guess <Sx>= 0.0000 <Sy>= 0.0000 <Sz>= 2.5000 <S**2>= 8.7619 S= 2.5020
 SCF Done:  E(UM06L) =  -3034.22605564     A.U. after   18 cycles
            NFock= 18  Conv=0.38D-08     -V/T= 2.0020
 <Sx>= 0.0000 <Sy>= 0.0000 <Sz>= 2.5000 <S**2>= 8.7618 S= 2.5020
 <L.S>= 0.000000000000E+00
 Annihilation of the first spin contaminant:
 S**2 before annihilation     8.7618,   after     8.7500
 1\1\GINC-HOLY7C16606\SP\UM06L\Jul-CC-pVDZ\C8H16Cl3Fe1O1(6)\EKWAN\13-Fe
 b-2020\0\\#t pop=none jul-cc-pvdz guess=read um06l empiricaldispersion
 =gd3\\theory_abbreviation m06l_d3\\0,6\O,0,0.1397,0.486226,-0.892433\C
 ,0,0.868536,1.47167,-0.657762\C,0,3.196821,0.036016,0.574303\C,0,2.713
 146,-0.914092,-0.24707\C,0,3.160134,-1.005348,-1.683313\Fe,0,-1.495308
 ,-0.188547,0.02014\Cl,0,-2.054846,-1.960248,-1.102209\C,0,1.762822,-2.
 001191,0.170017\Cl,0,-2.800733,1.549424,-0.225118\Cl,0,-1.006324,-0.55
 5849,2.123727\H,0,3.928097,0.730255,0.15638\H,0,2.25919,-2.978178,0.09
 398\H,0,1.388901,-1.891885,1.187837\H,0,0.902126,-2.045912,-0.509099\H
 ,0,3.66637,-1.96277,-1.864519\H,0,2.298735,-0.980743,-2.363922\H,0,3.8
 51863,-0.20286,-1.957331\C,0,2.949546,0.182205,2.05022\H,0,3.789507,-0
 .233009,2.624213\H,0,2.871133,1.237156,2.337807\H,0,2.039906,-0.323835
 ,2.382366\C,0,0.735193,2.253649,0.609125\H,0,1.600067,2.894428,0.78622
 1\H,0,-0.158185,2.886184,0.499912\H,0,0.561496,1.595453,1.462125\C,0,1
 .724105,2.010911,-1.759322\H,0,1.236983,2.926659,-2.124859\H,0,2.71275
 8,2.291684,-1.390525\H,0,1.801997,1.300306,-2.58075\\Version=ES64L-G16
 RevA.03\HF=-3034.2260556\S2=8.761802\S2-1=0.\S2A=8.750044\RMSD=3.795e-
 09\PG=C01 [X(C8H16Cl3Fe1O1)]\\@


 WE HAVE SEEN THAT MAN ON THE AVERAGE DOES NOT LIVE ABOVE
 TWO-AND-TWENTY YEARS.  DURING THESE TWO AND TWENTY
 YEARS HE IS LIABLE TO TWO AND TWENTY THOUSAND EVILS,
 MANY OF WHICH ARE INCURABLE.  YET EVEN IN THIS DREADFUL STATE
 MEN STILL STRUT AND POSE ON THE STAGE OF LIFE.
 THEY MAKE LOVE AT THE RISK OF DESTRUCTION,
 INTRIGUE, CARRY ON WAR, AND FORM PROJECTS, JUST AS IF THEY
 WERE TO LIVE IN LUXURY AND HAPPINESS FOR A THOUSAND
 AGES.

                                              -- VOLTAIRE
 Job cpu time:       0 days  1 hours 15 minutes 12.2 seconds.
 Elapsed time:       0 days  0 hours 18 minutes 51.1 seconds.
 File lengths (MBytes):  RWF=    174 Int=      0 D2E=      0 Chk=     13 Scr=      1
 Normal termination of Gaussian 16 at Thu Feb 13 00:12:11 2020.
 Initial command:
 /n/sw/g16_nehalem/g16/l1.exe "/scratch/Gau-296503.inp" -scrdir="/scratch/"
 Entering Link 1 = /n/sw/g16_nehalem/g16/l1.exe PID=    340366.
  
 Copyright (c) 1988,1990,1992,1993,1995,1998,2003,2009,2016,
            Gaussian, Inc.  All Rights Reserved.
  
 This is part of the Gaussian(R) 16 program.  It is based on
 the Gaussian(R) 09 system (copyright 2009, Gaussian, Inc.),
 the Gaussian(R) 03 system (copyright 2003, Gaussian, Inc.),
 the Gaussian(R) 98 system (copyright 1998, Gaussian, Inc.),
 the Gaussian(R) 94 system (copyright 1995, Gaussian, Inc.),
 the Gaussian 92(TM) system (copyright 1992, Gaussian, Inc.),
 the Gaussian 90(TM) system (copyright 1990, Gaussian, Inc.),
 the Gaussian 88(TM) system (copyright 1988, Gaussian, Inc.),
 the Gaussian 86(TM) system (copyright 1986, Carnegie Mellon
 University), and the Gaussian 82(TM) system (copyright 1983,
 Carnegie Mellon University). Gaussian is a federally registered
 trademark of Gaussian, Inc.
  
 This software contains proprietary and confidential information,
 including trade secrets, belonging to Gaussian, Inc.
  
 This software is provided under written license and may be
 used, copied, transmitted, or stored only in accord with that
 written license.
  
 The following legend is applicable only to US Government
 contracts under FAR:
  
                    RESTRICTED RIGHTS LEGEND
  
 Use, reproduction and disclosure by the US Government is
 subject to restrictions as set forth in subparagraphs (a)
 and (c) of the Commercial Computer Software - Restricted
 Rights clause in FAR 52.227-19.
  
 Gaussian, Inc.
 340 Quinnipiac St., Bldg. 40, Wallingford CT 06492
  
  
 ---------------------------------------------------------------
 Warning -- This program may not be used in any manner that
 competes with the business of Gaussian, Inc. or will provide
 assistance to any competitor of Gaussian, Inc.  The licensee
 of this program is prohibited from giving any competitor of
 Gaussian, Inc. access to this program.  By using this program,
 the user acknowledges that Gaussian, Inc. is engaged in the
 business of creating and licensing software in the field of
 computational chemistry and represents and warrants to the
 licensee that it is not a competitor of Gaussian, Inc. and that
 it will not use this program in any manner prohibited above.
 ---------------------------------------------------------------
  

 Cite this work as:
 Gaussian 16, Revision A.03,
 M. J. Frisch, G. W. Trucks, H. B. Schlegel, G. E. Scuseria, 
 M. A. Robb, J. R. Cheeseman, G. Scalmani, V. Barone, 
 G. A. Petersson, H. Nakatsuji, X. Li, M. Caricato, A. V. Marenich, 
 J. Bloino, B. G. Janesko, R. Gomperts, B. Mennucci, H. P. Hratchian, 
 J. V. Ortiz, A. F. Izmaylov, J. L. Sonnenberg, D. Williams-Young, 
 F. Ding, F. Lipparini, F. Egidi, J. Goings, B. Peng, A. Petrone, 
 T. Henderson, D. Ranasinghe, V. G. Zakrzewski, J. Gao, N. Rega, 
 G. Zheng, W. Liang, M. Hada, M. Ehara, K. Toyota, R. Fukuda, 
 J. Hasegawa, M. Ishida, T. Nakajima, Y. Honda, O. Kitao, H. Nakai, 
 T. Vreven, K. Throssell, J. A. Montgomery, Jr., J. E. Peralta, 
 F. Ogliaro, M. J. Bearpark, J. J. Heyd, E. N. Brothers, K. N. Kudin, 
 V. N. Staroverov, T. A. Keith, R. Kobayashi, J. Normand, 
 K. Raghavachari, A. P. Rendell, J. C. Burant, S. S. Iyengar, 
 J. Tomasi, M. Cossi, J. M. Millam, M. Klene, C. Adamo, R. Cammi, 
 J. W. Ochterski, R. L. Martin, K. Morokuma, O. Farkas, 
 J. B. Foresman, and D. J. Fox, Gaussian, Inc., Wallingford CT, 2016.
 
 ******************************************
 Gaussian 16:  ES64L-G16RevA.03 25-Dec-2016
                13-Feb-2020 
 ******************************************
 %chk=checkpoint.chk
 %mem=3GB
 %nprocshared=4
 Will use up to    4 processors via shared memory.
 -------------------------------------------------------------------
 #t pop=none jul-cc-pvdz guess=read ub97d3 empiricaldispersion=gd3bj
 -------------------------------------------------------------------
 ------------------------------
 theory_abbreviation b97d3_d3bj
 ------------------------------
 Symbolic Z-matrix:
 Charge =  0 Multiplicity = 6
 O                     0.1397    0.48623  -0.89243 
 C                     0.86854   1.47167  -0.65776 
 C                     3.19682   0.03602   0.5743 
 C                     2.71315  -0.91409  -0.24707 
 C                     3.16013  -1.00535  -1.68331 
 Fe                   -1.49531  -0.18855   0.02014 
 Cl                   -2.05485  -1.96025  -1.10221 
 C                     1.76282  -2.00119   0.17002 
 Cl                   -2.80073   1.54942  -0.22512 
 Cl                   -1.00632  -0.55585   2.12373 
 H                     3.9281    0.73026   0.15638 
 H                     2.25919  -2.97818   0.09398 
 H                     1.3889   -1.89189   1.18784 
 H                     0.90213  -2.04591  -0.5091 
 H                     3.66637  -1.96277  -1.86452 
 H                     2.29874  -0.98074  -2.36392 
 H                     3.85186  -0.20286  -1.95733 
 C                     2.94955   0.18221   2.05022 
 H                     3.78951  -0.23301   2.62421 
 H                     2.87113   1.23716   2.33781 
 H                     2.03991  -0.32384   2.38237 
 C                     0.73519   2.25365   0.60913 
 H                     1.60007   2.89443   0.78622 
 H                    -0.15819   2.88618   0.49991 
 H                     0.5615    1.59545   1.46213 
 C                     1.72411   2.01091  -1.75932 
 H                     1.23698   2.92666  -2.12486 
 H                     2.71276   2.29168  -1.39053 
 H                     1.802     1.30031  -2.58075 
 
                    Distance matrix (angstroms):
                    1          2          3          4          5
     1  O    0.000000
     2  C    1.247947   0.000000
     3  C    3.420525   3.000000   0.000000
     4  C    3.000001   3.043536   1.345846   0.000000
     5  C    3.460246   3.526868   2.486486   1.506957   0.000000
     6  Fe   1.990316   2.967091   4.730074   4.278890   5.024147
     7  Cl   3.293216   4.530095   5.863085   4.955749   5.333435
     8  C    3.154452   3.680452   2.523888   1.502951   2.525671
     9  Cl   3.197162   3.695506   6.236997   6.039226   6.647189
    10  Cl   3.390651   3.919517   4.518567   4.425322   5.661711
    11  H    3.938466   3.251682   1.091509   2.083928   2.643209
    12  H    4.179395   4.722307   3.192997   2.140757   2.804020
    13  H    3.397564   3.871759   2.713264   2.183727   3.488082
    14  H    2.672071   3.520882   3.282348   2.151620   2.749573
    15  H    4.402265   4.591243   3.188020   2.150466   1.098074
    16  H    2.996450   3.312217   3.236282   2.158064   1.098108
    17  H    3.922882   3.659668   2.625893   2.174286   1.094332
    18  C    4.080058   3.650546   1.503611   2.556422   3.923506
    19  H    5.119100   4.712681   2.150763   3.141129   4.421244
    20  H    4.296402   3.610931   2.158415   3.366663   4.613215
    21  H    3.871859   3.719990   2.176473   2.777695   4.271898
    22  C    2.394384   1.494749   3.313415   3.831442   4.664405
    23  H    3.278717   2.155102   3.281014   4.100178   4.872439
    24  H    2.790548   2.096477   4.402846   4.821268   5.560731
    25  H    2.636710   2.145581   3.188261   3.721392   4.838478
    26  C    2.363578   1.495397   3.393362   3.438132   3.341523
    27  H    2.945949   2.098838   4.413871   4.522888   4.399335
    28  H    3.182515   2.147212   3.030331   3.403599   3.340103
    29  H    2.505269   2.144434   3.674006   3.343623   2.822405
                    6          7          8          9         10
     6  Fe   0.000000
     7  Cl   2.170639   0.000000
     8  C    3.731428   4.024279   0.000000
     9  Cl   2.187425   3.693702   5.795605   0.000000
    10  Cl   2.190684   3.671294   3.684313   3.628932   0.000000
    11  H    5.502370   6.679705   3.485599   6.789236   5.465622
    12  H    4.678007   4.591074   1.098484   6.797339   4.544352
    13  H    3.547328   4.136227   1.089827   5.602864   2.897928
    14  H    3.078569   3.017085   1.097268   5.168970   3.576904
    15  H    5.774316   5.771779   2.786451   7.539666   6.302349
    16  H    4.550394   4.637350   2.783768   6.081184   5.589539
    17  H    5.701126   6.221644   3.481910   7.094230   6.354653
    18  C    4.900552   6.290616   3.116199   6.333416   4.024802
    19  H    5.891727   7.143251   3.641016   7.397771   4.832671
    20  H    5.144902   6.806054   4.051488   6.231866   4.277309
    21  H    4.253957   5.620241   2.790123   5.808602   3.065981
    22  C    3.359518   5.335720   4.399148   3.700631   3.635957
    23  H    4.435421   6.363367   4.936930   4.711569   4.526213
    24  H    3.387041   5.445367   5.261704   3.048878   3.899193
    25  H    3.080977   5.105298   4.006067   3.762113   2.742969
    26  C    4.285875   5.521084   4.452057   4.800095   5.396440
    27  H    4.665934   5.980285   5.461380   4.670005   5.933866
    28  H    5.084225   6.394693   4.665452   5.683987   5.855765
    29  H    4.455730   5.262370   4.297457   5.176503   5.784815
                   11         12         13         14         15
    11  H    0.000000
    12  H    4.067139   0.000000
    13  H    3.793025   1.770299   0.000000
    14  H    4.160104   1.753410   1.772080   0.000000
    15  H    3.377117   2.616663   3.809038   3.079792   0.000000
    16  H    3.454599   3.167427   3.777958   2.554500   1.756191
    17  H    2.311772   3.800904   4.337173   3.767647   1.772091
    18  C    2.201034   3.780408   2.735172   3.963149   4.521055
    19  H    2.652788   4.034836   3.252377   4.630468   4.812063
    20  H    2.476438   4.814382   3.648334   4.770786   5.341486
    21  H    3.103447   3.511457   2.075931   3.552557   4.833997
    22  C    3.566559   5.473569   4.236472   4.445730   5.699904
    23  H    3.240381   5.949886   4.807773   5.154797   5.906641
    24  H    4.632898   6.356038   5.069187   5.144700   6.612875
    25  H    3.713158   5.066763   3.594629   4.154671   5.776483
    26  C    3.188663   5.349024   4.902033   4.323947   4.424206
    27  H    4.155759   6.390247   5.849393   5.239205   5.465914
    28  H    2.511578   5.493717   5.089479   4.782263   4.385707
    29  H    3.512427   5.066422   4.956105   4.037162   3.825773
                   16         17         18         19         20
    16  H    0.000000
    17  H    1.783991   0.000000
    18  C    4.610928   4.125884   0.000000
    19  H    5.259563   4.582068   1.098820   0.000000
    20  H    5.230007   4.635050   1.096256   1.756936   0.000000
    21  H    4.798518   4.704338   1.092631   1.768571   1.769072
    22  C    4.663150   4.725967   3.357230   4.424125   2.929819
    23  H    5.042667   4.710717   3.282520   4.237066   2.601841
    24  H    5.402881   5.626786   4.401471   5.461345   3.908186
    25  H    4.928836   5.074754   2.836531   3.887644   2.495920
    26  C    3.105758   3.076905   4.399827   5.340079   4.324446
    27  H    4.056138   4.081611   5.281684   6.249205   5.043833
    28  H    3.439142   2.800282   4.042857   4.863289   3.877831
    29  H    2.344557   2.617271   4.900296   5.778658   5.033810
                   21         22         23         24         25
    21  H    0.000000
    22  C    3.389703   0.000000
    23  H    3.619165   1.090856   0.000000
    24  H    4.321974   1.100069   1.781429   0.000000
    25  H    2.591564   1.091330   1.795219   1.763457   0.000000
    26  C    4.764908   2.578063   2.697365   3.068103   3.449925
    27  H    5.614755   2.859966   2.933812   2.972803   3.885209
    28  H    4.639868   2.812616   2.517857   3.488480   3.640093
    29  H    5.227519   3.496031   3.730750   3.980930   4.239197
                   26         27         28         29
    26  C    0.000000
    27  H    1.099772   0.000000
    28  H    1.091916   1.766452   0.000000
    29  H    1.088931   1.781039   1.796928   0.000000
 Framework group  C1[X(C8H16Cl3FeO)]
 Deg. of freedom    81
                         Standard orientation:                         
 ---------------------------------------------------------------------
 Center     Atomic      Atomic             Coordinates (Angstroms)
 Number     Number       Type             X           Y           Z
 ---------------------------------------------------------------------
      1          8           0        0.139700    0.486226   -0.892433
      2          6           0        0.868536    1.471670   -0.657762
      3          6           0        3.196821    0.036016    0.574303
      4          6           0        2.713146   -0.914092   -0.247070
      5          6           0        3.160134   -1.005348   -1.683313
      6         26           0       -1.495308   -0.188547    0.020140
      7         17           0       -2.054846   -1.960248   -1.102209
      8          6           0        1.762822   -2.001191    0.170017
      9         17           0       -2.800733    1.549424   -0.225118
     10         17           0       -1.006324   -0.555849    2.123727
     11          1           0        3.928097    0.730255    0.156380
     12          1           0        2.259190   -2.978178    0.093980
     13          1           0        1.388901   -1.891885    1.187837
     14          1           0        0.902126   -2.045912   -0.509099
     15          1           0        3.666370   -1.962770   -1.864519
     16          1           0        2.298735   -0.980743   -2.363922
     17          1           0        3.851863   -0.202860   -1.957331
     18          6           0        2.949546    0.182205    2.050220
     19          1           0        3.789507   -0.233009    2.624213
     20          1           0        2.871133    1.237156    2.337807
     21          1           0        2.039906   -0.323835    2.382366
     22          6           0        0.735193    2.253649    0.609125
     23          1           0        1.600067    2.894428    0.786221
     24          1           0       -0.158185    2.886184    0.499912
     25          1           0        0.561496    1.595453    1.462125
     26          6           0        1.724105    2.010911   -1.759322
     27          1           0        1.236983    2.926659   -2.124859
     28          1           0        2.712758    2.291684   -1.390525
     29          1           0        1.801997    1.300306   -2.580750
 ---------------------------------------------------------------------
 Rotational constants (GHZ):           0.5616506           0.3161332           0.2975736
   427 basis functions,  1056 primitive gaussians,   461 cartesian basis functions
    77 alpha electrons       72 beta electrons
       nuclear repulsion energy      1612.1442920647 Hartrees.
 NAtoms=   29 NActive=   29 NUniq=   29 SFac= 1.00D+00 NAtFMM=   60 NAOKFM=F Big=F
 Nuclear repulsion after empirical dispersion term =     1612.0484437959 Hartrees.
 Initial guess from the checkpoint file:  "checkpoint.chk"
 B after Tr=     0.000000    0.000000    0.000000
         Rot=    1.000000    0.000000    0.000000    0.000000 Ang=   0.00 deg.
 Initial guess <Sx>= 0.0000 <Sy>= 0.0000 <Sz>= 2.5000 <S**2>= 8.7618 S= 2.5020
 SCF Done:  E(UB97D3) =  -3034.64479989     A.U. after   16 cycles
            NFock= 16  Conv=0.63D-08     -V/T= 2.0020
 <Sx>= 0.0000 <Sy>= 0.0000 <Sz>= 2.5000 <S**2>= 8.7600 S= 2.5017
 <L.S>= 0.000000000000E+00
 Annihilation of the first spin contaminant:
 S**2 before annihilation     8.7600,   after     8.7500
 1\1\GINC-HOLY7C16606\SP\UB97D3\Jul-CC-pVDZ\C8H16Cl3Fe1O1(6)\EKWAN\13-F
 eb-2020\0\\#t pop=none jul-cc-pvdz guess=read ub97d3 empiricaldispersi
 on=gd3bj\\theory_abbreviation b97d3_d3bj\\0,6\O,0,0.1397,0.486226,-0.8
 92433\C,0,0.868536,1.47167,-0.657762\C,0,3.196821,0.036016,0.574303\C,
 0,2.713146,-0.914092,-0.24707\C,0,3.160134,-1.005348,-1.683313\Fe,0,-1
 .495308,-0.188547,0.02014\Cl,0,-2.054846,-1.960248,-1.102209\C,0,1.762
 822,-2.001191,0.170017\Cl,0,-2.800733,1.549424,-0.225118\Cl,0,-1.00632
 4,-0.555849,2.123727\H,0,3.928097,0.730255,0.15638\H,0,2.25919,-2.9781
 78,0.09398\H,0,1.388901,-1.891885,1.187837\H,0,0.902126,-2.045912,-0.5
 09099\H,0,3.66637,-1.96277,-1.864519\H,0,2.298735,-0.980743,-2.363922\
 H,0,3.851863,-0.20286,-1.957331\C,0,2.949546,0.182205,2.05022\H,0,3.78
 9507,-0.233009,2.624213\H,0,2.871133,1.237156,2.337807\H,0,2.039906,-0
 .323835,2.382366\C,0,0.735193,2.253649,0.609125\H,0,1.600067,2.894428,
 0.786221\H,0,-0.158185,2.886184,0.499912\H,0,0.561496,1.595453,1.46212
 5\C,0,1.724105,2.010911,-1.759322\H,0,1.236983,2.926659,-2.124859\H,0,
 2.712758,2.291684,-1.390525\H,0,1.801997,1.300306,-2.58075\\Version=ES
 64L-G16RevA.03\HF=-3034.6447999\S2=8.760017\S2-1=0.\S2A=8.750032\RMSD=
 6.342e-09\PG=C01 [X(C8H16Cl3Fe1O1)]\\@


 GOD DOES NOT PLAY WITH DICE.
               -- A. EINSTEIN
 Job cpu time:       0 days  0 hours 49 minutes  7.7 seconds.
 Elapsed time:       0 days  0 hours 12 minutes 19.1 seconds.
 File lengths (MBytes):  RWF=    174 Int=      0 D2E=      0 Chk=     13 Scr=      1
 Normal termination of Gaussian 16 at Thu Feb 13 00:24:31 2020.
