 Entering Gaussian System, Link 0=g16
 Input=simple-grid-255-255-b3lyp_d3bj-631gd-gas-singlepoint-DFT-juldz2-gas.gjf
 Output=simple-grid-255-255-b3lyp_d3bj-631gd-gas-singlepoint-DFT-juldz2-gas.out
 Initial command:
 /n/sw/g16_nehalem/g16/l1.exe "/scratch/Gau-440797.inp" -scrdir="/scratch/"
 Entering Link 1 = /n/sw/g16_nehalem/g16/l1.exe PID=    440801.
  
 Copyright (c) 1988,1990,1992,1993,1995,1998,2003,2009,2016,
            Gaussian, Inc.  All Rights Reserved.
  
 This is part of the Gaussian(R) 16 program.  It is based on
 the Gaussian(R) 09 system (copyright 2009, Gaussian, Inc.),
 the Gaussian(R) 03 system (copyright 2003, Gaussian, Inc.),
 the Gaussian(R) 98 system (copyright 1998, Gaussian, Inc.),
 the Gaussian(R) 94 system (copyright 1995, Gaussian, Inc.),
 the Gaussian 92(TM) system (copyright 1992, Gaussian, Inc.),
 the Gaussian 90(TM) system (copyright 1990, Gaussian, Inc.),
 the Gaussian 88(TM) system (copyright 1988, Gaussian, Inc.),
 the Gaussian 86(TM) system (copyright 1986, Carnegie Mellon
 University), and the Gaussian 82(TM) system (copyright 1983,
 Carnegie Mellon University). Gaussian is a federally registered
 trademark of Gaussian, Inc.
  
 This software contains proprietary and confidential information,
 including trade secrets, belonging to Gaussian, Inc.
  
 This software is provided under written license and may be
 used, copied, transmitted, or stored only in accord with that
 written license.
  
 The following legend is applicable only to US Government
 contracts under FAR:
  
                    RESTRICTED RIGHTS LEGEND
  
 Use, reproduction and disclosure by the US Government is
 subject to restrictions as set forth in subparagraphs (a)
 and (c) of the Commercial Computer Software - Restricted
 Rights clause in FAR 52.227-19.
  
 Gaussian, Inc.
 340 Quinnipiac St., Bldg. 40, Wallingford CT 06492
  
  
 ---------------------------------------------------------------
 Warning -- This program may not be used in any manner that
 competes with the business of Gaussian, Inc. or will provide
 assistance to any competitor of Gaussian, Inc.  The licensee
 of this program is prohibited from giving any competitor of
 Gaussian, Inc. access to this program.  By using this program,
 the user acknowledges that Gaussian, Inc. is engaged in the
 business of creating and licensing software in the field of
 computational chemistry and represents and warrants to the
 licensee that it is not a competitor of Gaussian, Inc. and that
 it will not use this program in any manner prohibited above.
 ---------------------------------------------------------------
  

 Cite this work as:
 Gaussian 16, Revision A.03,
 M. J. Frisch, G. W. Trucks, H. B. Schlegel, G. E. Scuseria, 
 M. A. Robb, J. R. Cheeseman, G. Scalmani, V. Barone, 
 G. A. Petersson, H. Nakatsuji, X. Li, M. Caricato, A. V. Marenich, 
 J. Bloino, B. G. Janesko, R. Gomperts, B. Mennucci, H. P. Hratchian, 
 J. V. Ortiz, A. F. Izmaylov, J. L. Sonnenberg, D. Williams-Young, 
 F. Ding, F. Lipparini, F. Egidi, J. Goings, B. Peng, A. Petrone, 
 T. Henderson, D. Ranasinghe, V. G. Zakrzewski, J. Gao, N. Rega, 
 G. Zheng, W. Liang, M. Hada, M. Ehara, K. Toyota, R. Fukuda, 
 J. Hasegawa, M. Ishida, T. Nakajima, Y. Honda, O. Kitao, H. Nakai, 
 T. Vreven, K. Throssell, J. A. Montgomery, Jr., J. E. Peralta, 
 F. Ogliaro, M. J. Bearpark, J. J. Heyd, E. N. Brothers, K. N. Kudin, 
 V. N. Staroverov, T. A. Keith, R. Kobayashi, J. Normand, 
 K. Raghavachari, A. P. Rendell, J. C. Burant, S. S. Iyengar, 
 J. Tomasi, M. Cossi, J. M. Millam, M. Klene, C. Adamo, R. Cammi, 
 J. W. Ochterski, R. L. Martin, K. Morokuma, O. Farkas, 
 J. B. Foresman, and D. J. Fox, Gaussian, Inc., Wallingford CT, 2016.
 
 ******************************************
 Gaussian 16:  ES64L-G16RevA.03 25-Dec-2016
                11-Feb-2020 
 ******************************************
 %chk=checkpoint.chk
 %mem=3GB
 %nprocshared=4
 Will use up to    4 processors via shared memory.
 --------------------------------
 #t pop=none jul-cc-pvdz upbe1pbe
 --------------------------------
 ------------------------
 theory_abbreviation pbe0
 ------------------------
 Symbolic Z-matrix:
 Charge =  0 Multiplicity = 6
 O                    -0.28401  -0.22623  -0.74213 
 C                    -1.09704  -1.18188  -0.6194 
 C                    -3.19426   0.00102   0.22017 
 C                    -2.43674   1.03356  -0.2119 
 C                    -2.50697   1.52148  -1.63038 
 Fe                    1.47113   0.10468   0.05126 
 Cl                    2.10569   1.98483  -0.84877 
 C                    -1.57251   1.86564   0.6892 
 Cl                    2.54438  -1.69309  -0.60026 
 Cl                    1.26974   0.17628   2.2369 
 H                    -3.86022  -0.46622  -0.50433 
 H                    -2.12674   2.7703    0.97597 
 H                    -1.27176   1.35688   1.60535 
 H                    -0.67215   2.20511   0.16777 
 H                    -2.80223   2.57866  -1.63741 
 H                    -1.51954   1.47066  -2.10477 
 H                    -3.2322    0.96678  -2.23225 
 C                    -3.41401  -0.40948   1.65069 
 H                    -4.31898   0.07518   2.04192 
 H                    -3.57276  -1.48883   1.74446 
 H                    -2.58741  -0.12882   2.30818 
 C                    -1.0202   -2.09027   0.56797 
 H                    -1.91335  -2.70506   0.67943 
 H                    -0.16316  -2.75475   0.3792 
 H                    -0.80615  -1.54134   1.48536 
 C                    -1.77059  -1.68887  -1.8602 
 H                    -1.05883  -2.39667  -2.31102 
 H                    -2.69402  -2.22788  -1.64486 
 H                    -1.94056  -0.88914  -2.57959 
 
                    Distance matrix (angstroms):
                    1          2          3          4          5
     1  O    0.000000
     2  C    1.260690   0.000000
     3  C    3.073636   2.550000   0.000000
     4  C    2.549998   2.620887   1.351533   0.000000
     5  C    2.963960   3.212187   2.491723   1.501694   0.000000
     6  Fe   1.954344   2.949657   4.669592   4.025359   4.545382
     7  Cl   3.257430   4.509784   5.759135   4.684471   4.701306
     8  C    2.843392   3.350507   2.515319   1.500409   2.524302
     9  Cl   3.189293   3.677177   6.039465   5.691841   6.075426
    10  Cl   3.383896   3.950279   4.901546   4.524325   5.570359
    11  H    3.592139   2.856678   1.089372   2.088338   2.655228
    12  H    3.914940   4.384661   3.062631   2.126829   2.914989
    13  H    2.998756   3.380140   2.730029   2.182684   3.467385
    14  H    2.624883   3.503125   3.349889   2.151850   2.658429
    15  H    3.874330   4.252730   3.201331   2.133781   1.097661
    16  H    2.502557   3.069335   3.220235   2.148328   1.096660
    17  H    3.512207   3.431757   2.635998   2.172331   1.093572
    18  C    3.944119   3.334410   1.504387   2.550812   3.913659
    19  H    4.911496   4.363919   2.142257   3.088851   4.342916
    20  H    4.311981   3.436756   2.164806   3.388262   4.646226
    21  H    3.823556   3.449774   2.178282   2.779323   4.271092
    22  C    2.394363   1.496973   3.036611   3.517541   4.481959
    23  H    3.289397   2.161802   3.028948   3.878871   4.852958
    24  H    2.768641   2.084046   4.099649   4.457559   5.274276
    25  H    2.638909   2.154960   3.111693   3.488495   4.688439
    26  C    2.366288   1.500097   3.034886   3.251504   3.301731
    27  H    2.787932   2.082962   4.088510   4.251048   4.232291
    28  H    3.260311   2.167025   2.948993   3.571624   3.754046
    29  H    2.561223   2.153963   3.194188   3.090135   2.651964
                    6          7          8          9         10
     6  Fe   0.000000
     7  Cl   2.178926   0.000000
     8  C    3.573751   3.988582   0.000000
     9  Cl   2.192789   3.712321   5.592503   0.000000
    10  Cl   2.196067   3.673017   3.650707   3.628877   0.000000
    11  H    5.390537   6.458984   3.477888   6.521762   5.851806
    12  H    4.572232   4.675487   1.099010   6.650246   4.455889
    13  H    3.392139   4.221874   1.090236   5.360030   2.872603
    14  H    3.003173   2.966198   1.094431   5.111942   3.488317
    15  H    5.218604   5.006231   2.726491   6.921696   6.112500
    16  H    3.931726   3.870943   2.822254   5.365478   5.320301
    17  H    5.298957   5.607457   3.478127   6.565613   6.392622
    18  C    5.165955   6.515150   3.080866   6.497449   4.756495
    19  H    6.122821   7.299269   3.546641   7.563970   5.593031
    20  H    5.554006   7.143951   4.045616   6.554301   5.144402
    21  H    4.649728   6.038142   2.762061   6.102565   3.869854
    22  C    3.360281   5.327742   3.996119   3.772101   3.628557
    23  H    4.443403   6.362634   4.583393   4.746893   4.567257
    24  H    3.309794   5.396223   4.840488   3.068751   3.754354
    25  H    3.154679   5.134287   3.581712   3.949545   2.797205
    26  C    4.168838   5.435497   4.378723   4.495160   5.432184
    27  H    4.270572   5.599102   5.237600   4.050294   5.720655
    28  H    5.066164   6.435671   4.843803   5.368240   6.046432
    29  H    4.421382   5.256192   4.290600   4.967774   5.885549
                   11         12         13         14         15
    11  H    0.000000
    12  H    3.958702   0.000000
    13  H    3.804549   1.767735   0.000000
    14  H    4.213256   1.757399   1.773597   0.000000
    15  H    3.416802   2.706062   3.788220   2.816998   0.000000
    16  H    3.433914   3.398343   3.720128   2.534155   1.758238
    17  H    2.331009   3.842832   4.326968   3.721210   1.771116
    18  C    2.201460   3.496188   2.776928   4.068527   4.484961
    19  H    2.643287   3.633982   3.334503   4.620430   4.701640
    20  H    2.487051   4.563085   3.662242   4.954257   5.345584
    21  H    3.105499   3.223649   2.105284   3.700919   4.790024
    22  C    3.442830   5.001607   3.608639   4.328002   5.462442
    23  H    3.194369   5.487532   4.215242   5.090391   5.837426
    24  H    4.436919   5.893891   4.431464   4.990387   6.283048
    25  H    3.800274   4.538026   2.937829   3.973647   5.541700
    26  C    2.774855   5.296689   4.640630   4.525740   4.396105
    27  H    3.852082   6.216294   5.428847   5.241213   5.314801
    28  H    2.400885   5.672061   5.043519   5.198548   4.807759
    29  H    2.858442   5.105699   4.796414   4.327958   3.695378
                   16         17         18         19         20
    16  H    0.000000
    17  H    1.789798   0.000000
    18  C    4.607329   4.123631   0.000000
    19  H    5.194164   4.499392   1.098606   0.000000
    20  H    5.271712   4.686173   1.094982   1.758255   0.000000
    21  H    4.813825   4.715040   1.092857   1.763758   1.771531
    22  C    4.480306   4.698907   3.118920   4.212325   2.874271
    23  H    5.034233   4.868227   2.909467   3.920867   2.316714
    24  H    5.085665   5.485296   4.205350   5.295657   3.884824
    25  H    4.740267   5.098724   2.847693   3.906772   2.779210
    26  C    3.178913   3.054050   4.082158   4.983246   4.035027
    27  H    3.900135   4.005317   5.019053   5.973835   4.857050
    28  H    3.907698   3.292492   3.832172   4.640785   3.578526
    29  H    2.443637   2.287672   4.505153   5.286321   4.660597
                   21         22         23         24         25
    21  H    0.000000
    22  C    3.054802   0.000000
    23  H    3.121572   1.089995   0.000000
    24  H    4.061216   1.100763   1.776444   0.000000
    25  H    2.417673   1.090300   1.797119   1.763344   0.000000
    26  C    4.525087   2.572977   2.739113   2.955479   3.484923
    27  H    5.368123   2.895501   3.125391   2.857925   3.899734
    28  H    4.477044   2.777980   2.497889   3.283237   3.719356
    29  H    4.988674   3.492406   3.730886   3.923531   4.270370
                   26         27         28         29
    26  C    0.000000
    27  H    1.100371   0.000000
    28  H    1.090697   1.773724   0.000000
    29  H    1.089027   1.766981   1.798236   0.000000
 Framework group  C1[X(C8H16Cl3FeO)]
 Deg. of freedom    81
                         Standard orientation:                         
 ---------------------------------------------------------------------
 Center     Atomic      Atomic             Coordinates (Angstroms)
 Number     Number       Type             X           Y           Z
 ---------------------------------------------------------------------
      1          8           0       -0.284007   -0.226234   -0.742128
      2          6           0       -1.097036   -1.181882   -0.619404
      3          6           0       -3.194259    0.001022    0.220173
      4          6           0       -2.436743    1.033557   -0.211897
      5          6           0       -2.506971    1.521480   -1.630376
      6         26           0        1.471126    0.104675    0.051262
      7         17           0        2.105694    1.984830   -0.848772
      8          6           0       -1.572514    1.865636    0.689203
      9         17           0        2.544382   -1.693093   -0.600255
     10         17           0        1.269735    0.176283    2.236902
     11          1           0       -3.860223   -0.466225   -0.504330
     12          1           0       -2.126744    2.770300    0.975969
     13          1           0       -1.271758    1.356876    1.605349
     14          1           0       -0.672154    2.205109    0.167774
     15          1           0       -2.802234    2.578660   -1.637412
     16          1           0       -1.519536    1.470662   -2.104774
     17          1           0       -3.232204    0.966781   -2.232245
     18          6           0       -3.414011   -0.409485    1.650688
     19          1           0       -4.318982    0.075180    2.041920
     20          1           0       -3.572761   -1.488832    1.744462
     21          1           0       -2.587414   -0.128820    2.308185
     22          6           0       -1.020201   -2.090273    0.567967
     23          1           0       -1.913345   -2.705057    0.679429
     24          1           0       -0.163160   -2.754748    0.379203
     25          1           0       -0.806153   -1.541340    1.485360
     26          6           0       -1.770589   -1.688870   -1.860202
     27          1           0       -1.058832   -2.396671   -2.311018
     28          1           0       -2.694017   -2.227875   -1.644855
     29          1           0       -1.940555   -0.889138   -2.579591
 ---------------------------------------------------------------------
 Rotational constants (GHZ):           0.5785835           0.3275309           0.3086070
   427 basis functions,  1056 primitive gaussians,   461 cartesian basis functions
    77 alpha electrons       72 beta electrons
       nuclear repulsion energy      1634.6667643363 Hartrees.
 NAtoms=   29 NActive=   29 NUniq=   29 SFac= 1.00D+00 NAtFMM=   60 NAOKFM=F Big=F
 ExpMin= 1.40D-02 ExpMax= 4.32D+06 ExpMxC= 4.91D+03 IAcc=3 IRadAn=         5 AccDes= 0.00D+00
 Harris functional with IExCor= 1009 and IRadAn=       5 diagonalized for initial guess.
 HarFok:  IExCor= 1009 AccDes= 0.00D+00 IRadAn=         5 IDoV= 1 UseB2=F ITyADJ=14
 ICtDFT=  3500011 ScaDFX=  1.000000  1.000000  1.000000  1.000000
 FoFCou: FMM=F IPFlag=           0 FMFlag=      100000 FMFlg1=           0
         NFxFlg=           0 DoJE=T BraDBF=F KetDBF=T FulRan=T
         wScrn=  0.000000 ICntrl=       500 IOpCl=  0 I1Cent=   200000004 NGrid=           0
         NMat0=    1 NMatS0=      1 NMatT0=    0 NMatD0=    1 NMtDS0=    0 NMtDT0=    0
 Petite list used in FoFCou.
 Initial guess <Sx>= 0.0000 <Sy>= 0.0000 <Sz>= 2.5000 <S**2>= 8.7500 S= 2.5000
 EnCoef did   100 forward-backward iterations
 SCF Done:  E(UPBE1PBE) =  -3033.12613443     A.U. after   19 cycles
            NFock= 19  Conv=0.70D-08     -V/T= 2.0021
 <Sx>= 0.0000 <Sy>= 0.0000 <Sz>= 2.5000 <S**2>= 8.7628 S= 2.5021
 <L.S>= 0.000000000000E+00
 Annihilation of the first spin contaminant:
 S**2 before annihilation     8.7628,   after     8.7501
 1\1\GINC-HOLY7C04408\SP\UPBE1PBE\Jul-CC-pVDZ\C8H16Cl3Fe1O1(6)\EKWAN\11
 -Feb-2020\0\\#t pop=none jul-cc-pvdz upbe1pbe\\theory_abbreviation pbe
 0\\0,6\O,0,-0.284007,-0.226234,-0.742128\C,0,-1.097036,-1.181882,-0.61
 9404\C,0,-3.194259,0.001023,0.220173\C,0,-2.436743,1.033557,-0.211897\
 C,0,-2.506971,1.52148,-1.630376\Fe,0,1.471126,0.104675,0.051262\Cl,0,2
 .105694,1.98483,-0.848772\C,0,-1.572514,1.865636,0.689203\Cl,0,2.54438
 2,-1.693093,-0.600255\Cl,0,1.269735,0.176283,2.236902\H,0,-3.860223,-0
 .466224,-0.50433\H,0,-2.126744,2.7703,0.975969\H,0,-1.271758,1.356876,
 1.605349\H,0,-0.672154,2.205109,0.167774\H,0,-2.802234,2.57866,-1.6374
 12\H,0,-1.519536,1.470662,-2.104774\H,0,-3.232204,0.966782,-2.232245\C
 ,0,-3.414011,-0.409484,1.650688\H,0,-4.318982,0.075181,2.04192\H,0,-3.
 572761,-1.488831,1.744462\H,0,-2.587414,-0.12882,2.308185\C,0,-1.02020
 1,-2.090273,0.567967\H,0,-1.913345,-2.705057,0.679429\H,0,-0.16316,-2.
 754748,0.379203\H,0,-0.806153,-1.54134,1.48536\C,0,-1.770589,-1.68887,
 -1.860202\H,0,-1.058832,-2.396671,-2.311018\H,0,-2.694017,-2.227875,-1
 .644855\H,0,-1.940555,-0.889138,-2.579591\\Version=ES64L-G16RevA.03\HF
 =-3033.1261344\S2=8.762823\S2-1=0.\S2A=8.750051\RMSD=6.994e-09\PG=C01 
 [X(C8H16Cl3Fe1O1)]\\@


 MATERIAL COPIED FROM ONE SCHOLARLY BOOK WITHOUT CREDIT COMPRISES PLAGIARISM.
 MATERIAL COPIED FROM TWO SCHOLARLY BOOKS COMPRISES AN ESSAY.
 MATERIAL COPIED FROM THREE SCHOLARLY BOOKS COMPRISES A DISSERTATION.
 MATERIAL COPIED FROM FOUR SCHOLARLY BOOKS COMPRISES A FIFTH SCHOLARLY BOOK.

                               -- C&EN, 25 FEB 1980
 Job cpu time:       0 days  1 hours 25 minutes 46.5 seconds.
 Elapsed time:       0 days  0 hours 21 minutes 38.6 seconds.
 File lengths (MBytes):  RWF=    173 Int=      0 D2E=      0 Chk=     13 Scr=      1
 Normal termination of Gaussian 16 at Tue Feb 11 14:47:05 2020.
 Initial command:
 /n/sw/g16_nehalem/g16/l1.exe "/scratch/Gau-440797.inp" -scrdir="/scratch/"
 Entering Link 1 = /n/sw/g16_nehalem/g16/l1.exe PID=    443532.
  
 Copyright (c) 1988,1990,1992,1993,1995,1998,2003,2009,2016,
            Gaussian, Inc.  All Rights Reserved.
  
 This is part of the Gaussian(R) 16 program.  It is based on
 the Gaussian(R) 09 system (copyright 2009, Gaussian, Inc.),
 the Gaussian(R) 03 system (copyright 2003, Gaussian, Inc.),
 the Gaussian(R) 98 system (copyright 1998, Gaussian, Inc.),
 the Gaussian(R) 94 system (copyright 1995, Gaussian, Inc.),
 the Gaussian 92(TM) system (copyright 1992, Gaussian, Inc.),
 the Gaussian 90(TM) system (copyright 1990, Gaussian, Inc.),
 the Gaussian 88(TM) system (copyright 1988, Gaussian, Inc.),
 the Gaussian 86(TM) system (copyright 1986, Carnegie Mellon
 University), and the Gaussian 82(TM) system (copyright 1983,
 Carnegie Mellon University). Gaussian is a federally registered
 trademark of Gaussian, Inc.
  
 This software contains proprietary and confidential information,
 including trade secrets, belonging to Gaussian, Inc.
  
 This software is provided under written license and may be
 used, copied, transmitted, or stored only in accord with that
 written license.
  
 The following legend is applicable only to US Government
 contracts under FAR:
  
                    RESTRICTED RIGHTS LEGEND
  
 Use, reproduction and disclosure by the US Government is
 subject to restrictions as set forth in subparagraphs (a)
 and (c) of the Commercial Computer Software - Restricted
 Rights clause in FAR 52.227-19.
  
 Gaussian, Inc.
 340 Quinnipiac St., Bldg. 40, Wallingford CT 06492
  
  
 ---------------------------------------------------------------
 Warning -- This program may not be used in any manner that
 competes with the business of Gaussian, Inc. or will provide
 assistance to any competitor of Gaussian, Inc.  The licensee
 of this program is prohibited from giving any competitor of
 Gaussian, Inc. access to this program.  By using this program,
 the user acknowledges that Gaussian, Inc. is engaged in the
 business of creating and licensing software in the field of
 computational chemistry and represents and warrants to the
 licensee that it is not a competitor of Gaussian, Inc. and that
 it will not use this program in any manner prohibited above.
 ---------------------------------------------------------------
  

 Cite this work as:
 Gaussian 16, Revision A.03,
 M. J. Frisch, G. W. Trucks, H. B. Schlegel, G. E. Scuseria, 
 M. A. Robb, J. R. Cheeseman, G. Scalmani, V. Barone, 
 G. A. Petersson, H. Nakatsuji, X. Li, M. Caricato, A. V. Marenich, 
 J. Bloino, B. G. Janesko, R. Gomperts, B. Mennucci, H. P. Hratchian, 
 J. V. Ortiz, A. F. Izmaylov, J. L. Sonnenberg, D. Williams-Young, 
 F. Ding, F. Lipparini, F. Egidi, J. Goings, B. Peng, A. Petrone, 
 T. Henderson, D. Ranasinghe, V. G. Zakrzewski, J. Gao, N. Rega, 
 G. Zheng, W. Liang, M. Hada, M. Ehara, K. Toyota, R. Fukuda, 
 J. Hasegawa, M. Ishida, T. Nakajima, Y. Honda, O. Kitao, H. Nakai, 
 T. Vreven, K. Throssell, J. A. Montgomery, Jr., J. E. Peralta, 
 F. Ogliaro, M. J. Bearpark, J. J. Heyd, E. N. Brothers, K. N. Kudin, 
 V. N. Staroverov, T. A. Keith, R. Kobayashi, J. Normand, 
 K. Raghavachari, A. P. Rendell, J. C. Burant, S. S. Iyengar, 
 J. Tomasi, M. Cossi, J. M. Millam, M. Klene, C. Adamo, R. Cammi, 
 J. W. Ochterski, R. L. Martin, K. Morokuma, O. Farkas, 
 J. B. Foresman, and D. J. Fox, Gaussian, Inc., Wallingford CT, 2016.
 
 ******************************************
 Gaussian 16:  ES64L-G16RevA.03 25-Dec-2016
                11-Feb-2020 
 ******************************************
 %chk=checkpoint.chk
 %mem=3GB
 %nprocshared=4
 Will use up to    4 processors via shared memory.
 ---------------------------------------------------------------------
 #t pop=none jul-cc-pvdz guess=read upbe1pbe empiricaldispersion=gd3bj
 ---------------------------------------------------------------------
 -----------------------------
 theory_abbreviation pbe0_d3bj
 -----------------------------
 Symbolic Z-matrix:
 Charge =  0 Multiplicity = 6
 O                    -0.28401  -0.22623  -0.74213 
 C                    -1.09704  -1.18188  -0.6194 
 C                    -3.19426   0.00102   0.22017 
 C                    -2.43674   1.03356  -0.2119 
 C                    -2.50697   1.52148  -1.63038 
 Fe                    1.47113   0.10468   0.05126 
 Cl                    2.10569   1.98483  -0.84877 
 C                    -1.57251   1.86564   0.6892 
 Cl                    2.54438  -1.69309  -0.60026 
 Cl                    1.26974   0.17628   2.2369 
 H                    -3.86022  -0.46622  -0.50433 
 H                    -2.12674   2.7703    0.97597 
 H                    -1.27176   1.35688   1.60535 
 H                    -0.67215   2.20511   0.16777 
 H                    -2.80223   2.57866  -1.63741 
 H                    -1.51954   1.47066  -2.10477 
 H                    -3.2322    0.96678  -2.23225 
 C                    -3.41401  -0.40948   1.65069 
 H                    -4.31898   0.07518   2.04192 
 H                    -3.57276  -1.48883   1.74446 
 H                    -2.58741  -0.12882   2.30818 
 C                    -1.0202   -2.09027   0.56797 
 H                    -1.91335  -2.70506   0.67943 
 H                    -0.16316  -2.75475   0.3792 
 H                    -0.80615  -1.54134   1.48536 
 C                    -1.77059  -1.68887  -1.8602 
 H                    -1.05883  -2.39667  -2.31102 
 H                    -2.69402  -2.22788  -1.64486 
 H                    -1.94056  -0.88914  -2.57959 
 
                    Distance matrix (angstroms):
                    1          2          3          4          5
     1  O    0.000000
     2  C    1.260690   0.000000
     3  C    3.073636   2.550000   0.000000
     4  C    2.549998   2.620887   1.351533   0.000000
     5  C    2.963960   3.212187   2.491723   1.501694   0.000000
     6  Fe   1.954344   2.949657   4.669592   4.025359   4.545382
     7  Cl   3.257430   4.509784   5.759135   4.684471   4.701306
     8  C    2.843392   3.350507   2.515319   1.500409   2.524302
     9  Cl   3.189293   3.677177   6.039465   5.691841   6.075426
    10  Cl   3.383896   3.950279   4.901546   4.524325   5.570359
    11  H    3.592139   2.856678   1.089372   2.088338   2.655228
    12  H    3.914940   4.384661   3.062631   2.126829   2.914989
    13  H    2.998756   3.380140   2.730029   2.182684   3.467385
    14  H    2.624883   3.503125   3.349889   2.151850   2.658429
    15  H    3.874330   4.252730   3.201331   2.133781   1.097661
    16  H    2.502557   3.069335   3.220235   2.148328   1.096660
    17  H    3.512207   3.431757   2.635998   2.172331   1.093572
    18  C    3.944119   3.334410   1.504387   2.550812   3.913659
    19  H    4.911496   4.363919   2.142257   3.088851   4.342916
    20  H    4.311981   3.436756   2.164806   3.388262   4.646226
    21  H    3.823556   3.449774   2.178282   2.779323   4.271092
    22  C    2.394363   1.496973   3.036611   3.517541   4.481959
    23  H    3.289397   2.161802   3.028948   3.878871   4.852958
    24  H    2.768641   2.084046   4.099649   4.457559   5.274276
    25  H    2.638909   2.154960   3.111693   3.488495   4.688439
    26  C    2.366288   1.500097   3.034886   3.251504   3.301731
    27  H    2.787932   2.082962   4.088510   4.251048   4.232291
    28  H    3.260311   2.167025   2.948993   3.571624   3.754046
    29  H    2.561223   2.153963   3.194188   3.090135   2.651964
                    6          7          8          9         10
     6  Fe   0.000000
     7  Cl   2.178926   0.000000
     8  C    3.573751   3.988582   0.000000
     9  Cl   2.192789   3.712321   5.592503   0.000000
    10  Cl   2.196067   3.673017   3.650707   3.628877   0.000000
    11  H    5.390537   6.458984   3.477888   6.521762   5.851806
    12  H    4.572232   4.675487   1.099010   6.650246   4.455889
    13  H    3.392139   4.221874   1.090236   5.360030   2.872603
    14  H    3.003173   2.966198   1.094431   5.111942   3.488317
    15  H    5.218604   5.006231   2.726491   6.921696   6.112500
    16  H    3.931726   3.870943   2.822254   5.365478   5.320301
    17  H    5.298957   5.607457   3.478127   6.565613   6.392622
    18  C    5.165955   6.515150   3.080866   6.497449   4.756495
    19  H    6.122821   7.299269   3.546641   7.563970   5.593031
    20  H    5.554006   7.143951   4.045616   6.554301   5.144402
    21  H    4.649728   6.038142   2.762061   6.102565   3.869854
    22  C    3.360281   5.327742   3.996119   3.772101   3.628557
    23  H    4.443403   6.362634   4.583393   4.746893   4.567257
    24  H    3.309794   5.396223   4.840488   3.068751   3.754354
    25  H    3.154679   5.134287   3.581712   3.949545   2.797205
    26  C    4.168838   5.435497   4.378723   4.495160   5.432184
    27  H    4.270572   5.599102   5.237600   4.050294   5.720655
    28  H    5.066164   6.435671   4.843803   5.368240   6.046432
    29  H    4.421382   5.256192   4.290600   4.967774   5.885549
                   11         12         13         14         15
    11  H    0.000000
    12  H    3.958702   0.000000
    13  H    3.804549   1.767735   0.000000
    14  H    4.213256   1.757399   1.773597   0.000000
    15  H    3.416802   2.706062   3.788220   2.816998   0.000000
    16  H    3.433914   3.398343   3.720128   2.534155   1.758238
    17  H    2.331009   3.842832   4.326968   3.721210   1.771116
    18  C    2.201460   3.496188   2.776928   4.068527   4.484961
    19  H    2.643287   3.633982   3.334503   4.620430   4.701640
    20  H    2.487051   4.563085   3.662242   4.954257   5.345584
    21  H    3.105499   3.223649   2.105284   3.700919   4.790024
    22  C    3.442830   5.001607   3.608639   4.328002   5.462442
    23  H    3.194369   5.487532   4.215242   5.090391   5.837426
    24  H    4.436919   5.893891   4.431464   4.990387   6.283048
    25  H    3.800274   4.538026   2.937829   3.973647   5.541700
    26  C    2.774855   5.296689   4.640630   4.525740   4.396105
    27  H    3.852082   6.216294   5.428847   5.241213   5.314801
    28  H    2.400885   5.672061   5.043519   5.198548   4.807759
    29  H    2.858442   5.105699   4.796414   4.327958   3.695378
                   16         17         18         19         20
    16  H    0.000000
    17  H    1.789798   0.000000
    18  C    4.607329   4.123631   0.000000
    19  H    5.194164   4.499392   1.098606   0.000000
    20  H    5.271712   4.686173   1.094982   1.758255   0.000000
    21  H    4.813825   4.715040   1.092857   1.763758   1.771531
    22  C    4.480306   4.698907   3.118920   4.212325   2.874271
    23  H    5.034233   4.868227   2.909467   3.920867   2.316714
    24  H    5.085665   5.485296   4.205350   5.295657   3.884824
    25  H    4.740267   5.098724   2.847693   3.906772   2.779210
    26  C    3.178913   3.054050   4.082158   4.983246   4.035027
    27  H    3.900135   4.005317   5.019053   5.973835   4.857050
    28  H    3.907698   3.292492   3.832172   4.640785   3.578526
    29  H    2.443637   2.287672   4.505153   5.286321   4.660597
                   21         22         23         24         25
    21  H    0.000000
    22  C    3.054802   0.000000
    23  H    3.121572   1.089995   0.000000
    24  H    4.061216   1.100763   1.776444   0.000000
    25  H    2.417673   1.090300   1.797119   1.763344   0.000000
    26  C    4.525087   2.572977   2.739113   2.955479   3.484923
    27  H    5.368123   2.895501   3.125391   2.857925   3.899734
    28  H    4.477044   2.777980   2.497889   3.283237   3.719356
    29  H    4.988674   3.492406   3.730886   3.923531   4.270370
                   26         27         28         29
    26  C    0.000000
    27  H    1.100371   0.000000
    28  H    1.090697   1.773724   0.000000
    29  H    1.089027   1.766981   1.798236   0.000000
 Framework group  C1[X(C8H16Cl3FeO)]
 Deg. of freedom    81
                         Standard orientation:                         
 ---------------------------------------------------------------------
 Center     Atomic      Atomic             Coordinates (Angstroms)
 Number     Number       Type             X           Y           Z
 ---------------------------------------------------------------------
      1          8           0       -0.284007   -0.226234   -0.742128
      2          6           0       -1.097036   -1.181882   -0.619404
      3          6           0       -3.194259    0.001022    0.220173
      4          6           0       -2.436743    1.033557   -0.211897
      5          6           0       -2.506971    1.521480   -1.630376
      6         26           0        1.471126    0.104675    0.051262
      7         17           0        2.105694    1.984830   -0.848772
      8          6           0       -1.572514    1.865636    0.689203
      9         17           0        2.544382   -1.693093   -0.600255
     10         17           0        1.269735    0.176283    2.236902
     11          1           0       -3.860223   -0.466225   -0.504330
     12          1           0       -2.126744    2.770300    0.975969
     13          1           0       -1.271758    1.356876    1.605349
     14          1           0       -0.672154    2.205109    0.167774
     15          1           0       -2.802234    2.578660   -1.637412
     16          1           0       -1.519536    1.470662   -2.104774
     17          1           0       -3.232204    0.966781   -2.232245
     18          6           0       -3.414011   -0.409485    1.650688
     19          1           0       -4.318982    0.075180    2.041920
     20          1           0       -3.572761   -1.488832    1.744462
     21          1           0       -2.587414   -0.128820    2.308185
     22          6           0       -1.020201   -2.090273    0.567967
     23          1           0       -1.913345   -2.705057    0.679429
     24          1           0       -0.163160   -2.754748    0.379203
     25          1           0       -0.806153   -1.541340    1.485360
     26          6           0       -1.770589   -1.688870   -1.860202
     27          1           0       -1.058832   -2.396671   -2.311018
     28          1           0       -2.694017   -2.227875   -1.644855
     29          1           0       -1.940555   -0.889138   -2.579591
 ---------------------------------------------------------------------
 Rotational constants (GHZ):           0.5785835           0.3275309           0.3086070
   427 basis functions,  1056 primitive gaussians,   461 cartesian basis functions
    77 alpha electrons       72 beta electrons
       nuclear repulsion energy      1634.6667643363 Hartrees.
 NAtoms=   29 NActive=   29 NUniq=   29 SFac= 1.00D+00 NAtFMM=   60 NAOKFM=F Big=F
 Nuclear repulsion after empirical dispersion term =     1634.6295440344 Hartrees.
 Initial guess from the checkpoint file:  "checkpoint.chk"
 B after Tr=     0.000000    0.000000    0.000000
         Rot=    1.000000    0.000000    0.000000    0.000000 Ang=   0.00 deg.
 Initial guess <Sx>= 0.0000 <Sy>= 0.0000 <Sz>= 2.5000 <S**2>= 8.7628 S= 2.5021
 SCF Done:  E(UPBE1PBE) =  -3033.16335473     A.U. after    1 cycles
            NFock=  1  Conv=0.51D-08     -V/T= 2.0021
 <Sx>= 0.0000 <Sy>= 0.0000 <Sz>= 2.5000 <S**2>= 8.7628 S= 2.5021
 <L.S>= 0.000000000000E+00
 Annihilation of the first spin contaminant:
 S**2 before annihilation     8.7628,   after     8.7501
 1\1\GINC-HOLY7C04408\SP\UPBE1PBE\Jul-CC-pVDZ\C8H16Cl3Fe1O1(6)\EKWAN\11
 -Feb-2020\0\\#t pop=none jul-cc-pvdz guess=read upbe1pbe empiricaldisp
 ersion=gd3bj\\theory_abbreviation pbe0_d3bj\\0,6\O,0,-0.284007,-0.2262
 34,-0.742128\C,0,-1.097036,-1.181882,-0.619404\C,0,-3.194259,0.001023,
 0.220173\C,0,-2.436743,1.033557,-0.211897\C,0,-2.506971,1.52148,-1.630
 376\Fe,0,1.471126,0.104675,0.051262\Cl,0,2.105694,1.98483,-0.848772\C,
 0,-1.572514,1.865636,0.689203\Cl,0,2.544382,-1.693093,-0.600255\Cl,0,1
 .269735,0.176283,2.236902\H,0,-3.860223,-0.466224,-0.50433\H,0,-2.1267
 44,2.7703,0.975969\H,0,-1.271758,1.356876,1.605349\H,0,-0.672154,2.205
 109,0.167774\H,0,-2.802234,2.57866,-1.637412\H,0,-1.519536,1.470662,-2
 .104774\H,0,-3.232204,0.966782,-2.232245\C,0,-3.414011,-0.409484,1.650
 688\H,0,-4.318982,0.075181,2.04192\H,0,-3.572761,-1.488831,1.744462\H,
 0,-2.587414,-0.12882,2.308185\C,0,-1.020201,-2.090273,0.567967\H,0,-1.
 913345,-2.705057,0.679429\H,0,-0.16316,-2.754748,0.379203\H,0,-0.80615
 3,-1.54134,1.48536\C,0,-1.770589,-1.68887,-1.860202\H,0,-1.058832,-2.3
 96671,-2.311018\H,0,-2.694017,-2.227875,-1.644855\H,0,-1.940555,-0.889
 138,-2.579591\\Version=ES64L-G16RevA.03\HF=-3033.1633547\S2=8.762823\S
 2-1=0.\S2A=8.750051\RMSD=5.100e-09\PG=C01 [X(C8H16Cl3Fe1O1)]\\@


 IT IS NOT EASY TO DESCRIBE
     THE SEA WITH THE MOUTH

                   -- KOKYU
 Job cpu time:       0 days  0 hours  5 minutes 35.5 seconds.
 Elapsed time:       0 days  0 hours  1 minutes 31.1 seconds.
 File lengths (MBytes):  RWF=    170 Int=      0 D2E=      0 Chk=     13 Scr=      1
 Normal termination of Gaussian 16 at Tue Feb 11 14:48:37 2020.
 Initial command:
 /n/sw/g16_nehalem/g16/l1.exe "/scratch/Gau-440797.inp" -scrdir="/scratch/"
 Entering Link 1 = /n/sw/g16_nehalem/g16/l1.exe PID=    443662.
  
 Copyright (c) 1988,1990,1992,1993,1995,1998,2003,2009,2016,
            Gaussian, Inc.  All Rights Reserved.
  
 This is part of the Gaussian(R) 16 program.  It is based on
 the Gaussian(R) 09 system (copyright 2009, Gaussian, Inc.),
 the Gaussian(R) 03 system (copyright 2003, Gaussian, Inc.),
 the Gaussian(R) 98 system (copyright 1998, Gaussian, Inc.),
 the Gaussian(R) 94 system (copyright 1995, Gaussian, Inc.),
 the Gaussian 92(TM) system (copyright 1992, Gaussian, Inc.),
 the Gaussian 90(TM) system (copyright 1990, Gaussian, Inc.),
 the Gaussian 88(TM) system (copyright 1988, Gaussian, Inc.),
 the Gaussian 86(TM) system (copyright 1986, Carnegie Mellon
 University), and the Gaussian 82(TM) system (copyright 1983,
 Carnegie Mellon University). Gaussian is a federally registered
 trademark of Gaussian, Inc.
  
 This software contains proprietary and confidential information,
 including trade secrets, belonging to Gaussian, Inc.
  
 This software is provided under written license and may be
 used, copied, transmitted, or stored only in accord with that
 written license.
  
 The following legend is applicable only to US Government
 contracts under FAR:
  
                    RESTRICTED RIGHTS LEGEND
  
 Use, reproduction and disclosure by the US Government is
 subject to restrictions as set forth in subparagraphs (a)
 and (c) of the Commercial Computer Software - Restricted
 Rights clause in FAR 52.227-19.
  
 Gaussian, Inc.
 340 Quinnipiac St., Bldg. 40, Wallingford CT 06492
  
  
 ---------------------------------------------------------------
 Warning -- This program may not be used in any manner that
 competes with the business of Gaussian, Inc. or will provide
 assistance to any competitor of Gaussian, Inc.  The licensee
 of this program is prohibited from giving any competitor of
 Gaussian, Inc. access to this program.  By using this program,
 the user acknowledges that Gaussian, Inc. is engaged in the
 business of creating and licensing software in the field of
 computational chemistry and represents and warrants to the
 licensee that it is not a competitor of Gaussian, Inc. and that
 it will not use this program in any manner prohibited above.
 ---------------------------------------------------------------
  

 Cite this work as:
 Gaussian 16, Revision A.03,
 M. J. Frisch, G. W. Trucks, H. B. Schlegel, G. E. Scuseria, 
 M. A. Robb, J. R. Cheeseman, G. Scalmani, V. Barone, 
 G. A. Petersson, H. Nakatsuji, X. Li, M. Caricato, A. V. Marenich, 
 J. Bloino, B. G. Janesko, R. Gomperts, B. Mennucci, H. P. Hratchian, 
 J. V. Ortiz, A. F. Izmaylov, J. L. Sonnenberg, D. Williams-Young, 
 F. Ding, F. Lipparini, F. Egidi, J. Goings, B. Peng, A. Petrone, 
 T. Henderson, D. Ranasinghe, V. G. Zakrzewski, J. Gao, N. Rega, 
 G. Zheng, W. Liang, M. Hada, M. Ehara, K. Toyota, R. Fukuda, 
 J. Hasegawa, M. Ishida, T. Nakajima, Y. Honda, O. Kitao, H. Nakai, 
 T. Vreven, K. Throssell, J. A. Montgomery, Jr., J. E. Peralta, 
 F. Ogliaro, M. J. Bearpark, J. J. Heyd, E. N. Brothers, K. N. Kudin, 
 V. N. Staroverov, T. A. Keith, R. Kobayashi, J. Normand, 
 K. Raghavachari, A. P. Rendell, J. C. Burant, S. S. Iyengar, 
 J. Tomasi, M. Cossi, J. M. Millam, M. Klene, C. Adamo, R. Cammi, 
 J. W. Ochterski, R. L. Martin, K. Morokuma, O. Farkas, 
 J. B. Foresman, and D. J. Fox, Gaussian, Inc., Wallingford CT, 2016.
 
 ******************************************
 Gaussian 16:  ES64L-G16RevA.03 25-Dec-2016
                11-Feb-2020 
 ******************************************
 %chk=checkpoint.chk
 %mem=3GB
 %nprocshared=4
 Will use up to    4 processors via shared memory.
 -----------------------------------------
 #t pop=none jul-cc-pvdz guess=read ub3lyp
 -----------------------------------------
 -------------------------
 theory_abbreviation b3lyp
 -------------------------
 Symbolic Z-matrix:
 Charge =  0 Multiplicity = 6
 O                    -0.28401  -0.22623  -0.74213 
 C                    -1.09704  -1.18188  -0.6194 
 C                    -3.19426   0.00102   0.22017 
 C                    -2.43674   1.03356  -0.2119 
 C                    -2.50697   1.52148  -1.63038 
 Fe                    1.47113   0.10468   0.05126 
 Cl                    2.10569   1.98483  -0.84877 
 C                    -1.57251   1.86564   0.6892 
 Cl                    2.54438  -1.69309  -0.60026 
 Cl                    1.26974   0.17628   2.2369 
 H                    -3.86022  -0.46622  -0.50433 
 H                    -2.12674   2.7703    0.97597 
 H                    -1.27176   1.35688   1.60535 
 H                    -0.67215   2.20511   0.16777 
 H                    -2.80223   2.57866  -1.63741 
 H                    -1.51954   1.47066  -2.10477 
 H                    -3.2322    0.96678  -2.23225 
 C                    -3.41401  -0.40948   1.65069 
 H                    -4.31898   0.07518   2.04192 
 H                    -3.57276  -1.48883   1.74446 
 H                    -2.58741  -0.12882   2.30818 
 C                    -1.0202   -2.09027   0.56797 
 H                    -1.91335  -2.70506   0.67943 
 H                    -0.16316  -2.75475   0.3792 
 H                    -0.80615  -1.54134   1.48536 
 C                    -1.77059  -1.68887  -1.8602 
 H                    -1.05883  -2.39667  -2.31102 
 H                    -2.69402  -2.22788  -1.64486 
 H                    -1.94056  -0.88914  -2.57959 
 
                    Distance matrix (angstroms):
                    1          2          3          4          5
     1  O    0.000000
     2  C    1.260690   0.000000
     3  C    3.073636   2.550000   0.000000
     4  C    2.549998   2.620887   1.351533   0.000000
     5  C    2.963960   3.212187   2.491723   1.501694   0.000000
     6  Fe   1.954344   2.949657   4.669592   4.025359   4.545382
     7  Cl   3.257430   4.509784   5.759135   4.684471   4.701306
     8  C    2.843392   3.350507   2.515319   1.500409   2.524302
     9  Cl   3.189293   3.677177   6.039465   5.691841   6.075426
    10  Cl   3.383896   3.950279   4.901546   4.524325   5.570359
    11  H    3.592139   2.856678   1.089372   2.088338   2.655228
    12  H    3.914940   4.384661   3.062631   2.126829   2.914989
    13  H    2.998756   3.380140   2.730029   2.182684   3.467385
    14  H    2.624883   3.503125   3.349889   2.151850   2.658429
    15  H    3.874330   4.252730   3.201331   2.133781   1.097661
    16  H    2.502557   3.069335   3.220235   2.148328   1.096660
    17  H    3.512207   3.431757   2.635998   2.172331   1.093572
    18  C    3.944119   3.334410   1.504387   2.550812   3.913659
    19  H    4.911496   4.363919   2.142257   3.088851   4.342916
    20  H    4.311981   3.436756   2.164806   3.388262   4.646226
    21  H    3.823556   3.449774   2.178282   2.779323   4.271092
    22  C    2.394363   1.496973   3.036611   3.517541   4.481959
    23  H    3.289397   2.161802   3.028948   3.878871   4.852958
    24  H    2.768641   2.084046   4.099649   4.457559   5.274276
    25  H    2.638909   2.154960   3.111693   3.488495   4.688439
    26  C    2.366288   1.500097   3.034886   3.251504   3.301731
    27  H    2.787932   2.082962   4.088510   4.251048   4.232291
    28  H    3.260311   2.167025   2.948993   3.571624   3.754046
    29  H    2.561223   2.153963   3.194188   3.090135   2.651964
                    6          7          8          9         10
     6  Fe   0.000000
     7  Cl   2.178926   0.000000
     8  C    3.573751   3.988582   0.000000
     9  Cl   2.192789   3.712321   5.592503   0.000000
    10  Cl   2.196067   3.673017   3.650707   3.628877   0.000000
    11  H    5.390537   6.458984   3.477888   6.521762   5.851806
    12  H    4.572232   4.675487   1.099010   6.650246   4.455889
    13  H    3.392139   4.221874   1.090236   5.360030   2.872603
    14  H    3.003173   2.966198   1.094431   5.111942   3.488317
    15  H    5.218604   5.006231   2.726491   6.921696   6.112500
    16  H    3.931726   3.870943   2.822254   5.365478   5.320301
    17  H    5.298957   5.607457   3.478127   6.565613   6.392622
    18  C    5.165955   6.515150   3.080866   6.497449   4.756495
    19  H    6.122821   7.299269   3.546641   7.563970   5.593031
    20  H    5.554006   7.143951   4.045616   6.554301   5.144402
    21  H    4.649728   6.038142   2.762061   6.102565   3.869854
    22  C    3.360281   5.327742   3.996119   3.772101   3.628557
    23  H    4.443403   6.362634   4.583393   4.746893   4.567257
    24  H    3.309794   5.396223   4.840488   3.068751   3.754354
    25  H    3.154679   5.134287   3.581712   3.949545   2.797205
    26  C    4.168838   5.435497   4.378723   4.495160   5.432184
    27  H    4.270572   5.599102   5.237600   4.050294   5.720655
    28  H    5.066164   6.435671   4.843803   5.368240   6.046432
    29  H    4.421382   5.256192   4.290600   4.967774   5.885549
                   11         12         13         14         15
    11  H    0.000000
    12  H    3.958702   0.000000
    13  H    3.804549   1.767735   0.000000
    14  H    4.213256   1.757399   1.773597   0.000000
    15  H    3.416802   2.706062   3.788220   2.816998   0.000000
    16  H    3.433914   3.398343   3.720128   2.534155   1.758238
    17  H    2.331009   3.842832   4.326968   3.721210   1.771116
    18  C    2.201460   3.496188   2.776928   4.068527   4.484961
    19  H    2.643287   3.633982   3.334503   4.620430   4.701640
    20  H    2.487051   4.563085   3.662242   4.954257   5.345584
    21  H    3.105499   3.223649   2.105284   3.700919   4.790024
    22  C    3.442830   5.001607   3.608639   4.328002   5.462442
    23  H    3.194369   5.487532   4.215242   5.090391   5.837426
    24  H    4.436919   5.893891   4.431464   4.990387   6.283048
    25  H    3.800274   4.538026   2.937829   3.973647   5.541700
    26  C    2.774855   5.296689   4.640630   4.525740   4.396105
    27  H    3.852082   6.216294   5.428847   5.241213   5.314801
    28  H    2.400885   5.672061   5.043519   5.198548   4.807759
    29  H    2.858442   5.105699   4.796414   4.327958   3.695378
                   16         17         18         19         20
    16  H    0.000000
    17  H    1.789798   0.000000
    18  C    4.607329   4.123631   0.000000
    19  H    5.194164   4.499392   1.098606   0.000000
    20  H    5.271712   4.686173   1.094982   1.758255   0.000000
    21  H    4.813825   4.715040   1.092857   1.763758   1.771531
    22  C    4.480306   4.698907   3.118920   4.212325   2.874271
    23  H    5.034233   4.868227   2.909467   3.920867   2.316714
    24  H    5.085665   5.485296   4.205350   5.295657   3.884824
    25  H    4.740267   5.098724   2.847693   3.906772   2.779210
    26  C    3.178913   3.054050   4.082158   4.983246   4.035027
    27  H    3.900135   4.005317   5.019053   5.973835   4.857050
    28  H    3.907698   3.292492   3.832172   4.640785   3.578526
    29  H    2.443637   2.287672   4.505153   5.286321   4.660597
                   21         22         23         24         25
    21  H    0.000000
    22  C    3.054802   0.000000
    23  H    3.121572   1.089995   0.000000
    24  H    4.061216   1.100763   1.776444   0.000000
    25  H    2.417673   1.090300   1.797119   1.763344   0.000000
    26  C    4.525087   2.572977   2.739113   2.955479   3.484923
    27  H    5.368123   2.895501   3.125391   2.857925   3.899734
    28  H    4.477044   2.777980   2.497889   3.283237   3.719356
    29  H    4.988674   3.492406   3.730886   3.923531   4.270370
                   26         27         28         29
    26  C    0.000000
    27  H    1.100371   0.000000
    28  H    1.090697   1.773724   0.000000
    29  H    1.089027   1.766981   1.798236   0.000000
 Framework group  C1[X(C8H16Cl3FeO)]
 Deg. of freedom    81
                         Standard orientation:                         
 ---------------------------------------------------------------------
 Center     Atomic      Atomic             Coordinates (Angstroms)
 Number     Number       Type             X           Y           Z
 ---------------------------------------------------------------------
      1          8           0       -0.284007   -0.226234   -0.742128
      2          6           0       -1.097036   -1.181882   -0.619404
      3          6           0       -3.194259    0.001022    0.220173
      4          6           0       -2.436743    1.033557   -0.211897
      5          6           0       -2.506971    1.521480   -1.630376
      6         26           0        1.471126    0.104675    0.051262
      7         17           0        2.105694    1.984830   -0.848772
      8          6           0       -1.572514    1.865636    0.689203
      9         17           0        2.544382   -1.693093   -0.600255
     10         17           0        1.269735    0.176283    2.236902
     11          1           0       -3.860223   -0.466225   -0.504330
     12          1           0       -2.126744    2.770300    0.975969
     13          1           0       -1.271758    1.356876    1.605349
     14          1           0       -0.672154    2.205109    0.167774
     15          1           0       -2.802234    2.578660   -1.637412
     16          1           0       -1.519536    1.470662   -2.104774
     17          1           0       -3.232204    0.966781   -2.232245
     18          6           0       -3.414011   -0.409485    1.650688
     19          1           0       -4.318982    0.075180    2.041920
     20          1           0       -3.572761   -1.488832    1.744462
     21          1           0       -2.587414   -0.128820    2.308185
     22          6           0       -1.020201   -2.090273    0.567967
     23          1           0       -1.913345   -2.705057    0.679429
     24          1           0       -0.163160   -2.754748    0.379203
     25          1           0       -0.806153   -1.541340    1.485360
     26          6           0       -1.770589   -1.688870   -1.860202
     27          1           0       -1.058832   -2.396671   -2.311018
     28          1           0       -2.694017   -2.227875   -1.644855
     29          1           0       -1.940555   -0.889138   -2.579591
 ---------------------------------------------------------------------
 Rotational constants (GHZ):           0.5785835           0.3275309           0.3086070
   427 basis functions,  1056 primitive gaussians,   461 cartesian basis functions
    77 alpha electrons       72 beta electrons
       nuclear repulsion energy      1634.6667643363 Hartrees.
 NAtoms=   29 NActive=   29 NUniq=   29 SFac= 1.00D+00 NAtFMM=   60 NAOKFM=F Big=F
 Initial guess from the checkpoint file:  "checkpoint.chk"
 B after Tr=     0.000000    0.000000    0.000000
         Rot=    1.000000    0.000000    0.000000    0.000000 Ang=   0.00 deg.
 Initial guess <Sx>= 0.0000 <Sy>= 0.0000 <Sz>= 2.5000 <S**2>= 8.7628 S= 2.5021
 SCF Done:  E(UB3LYP) =  -3034.34294041     A.U. after   13 cycles
            NFock= 13  Conv=0.77D-08     -V/T= 2.0024
 <Sx>= 0.0000 <Sy>= 0.0000 <Sz>= 2.5000 <S**2>= 8.7621 S= 2.5020
 <L.S>= 0.000000000000E+00
 Annihilation of the first spin contaminant:
 S**2 before annihilation     8.7621,   after     8.7500
 1\1\GINC-HOLY7C04408\SP\UB3LYP\Jul-CC-pVDZ\C8H16Cl3Fe1O1(6)\EKWAN\11-F
 eb-2020\0\\#t pop=none jul-cc-pvdz guess=read ub3lyp\\theory_abbreviat
 ion b3lyp\\0,6\O,0,-0.284007,-0.226234,-0.742128\C,0,-1.097036,-1.1818
 82,-0.619404\C,0,-3.194259,0.001023,0.220173\C,0,-2.436743,1.033557,-0
 .211897\C,0,-2.506971,1.52148,-1.630376\Fe,0,1.471126,0.104675,0.05126
 2\Cl,0,2.105694,1.98483,-0.848772\C,0,-1.572514,1.865636,0.689203\Cl,0
 ,2.544382,-1.693093,-0.600255\Cl,0,1.269735,0.176283,2.236902\H,0,-3.8
 60223,-0.466224,-0.50433\H,0,-2.126744,2.7703,0.975969\H,0,-1.271758,1
 .356876,1.605349\H,0,-0.672154,2.205109,0.167774\H,0,-2.802234,2.57866
 ,-1.637412\H,0,-1.519536,1.470662,-2.104774\H,0,-3.232204,0.966782,-2.
 232245\C,0,-3.414011,-0.409484,1.650688\H,0,-4.318982,0.075181,2.04192
 \H,0,-3.572761,-1.488831,1.744462\H,0,-2.587414,-0.12882,2.308185\C,0,
 -1.020201,-2.090273,0.567967\H,0,-1.913345,-2.705057,0.679429\H,0,-0.1
 6316,-2.754748,0.379203\H,0,-0.806153,-1.54134,1.48536\C,0,-1.770589,-
 1.68887,-1.860202\H,0,-1.058832,-2.396671,-2.311018\H,0,-2.694017,-2.2
 27875,-1.644855\H,0,-1.940555,-0.889138,-2.579591\\Version=ES64L-G16Re
 vA.03\HF=-3034.3429404\S2=8.762096\S2-1=0.\S2A=8.750045\RMSD=7.736e-09
 \PG=C01 [X(C8H16Cl3Fe1O1)]\\@


 SCIENCE AND PEACE WILL TRIUMPH OVER IGNORANCE AND WAR

                          -- PASTEUR
 Job cpu time:       0 days  0 hours 58 minutes 21.6 seconds.
 Elapsed time:       0 days  0 hours 14 minutes 43.0 seconds.
 File lengths (MBytes):  RWF=    174 Int=      0 D2E=      0 Chk=     13 Scr=      1
 Normal termination of Gaussian 16 at Tue Feb 11 15:03:21 2020.
 Initial command:
 /n/sw/g16_nehalem/g16/l1.exe "/scratch/Gau-440797.inp" -scrdir="/scratch/"
 Entering Link 1 = /n/sw/g16_nehalem/g16/l1.exe PID=    444714.
  
 Copyright (c) 1988,1990,1992,1993,1995,1998,2003,2009,2016,
            Gaussian, Inc.  All Rights Reserved.
  
 This is part of the Gaussian(R) 16 program.  It is based on
 the Gaussian(R) 09 system (copyright 2009, Gaussian, Inc.),
 the Gaussian(R) 03 system (copyright 2003, Gaussian, Inc.),
 the Gaussian(R) 98 system (copyright 1998, Gaussian, Inc.),
 the Gaussian(R) 94 system (copyright 1995, Gaussian, Inc.),
 the Gaussian 92(TM) system (copyright 1992, Gaussian, Inc.),
 the Gaussian 90(TM) system (copyright 1990, Gaussian, Inc.),
 the Gaussian 88(TM) system (copyright 1988, Gaussian, Inc.),
 the Gaussian 86(TM) system (copyright 1986, Carnegie Mellon
 University), and the Gaussian 82(TM) system (copyright 1983,
 Carnegie Mellon University). Gaussian is a federally registered
 trademark of Gaussian, Inc.
  
 This software contains proprietary and confidential information,
 including trade secrets, belonging to Gaussian, Inc.
  
 This software is provided under written license and may be
 used, copied, transmitted, or stored only in accord with that
 written license.
  
 The following legend is applicable only to US Government
 contracts under FAR:
  
                    RESTRICTED RIGHTS LEGEND
  
 Use, reproduction and disclosure by the US Government is
 subject to restrictions as set forth in subparagraphs (a)
 and (c) of the Commercial Computer Software - Restricted
 Rights clause in FAR 52.227-19.
  
 Gaussian, Inc.
 340 Quinnipiac St., Bldg. 40, Wallingford CT 06492
  
  
 ---------------------------------------------------------------
 Warning -- This program may not be used in any manner that
 competes with the business of Gaussian, Inc. or will provide
 assistance to any competitor of Gaussian, Inc.  The licensee
 of this program is prohibited from giving any competitor of
 Gaussian, Inc. access to this program.  By using this program,
 the user acknowledges that Gaussian, Inc. is engaged in the
 business of creating and licensing software in the field of
 computational chemistry and represents and warrants to the
 licensee that it is not a competitor of Gaussian, Inc. and that
 it will not use this program in any manner prohibited above.
 ---------------------------------------------------------------
  

 Cite this work as:
 Gaussian 16, Revision A.03,
 M. J. Frisch, G. W. Trucks, H. B. Schlegel, G. E. Scuseria, 
 M. A. Robb, J. R. Cheeseman, G. Scalmani, V. Barone, 
 G. A. Petersson, H. Nakatsuji, X. Li, M. Caricato, A. V. Marenich, 
 J. Bloino, B. G. Janesko, R. Gomperts, B. Mennucci, H. P. Hratchian, 
 J. V. Ortiz, A. F. Izmaylov, J. L. Sonnenberg, D. Williams-Young, 
 F. Ding, F. Lipparini, F. Egidi, J. Goings, B. Peng, A. Petrone, 
 T. Henderson, D. Ranasinghe, V. G. Zakrzewski, J. Gao, N. Rega, 
 G. Zheng, W. Liang, M. Hada, M. Ehara, K. Toyota, R. Fukuda, 
 J. Hasegawa, M. Ishida, T. Nakajima, Y. Honda, O. Kitao, H. Nakai, 
 T. Vreven, K. Throssell, J. A. Montgomery, Jr., J. E. Peralta, 
 F. Ogliaro, M. J. Bearpark, J. J. Heyd, E. N. Brothers, K. N. Kudin, 
 V. N. Staroverov, T. A. Keith, R. Kobayashi, J. Normand, 
 K. Raghavachari, A. P. Rendell, J. C. Burant, S. S. Iyengar, 
 J. Tomasi, M. Cossi, J. M. Millam, M. Klene, C. Adamo, R. Cammi, 
 J. W. Ochterski, R. L. Martin, K. Morokuma, O. Farkas, 
 J. B. Foresman, and D. J. Fox, Gaussian, Inc., Wallingford CT, 2016.
 
 ******************************************
 Gaussian 16:  ES64L-G16RevA.03 25-Dec-2016
                11-Feb-2020 
 ******************************************
 %chk=checkpoint.chk
 %mem=3GB
 %nprocshared=4
 Will use up to    4 processors via shared memory.
 -------------------------------------------------------------------
 #t pop=none jul-cc-pvdz guess=read ub3lyp empiricaldispersion=gd3bj
 -------------------------------------------------------------------
 ------------------------------
 theory_abbreviation b3lyp_d3bj
 ------------------------------
 Symbolic Z-matrix:
 Charge =  0 Multiplicity = 6
 O                    -0.28401  -0.22623  -0.74213 
 C                    -1.09704  -1.18188  -0.6194 
 C                    -3.19426   0.00102   0.22017 
 C                    -2.43674   1.03356  -0.2119 
 C                    -2.50697   1.52148  -1.63038 
 Fe                    1.47113   0.10468   0.05126 
 Cl                    2.10569   1.98483  -0.84877 
 C                    -1.57251   1.86564   0.6892 
 Cl                    2.54438  -1.69309  -0.60026 
 Cl                    1.26974   0.17628   2.2369 
 H                    -3.86022  -0.46622  -0.50433 
 H                    -2.12674   2.7703    0.97597 
 H                    -1.27176   1.35688   1.60535 
 H                    -0.67215   2.20511   0.16777 
 H                    -2.80223   2.57866  -1.63741 
 H                    -1.51954   1.47066  -2.10477 
 H                    -3.2322    0.96678  -2.23225 
 C                    -3.41401  -0.40948   1.65069 
 H                    -4.31898   0.07518   2.04192 
 H                    -3.57276  -1.48883   1.74446 
 H                    -2.58741  -0.12882   2.30818 
 C                    -1.0202   -2.09027   0.56797 
 H                    -1.91335  -2.70506   0.67943 
 H                    -0.16316  -2.75475   0.3792 
 H                    -0.80615  -1.54134   1.48536 
 C                    -1.77059  -1.68887  -1.8602 
 H                    -1.05883  -2.39667  -2.31102 
 H                    -2.69402  -2.22788  -1.64486 
 H                    -1.94056  -0.88914  -2.57959 
 
                    Distance matrix (angstroms):
                    1          2          3          4          5
     1  O    0.000000
     2  C    1.260690   0.000000
     3  C    3.073636   2.550000   0.000000
     4  C    2.549998   2.620887   1.351533   0.000000
     5  C    2.963960   3.212187   2.491723   1.501694   0.000000
     6  Fe   1.954344   2.949657   4.669592   4.025359   4.545382
     7  Cl   3.257430   4.509784   5.759135   4.684471   4.701306
     8  C    2.843392   3.350507   2.515319   1.500409   2.524302
     9  Cl   3.189293   3.677177   6.039465   5.691841   6.075426
    10  Cl   3.383896   3.950279   4.901546   4.524325   5.570359
    11  H    3.592139   2.856678   1.089372   2.088338   2.655228
    12  H    3.914940   4.384661   3.062631   2.126829   2.914989
    13  H    2.998756   3.380140   2.730029   2.182684   3.467385
    14  H    2.624883   3.503125   3.349889   2.151850   2.658429
    15  H    3.874330   4.252730   3.201331   2.133781   1.097661
    16  H    2.502557   3.069335   3.220235   2.148328   1.096660
    17  H    3.512207   3.431757   2.635998   2.172331   1.093572
    18  C    3.944119   3.334410   1.504387   2.550812   3.913659
    19  H    4.911496   4.363919   2.142257   3.088851   4.342916
    20  H    4.311981   3.436756   2.164806   3.388262   4.646226
    21  H    3.823556   3.449774   2.178282   2.779323   4.271092
    22  C    2.394363   1.496973   3.036611   3.517541   4.481959
    23  H    3.289397   2.161802   3.028948   3.878871   4.852958
    24  H    2.768641   2.084046   4.099649   4.457559   5.274276
    25  H    2.638909   2.154960   3.111693   3.488495   4.688439
    26  C    2.366288   1.500097   3.034886   3.251504   3.301731
    27  H    2.787932   2.082962   4.088510   4.251048   4.232291
    28  H    3.260311   2.167025   2.948993   3.571624   3.754046
    29  H    2.561223   2.153963   3.194188   3.090135   2.651964
                    6          7          8          9         10
     6  Fe   0.000000
     7  Cl   2.178926   0.000000
     8  C    3.573751   3.988582   0.000000
     9  Cl   2.192789   3.712321   5.592503   0.000000
    10  Cl   2.196067   3.673017   3.650707   3.628877   0.000000
    11  H    5.390537   6.458984   3.477888   6.521762   5.851806
    12  H    4.572232   4.675487   1.099010   6.650246   4.455889
    13  H    3.392139   4.221874   1.090236   5.360030   2.872603
    14  H    3.003173   2.966198   1.094431   5.111942   3.488317
    15  H    5.218604   5.006231   2.726491   6.921696   6.112500
    16  H    3.931726   3.870943   2.822254   5.365478   5.320301
    17  H    5.298957   5.607457   3.478127   6.565613   6.392622
    18  C    5.165955   6.515150   3.080866   6.497449   4.756495
    19  H    6.122821   7.299269   3.546641   7.563970   5.593031
    20  H    5.554006   7.143951   4.045616   6.554301   5.144402
    21  H    4.649728   6.038142   2.762061   6.102565   3.869854
    22  C    3.360281   5.327742   3.996119   3.772101   3.628557
    23  H    4.443403   6.362634   4.583393   4.746893   4.567257
    24  H    3.309794   5.396223   4.840488   3.068751   3.754354
    25  H    3.154679   5.134287   3.581712   3.949545   2.797205
    26  C    4.168838   5.435497   4.378723   4.495160   5.432184
    27  H    4.270572   5.599102   5.237600   4.050294   5.720655
    28  H    5.066164   6.435671   4.843803   5.368240   6.046432
    29  H    4.421382   5.256192   4.290600   4.967774   5.885549
                   11         12         13         14         15
    11  H    0.000000
    12  H    3.958702   0.000000
    13  H    3.804549   1.767735   0.000000
    14  H    4.213256   1.757399   1.773597   0.000000
    15  H    3.416802   2.706062   3.788220   2.816998   0.000000
    16  H    3.433914   3.398343   3.720128   2.534155   1.758238
    17  H    2.331009   3.842832   4.326968   3.721210   1.771116
    18  C    2.201460   3.496188   2.776928   4.068527   4.484961
    19  H    2.643287   3.633982   3.334503   4.620430   4.701640
    20  H    2.487051   4.563085   3.662242   4.954257   5.345584
    21  H    3.105499   3.223649   2.105284   3.700919   4.790024
    22  C    3.442830   5.001607   3.608639   4.328002   5.462442
    23  H    3.194369   5.487532   4.215242   5.090391   5.837426
    24  H    4.436919   5.893891   4.431464   4.990387   6.283048
    25  H    3.800274   4.538026   2.937829   3.973647   5.541700
    26  C    2.774855   5.296689   4.640630   4.525740   4.396105
    27  H    3.852082   6.216294   5.428847   5.241213   5.314801
    28  H    2.400885   5.672061   5.043519   5.198548   4.807759
    29  H    2.858442   5.105699   4.796414   4.327958   3.695378
                   16         17         18         19         20
    16  H    0.000000
    17  H    1.789798   0.000000
    18  C    4.607329   4.123631   0.000000
    19  H    5.194164   4.499392   1.098606   0.000000
    20  H    5.271712   4.686173   1.094982   1.758255   0.000000
    21  H    4.813825   4.715040   1.092857   1.763758   1.771531
    22  C    4.480306   4.698907   3.118920   4.212325   2.874271
    23  H    5.034233   4.868227   2.909467   3.920867   2.316714
    24  H    5.085665   5.485296   4.205350   5.295657   3.884824
    25  H    4.740267   5.098724   2.847693   3.906772   2.779210
    26  C    3.178913   3.054050   4.082158   4.983246   4.035027
    27  H    3.900135   4.005317   5.019053   5.973835   4.857050
    28  H    3.907698   3.292492   3.832172   4.640785   3.578526
    29  H    2.443637   2.287672   4.505153   5.286321   4.660597
                   21         22         23         24         25
    21  H    0.000000
    22  C    3.054802   0.000000
    23  H    3.121572   1.089995   0.000000
    24  H    4.061216   1.100763   1.776444   0.000000
    25  H    2.417673   1.090300   1.797119   1.763344   0.000000
    26  C    4.525087   2.572977   2.739113   2.955479   3.484923
    27  H    5.368123   2.895501   3.125391   2.857925   3.899734
    28  H    4.477044   2.777980   2.497889   3.283237   3.719356
    29  H    4.988674   3.492406   3.730886   3.923531   4.270370
                   26         27         28         29
    26  C    0.000000
    27  H    1.100371   0.000000
    28  H    1.090697   1.773724   0.000000
    29  H    1.089027   1.766981   1.798236   0.000000
 Framework group  C1[X(C8H16Cl3FeO)]
 Deg. of freedom    81
                         Standard orientation:                         
 ---------------------------------------------------------------------
 Center     Atomic      Atomic             Coordinates (Angstroms)
 Number     Number       Type             X           Y           Z
 ---------------------------------------------------------------------
      1          8           0       -0.284007   -0.226234   -0.742128
      2          6           0       -1.097036   -1.181882   -0.619404
      3          6           0       -3.194259    0.001022    0.220173
      4          6           0       -2.436743    1.033557   -0.211897
      5          6           0       -2.506971    1.521480   -1.630376
      6         26           0        1.471126    0.104675    0.051262
      7         17           0        2.105694    1.984830   -0.848772
      8          6           0       -1.572514    1.865636    0.689203
      9         17           0        2.544382   -1.693093   -0.600255
     10         17           0        1.269735    0.176283    2.236902
     11          1           0       -3.860223   -0.466225   -0.504330
     12          1           0       -2.126744    2.770300    0.975969
     13          1           0       -1.271758    1.356876    1.605349
     14          1           0       -0.672154    2.205109    0.167774
     15          1           0       -2.802234    2.578660   -1.637412
     16          1           0       -1.519536    1.470662   -2.104774
     17          1           0       -3.232204    0.966781   -2.232245
     18          6           0       -3.414011   -0.409485    1.650688
     19          1           0       -4.318982    0.075180    2.041920
     20          1           0       -3.572761   -1.488832    1.744462
     21          1           0       -2.587414   -0.128820    2.308185
     22          6           0       -1.020201   -2.090273    0.567967
     23          1           0       -1.913345   -2.705057    0.679429
     24          1           0       -0.163160   -2.754748    0.379203
     25          1           0       -0.806153   -1.541340    1.485360
     26          6           0       -1.770589   -1.688870   -1.860202
     27          1           0       -1.058832   -2.396671   -2.311018
     28          1           0       -2.694017   -2.227875   -1.644855
     29          1           0       -1.940555   -0.889138   -2.579591
 ---------------------------------------------------------------------
 Rotational constants (GHZ):           0.5785835           0.3275309           0.3086070
   427 basis functions,  1056 primitive gaussians,   461 cartesian basis functions
    77 alpha electrons       72 beta electrons
       nuclear repulsion energy      1634.6667643363 Hartrees.
 NAtoms=   29 NActive=   29 NUniq=   29 SFac= 1.00D+00 NAtFMM=   60 NAOKFM=F Big=F
 Nuclear repulsion after empirical dispersion term =     1634.5976092484 Hartrees.
 Initial guess from the checkpoint file:  "checkpoint.chk"
 B after Tr=     0.000000    0.000000    0.000000
         Rot=    1.000000    0.000000    0.000000    0.000000 Ang=   0.00 deg.
 Initial guess <Sx>= 0.0000 <Sy>= 0.0000 <Sz>= 2.5000 <S**2>= 8.7621 S= 2.5020
 SCF Done:  E(UB3LYP) =  -3034.41209549     A.U. after    1 cycles
            NFock=  1  Conv=0.54D-08     -V/T= 2.0024
 <Sx>= 0.0000 <Sy>= 0.0000 <Sz>= 2.5000 <S**2>= 8.7621 S= 2.5020
 <L.S>= 0.000000000000E+00
 Annihilation of the first spin contaminant:
 S**2 before annihilation     8.7621,   after     8.7500
 1\1\GINC-HOLY7C04408\SP\UB3LYP\Jul-CC-pVDZ\C8H16Cl3Fe1O1(6)\EKWAN\11-F
 eb-2020\0\\#t pop=none jul-cc-pvdz guess=read ub3lyp empiricaldispersi
 on=gd3bj\\theory_abbreviation b3lyp_d3bj\\0,6\O,0,-0.284007,-0.226234,
 -0.742128\C,0,-1.097036,-1.181882,-0.619404\C,0,-3.194259,0.001023,0.2
 20173\C,0,-2.436743,1.033557,-0.211897\C,0,-2.506971,1.52148,-1.630376
 \Fe,0,1.471126,0.104675,0.051262\Cl,0,2.105694,1.98483,-0.848772\C,0,-
 1.572514,1.865636,0.689203\Cl,0,2.544382,-1.693093,-0.600255\Cl,0,1.26
 9735,0.176283,2.236902\H,0,-3.860223,-0.466224,-0.50433\H,0,-2.126744,
 2.7703,0.975969\H,0,-1.271758,1.356876,1.605349\H,0,-0.672154,2.205109
 ,0.167774\H,0,-2.802234,2.57866,-1.637412\H,0,-1.519536,1.470662,-2.10
 4774\H,0,-3.232204,0.966782,-2.232245\C,0,-3.414011,-0.409484,1.650688
 \H,0,-4.318982,0.075181,2.04192\H,0,-3.572761,-1.488831,1.744462\H,0,-
 2.587414,-0.12882,2.308185\C,0,-1.020201,-2.090273,0.567967\H,0,-1.913
 345,-2.705057,0.679429\H,0,-0.16316,-2.754748,0.379203\H,0,-0.806153,-
 1.54134,1.48536\C,0,-1.770589,-1.68887,-1.860202\H,0,-1.058832,-2.3966
 71,-2.311018\H,0,-2.694017,-2.227875,-1.644855\H,0,-1.940555,-0.889138
 ,-2.579591\\Version=ES64L-G16RevA.03\HF=-3034.4120955\S2=8.762096\S2-1
 =0.\S2A=8.750045\RMSD=5.425e-09\PG=C01 [X(C8H16Cl3Fe1O1)]\\@


     "IF I COULD JUST GET IT ON PAPER"
 LIFE AND INK, THEY RUN OUT AT THE SAME TIME,
 OR SO SAID MY OLD FRIEND THE SQUID.
     -- JIMMY BUFFETT, 1981
 Job cpu time:       0 days  0 hours  5 minutes  5.0 seconds.
 Elapsed time:       0 days  0 hours  1 minutes 22.4 seconds.
 File lengths (MBytes):  RWF=    170 Int=      0 D2E=      0 Chk=     13 Scr=      1
 Normal termination of Gaussian 16 at Tue Feb 11 15:04:45 2020.
 Initial command:
 /n/sw/g16_nehalem/g16/l1.exe "/scratch/Gau-440797.inp" -scrdir="/scratch/"
 Entering Link 1 = /n/sw/g16_nehalem/g16/l1.exe PID=    444808.
  
 Copyright (c) 1988,1990,1992,1993,1995,1998,2003,2009,2016,
            Gaussian, Inc.  All Rights Reserved.
  
 This is part of the Gaussian(R) 16 program.  It is based on
 the Gaussian(R) 09 system (copyright 2009, Gaussian, Inc.),
 the Gaussian(R) 03 system (copyright 2003, Gaussian, Inc.),
 the Gaussian(R) 98 system (copyright 1998, Gaussian, Inc.),
 the Gaussian(R) 94 system (copyright 1995, Gaussian, Inc.),
 the Gaussian 92(TM) system (copyright 1992, Gaussian, Inc.),
 the Gaussian 90(TM) system (copyright 1990, Gaussian, Inc.),
 the Gaussian 88(TM) system (copyright 1988, Gaussian, Inc.),
 the Gaussian 86(TM) system (copyright 1986, Carnegie Mellon
 University), and the Gaussian 82(TM) system (copyright 1983,
 Carnegie Mellon University). Gaussian is a federally registered
 trademark of Gaussian, Inc.
  
 This software contains proprietary and confidential information,
 including trade secrets, belonging to Gaussian, Inc.
  
 This software is provided under written license and may be
 used, copied, transmitted, or stored only in accord with that
 written license.
  
 The following legend is applicable only to US Government
 contracts under FAR:
  
                    RESTRICTED RIGHTS LEGEND
  
 Use, reproduction and disclosure by the US Government is
 subject to restrictions as set forth in subparagraphs (a)
 and (c) of the Commercial Computer Software - Restricted
 Rights clause in FAR 52.227-19.
  
 Gaussian, Inc.
 340 Quinnipiac St., Bldg. 40, Wallingford CT 06492
  
  
 ---------------------------------------------------------------
 Warning -- This program may not be used in any manner that
 competes with the business of Gaussian, Inc. or will provide
 assistance to any competitor of Gaussian, Inc.  The licensee
 of this program is prohibited from giving any competitor of
 Gaussian, Inc. access to this program.  By using this program,
 the user acknowledges that Gaussian, Inc. is engaged in the
 business of creating and licensing software in the field of
 computational chemistry and represents and warrants to the
 licensee that it is not a competitor of Gaussian, Inc. and that
 it will not use this program in any manner prohibited above.
 ---------------------------------------------------------------
  

 Cite this work as:
 Gaussian 16, Revision A.03,
 M. J. Frisch, G. W. Trucks, H. B. Schlegel, G. E. Scuseria, 
 M. A. Robb, J. R. Cheeseman, G. Scalmani, V. Barone, 
 G. A. Petersson, H. Nakatsuji, X. Li, M. Caricato, A. V. Marenich, 
 J. Bloino, B. G. Janesko, R. Gomperts, B. Mennucci, H. P. Hratchian, 
 J. V. Ortiz, A. F. Izmaylov, J. L. Sonnenberg, D. Williams-Young, 
 F. Ding, F. Lipparini, F. Egidi, J. Goings, B. Peng, A. Petrone, 
 T. Henderson, D. Ranasinghe, V. G. Zakrzewski, J. Gao, N. Rega, 
 G. Zheng, W. Liang, M. Hada, M. Ehara, K. Toyota, R. Fukuda, 
 J. Hasegawa, M. Ishida, T. Nakajima, Y. Honda, O. Kitao, H. Nakai, 
 T. Vreven, K. Throssell, J. A. Montgomery, Jr., J. E. Peralta, 
 F. Ogliaro, M. J. Bearpark, J. J. Heyd, E. N. Brothers, K. N. Kudin, 
 V. N. Staroverov, T. A. Keith, R. Kobayashi, J. Normand, 
 K. Raghavachari, A. P. Rendell, J. C. Burant, S. S. Iyengar, 
 J. Tomasi, M. Cossi, J. M. Millam, M. Klene, C. Adamo, R. Cammi, 
 J. W. Ochterski, R. L. Martin, K. Morokuma, O. Farkas, 
 J. B. Foresman, and D. J. Fox, Gaussian, Inc., Wallingford CT, 2016.
 
 ******************************************
 Gaussian 16:  ES64L-G16RevA.03 25-Dec-2016
                11-Feb-2020 
 ******************************************
 %chk=checkpoint.chk
 %mem=3GB
 %nprocshared=4
 Will use up to    4 processors via shared memory.
 ----------------------------------------
 #t pop=none jul-cc-pvdz guess=read ub97d
 ----------------------------------------
 ------------------------
 theory_abbreviation b97d
 ------------------------
 Symbolic Z-matrix:
 Charge =  0 Multiplicity = 6
 O                    -0.28401  -0.22623  -0.74213 
 C                    -1.09704  -1.18188  -0.6194 
 C                    -3.19426   0.00102   0.22017 
 C                    -2.43674   1.03356  -0.2119 
 C                    -2.50697   1.52148  -1.63038 
 Fe                    1.47113   0.10468   0.05126 
 Cl                    2.10569   1.98483  -0.84877 
 C                    -1.57251   1.86564   0.6892 
 Cl                    2.54438  -1.69309  -0.60026 
 Cl                    1.26974   0.17628   2.2369 
 H                    -3.86022  -0.46622  -0.50433 
 H                    -2.12674   2.7703    0.97597 
 H                    -1.27176   1.35688   1.60535 
 H                    -0.67215   2.20511   0.16777 
 H                    -2.80223   2.57866  -1.63741 
 H                    -1.51954   1.47066  -2.10477 
 H                    -3.2322    0.96678  -2.23225 
 C                    -3.41401  -0.40948   1.65069 
 H                    -4.31898   0.07518   2.04192 
 H                    -3.57276  -1.48883   1.74446 
 H                    -2.58741  -0.12882   2.30818 
 C                    -1.0202   -2.09027   0.56797 
 H                    -1.91335  -2.70506   0.67943 
 H                    -0.16316  -2.75475   0.3792 
 H                    -0.80615  -1.54134   1.48536 
 C                    -1.77059  -1.68887  -1.8602 
 H                    -1.05883  -2.39667  -2.31102 
 H                    -2.69402  -2.22788  -1.64486 
 H                    -1.94056  -0.88914  -2.57959 
 
                    Distance matrix (angstroms):
                    1          2          3          4          5
     1  O    0.000000
     2  C    1.260690   0.000000
     3  C    3.073636   2.550000   0.000000
     4  C    2.549998   2.620887   1.351533   0.000000
     5  C    2.963960   3.212187   2.491723   1.501694   0.000000
     6  Fe   1.954344   2.949657   4.669592   4.025359   4.545382
     7  Cl   3.257430   4.509784   5.759135   4.684471   4.701306
     8  C    2.843392   3.350507   2.515319   1.500409   2.524302
     9  Cl   3.189293   3.677177   6.039465   5.691841   6.075426
    10  Cl   3.383896   3.950279   4.901546   4.524325   5.570359
    11  H    3.592139   2.856678   1.089372   2.088338   2.655228
    12  H    3.914940   4.384661   3.062631   2.126829   2.914989
    13  H    2.998756   3.380140   2.730029   2.182684   3.467385
    14  H    2.624883   3.503125   3.349889   2.151850   2.658429
    15  H    3.874330   4.252730   3.201331   2.133781   1.097661
    16  H    2.502557   3.069335   3.220235   2.148328   1.096660
    17  H    3.512207   3.431757   2.635998   2.172331   1.093572
    18  C    3.944119   3.334410   1.504387   2.550812   3.913659
    19  H    4.911496   4.363919   2.142257   3.088851   4.342916
    20  H    4.311981   3.436756   2.164806   3.388262   4.646226
    21  H    3.823556   3.449774   2.178282   2.779323   4.271092
    22  C    2.394363   1.496973   3.036611   3.517541   4.481959
    23  H    3.289397   2.161802   3.028948   3.878871   4.852958
    24  H    2.768641   2.084046   4.099649   4.457559   5.274276
    25  H    2.638909   2.154960   3.111693   3.488495   4.688439
    26  C    2.366288   1.500097   3.034886   3.251504   3.301731
    27  H    2.787932   2.082962   4.088510   4.251048   4.232291
    28  H    3.260311   2.167025   2.948993   3.571624   3.754046
    29  H    2.561223   2.153963   3.194188   3.090135   2.651964
                    6          7          8          9         10
     6  Fe   0.000000
     7  Cl   2.178926   0.000000
     8  C    3.573751   3.988582   0.000000
     9  Cl   2.192789   3.712321   5.592503   0.000000
    10  Cl   2.196067   3.673017   3.650707   3.628877   0.000000
    11  H    5.390537   6.458984   3.477888   6.521762   5.851806
    12  H    4.572232   4.675487   1.099010   6.650246   4.455889
    13  H    3.392139   4.221874   1.090236   5.360030   2.872603
    14  H    3.003173   2.966198   1.094431   5.111942   3.488317
    15  H    5.218604   5.006231   2.726491   6.921696   6.112500
    16  H    3.931726   3.870943   2.822254   5.365478   5.320301
    17  H    5.298957   5.607457   3.478127   6.565613   6.392622
    18  C    5.165955   6.515150   3.080866   6.497449   4.756495
    19  H    6.122821   7.299269   3.546641   7.563970   5.593031
    20  H    5.554006   7.143951   4.045616   6.554301   5.144402
    21  H    4.649728   6.038142   2.762061   6.102565   3.869854
    22  C    3.360281   5.327742   3.996119   3.772101   3.628557
    23  H    4.443403   6.362634   4.583393   4.746893   4.567257
    24  H    3.309794   5.396223   4.840488   3.068751   3.754354
    25  H    3.154679   5.134287   3.581712   3.949545   2.797205
    26  C    4.168838   5.435497   4.378723   4.495160   5.432184
    27  H    4.270572   5.599102   5.237600   4.050294   5.720655
    28  H    5.066164   6.435671   4.843803   5.368240   6.046432
    29  H    4.421382   5.256192   4.290600   4.967774   5.885549
                   11         12         13         14         15
    11  H    0.000000
    12  H    3.958702   0.000000
    13  H    3.804549   1.767735   0.000000
    14  H    4.213256   1.757399   1.773597   0.000000
    15  H    3.416802   2.706062   3.788220   2.816998   0.000000
    16  H    3.433914   3.398343   3.720128   2.534155   1.758238
    17  H    2.331009   3.842832   4.326968   3.721210   1.771116
    18  C    2.201460   3.496188   2.776928   4.068527   4.484961
    19  H    2.643287   3.633982   3.334503   4.620430   4.701640
    20  H    2.487051   4.563085   3.662242   4.954257   5.345584
    21  H    3.105499   3.223649   2.105284   3.700919   4.790024
    22  C    3.442830   5.001607   3.608639   4.328002   5.462442
    23  H    3.194369   5.487532   4.215242   5.090391   5.837426
    24  H    4.436919   5.893891   4.431464   4.990387   6.283048
    25  H    3.800274   4.538026   2.937829   3.973647   5.541700
    26  C    2.774855   5.296689   4.640630   4.525740   4.396105
    27  H    3.852082   6.216294   5.428847   5.241213   5.314801
    28  H    2.400885   5.672061   5.043519   5.198548   4.807759
    29  H    2.858442   5.105699   4.796414   4.327958   3.695378
                   16         17         18         19         20
    16  H    0.000000
    17  H    1.789798   0.000000
    18  C    4.607329   4.123631   0.000000
    19  H    5.194164   4.499392   1.098606   0.000000
    20  H    5.271712   4.686173   1.094982   1.758255   0.000000
    21  H    4.813825   4.715040   1.092857   1.763758   1.771531
    22  C    4.480306   4.698907   3.118920   4.212325   2.874271
    23  H    5.034233   4.868227   2.909467   3.920867   2.316714
    24  H    5.085665   5.485296   4.205350   5.295657   3.884824
[...]
 Rotational constants (GHZ):           0.5785835           0.3275309           0.3086070
   427 basis functions,  1056 primitive gaussians,   461 cartesian basis functions
    77 alpha electrons       72 beta electrons
       nuclear repulsion energy      1634.6667643363 Hartrees.
 NAtoms=   29 NActive=   29 NUniq=   29 SFac= 1.00D+00 NAtFMM=   60 NAOKFM=F Big=F
 Nuclear repulsion after empirical dispersion term =     1634.6642926846 Hartrees.
 Initial guess from the checkpoint file:  "checkpoint.chk"
 B after Tr=     0.000000    0.000000    0.000000
         Rot=    1.000000    0.000000    0.000000    0.000000 Ang=   0.00 deg.
 Initial guess <Sx>= 0.0000 <Sy>= 0.0000 <Sz>= 2.5000 <S**2>= 8.7618 S= 2.5020
 SCF Done:  E(UM06L) =  -3034.21193446     A.U. after   17 cycles
            NFock= 17  Conv=0.66D-08     -V/T= 2.0020
 <Sx>= 0.0000 <Sy>= 0.0000 <Sz>= 2.5000 <S**2>= 8.7617 S= 2.5019
 <L.S>= 0.000000000000E+00
 Annihilation of the first spin contaminant:
 S**2 before annihilation     8.7617,   after     8.7500
 1\1\GINC-HOLY7C04408\SP\UM06L\Jul-CC-pVDZ\C8H16Cl3Fe1O1(6)\EKWAN\12-Fe
 b-2020\0\\#t pop=none jul-cc-pvdz guess=read um06l empiricaldispersion
 =gd3\\theory_abbreviation m06l_d3\\0,6\O,0,-0.284007,-0.226234,-0.7421
 28\C,0,-1.097036,-1.181882,-0.619404\C,0,-3.194259,0.001023,0.220173\C
 ,0,-2.436743,1.033557,-0.211897\C,0,-2.506971,1.52148,-1.630376\Fe,0,1
 .471126,0.104675,0.051262\Cl,0,2.105694,1.98483,-0.848772\C,0,-1.57251
 4,1.865636,0.689203\Cl,0,2.544382,-1.693093,-0.600255\Cl,0,1.269735,0.
 176283,2.236902\H,0,-3.860223,-0.466224,-0.50433\H,0,-2.126744,2.7703,
 0.975969\H,0,-1.271758,1.356876,1.605349\H,0,-0.672154,2.205109,0.1677
 74\H,0,-2.802234,2.57866,-1.637412\H,0,-1.519536,1.470662,-2.104774\H,
 0,-3.232204,0.966782,-2.232245\C,0,-3.414011,-0.409484,1.650688\H,0,-4
 .318982,0.075181,2.04192\H,0,-3.572761,-1.488831,1.744462\H,0,-2.58741
 4,-0.12882,2.308185\C,0,-1.020201,-2.090273,0.567967\H,0,-1.913345,-2.
 705057,0.679429\H,0,-0.16316,-2.754748,0.379203\H,0,-0.806153,-1.54134
 ,1.48536\C,0,-1.770589,-1.68887,-1.860202\H,0,-1.058832,-2.396671,-2.3
 11018\H,0,-2.694017,-2.227875,-1.644855\H,0,-1.940555,-0.889138,-2.579
 591\\Version=ES64L-G16RevA.03\HF=-3034.2119345\S2=8.76169\S2-1=0.\S2A=
 8.750044\RMSD=6.629e-09\PG=C01 [X(C8H16Cl3Fe1O1)]\\@


 Life may have no meaning.  Or even worse, it may have a
 meaning of which I disapprove.
                                 -- Ashleigh Brilliant
 Job cpu time:       0 days  1 hours 16 minutes 41.0 seconds.
 Elapsed time:       0 days  0 hours 20 minutes 23.9 seconds.
 File lengths (MBytes):  RWF=    174 Int=      0 D2E=      0 Chk=     13 Scr=      1
 Normal termination of Gaussian 16 at Wed Feb 12 00:12:40 2020.
 Initial command:
 /n/sw/g16_nehalem/g16/l1.exe "/scratch/Gau-440797.inp" -scrdir="/scratch/"
 Entering Link 1 = /n/sw/g16_nehalem/g16/l1.exe PID=     31390.
  
 Copyright (c) 1988,1990,1992,1993,1995,1998,2003,2009,2016,
            Gaussian, Inc.  All Rights Reserved.
  
 This is part of the Gaussian(R) 16 program.  It is based on
 the Gaussian(R) 09 system (copyright 2009, Gaussian, Inc.),
 the Gaussian(R) 03 system (copyright 2003, Gaussian, Inc.),
 the Gaussian(R) 98 system (copyright 1998, Gaussian, Inc.),
 the Gaussian(R) 94 system (copyright 1995, Gaussian, Inc.),
 the Gaussian 92(TM) system (copyright 1992, Gaussian, Inc.),
 the Gaussian 90(TM) system (copyright 1990, Gaussian, Inc.),
 the Gaussian 88(TM) system (copyright 1988, Gaussian, Inc.),
 the Gaussian 86(TM) system (copyright 1986, Carnegie Mellon
 University), and the Gaussian 82(TM) system (copyright 1983,
 Carnegie Mellon University). Gaussian is a federally registered
 trademark of Gaussian, Inc.
  
 This software contains proprietary and confidential information,
 including trade secrets, belonging to Gaussian, Inc.
  
 This software is provided under written license and may be
 used, copied, transmitted, or stored only in accord with that
 written license.
  
 The following legend is applicable only to US Government
 contracts under FAR:
  
                    RESTRICTED RIGHTS LEGEND
  
 Use, reproduction and disclosure by the US Government is
 subject to restrictions as set forth in subparagraphs (a)
 and (c) of the Commercial Computer Software - Restricted
 Rights clause in FAR 52.227-19.
  
 Gaussian, Inc.
 340 Quinnipiac St., Bldg. 40, Wallingford CT 06492
  
  
 ---------------------------------------------------------------
 Warning -- This program may not be used in any manner that
 competes with the business of Gaussian, Inc. or will provide
 assistance to any competitor of Gaussian, Inc.  The licensee
 of this program is prohibited from giving any competitor of
 Gaussian, Inc. access to this program.  By using this program,
 the user acknowledges that Gaussian, Inc. is engaged in the
 business of creating and licensing software in the field of
 computational chemistry and represents and warrants to the
 licensee that it is not a competitor of Gaussian, Inc. and that
 it will not use this program in any manner prohibited above.
 ---------------------------------------------------------------
  

 Cite this work as:
 Gaussian 16, Revision A.03,
 M. J. Frisch, G. W. Trucks, H. B. Schlegel, G. E. Scuseria, 
 M. A. Robb, J. R. Cheeseman, G. Scalmani, V. Barone, 
 G. A. Petersson, H. Nakatsuji, X. Li, M. Caricato, A. V. Marenich, 
 J. Bloino, B. G. Janesko, R. Gomperts, B. Mennucci, H. P. Hratchian, 
 J. V. Ortiz, A. F. Izmaylov, J. L. Sonnenberg, D. Williams-Young, 
 F. Ding, F. Lipparini, F. Egidi, J. Goings, B. Peng, A. Petrone, 
 T. Henderson, D. Ranasinghe, V. G. Zakrzewski, J. Gao, N. Rega, 
 G. Zheng, W. Liang, M. Hada, M. Ehara, K. Toyota, R. Fukuda, 
 J. Hasegawa, M. Ishida, T. Nakajima, Y. Honda, O. Kitao, H. Nakai, 
 T. Vreven, K. Throssell, J. A. Montgomery, Jr., J. E. Peralta, 
 F. Ogliaro, M. J. Bearpark, J. J. Heyd, E. N. Brothers, K. N. Kudin, 
 V. N. Staroverov, T. A. Keith, R. Kobayashi, J. Normand, 
 K. Raghavachari, A. P. Rendell, J. C. Burant, S. S. Iyengar, 
 J. Tomasi, M. Cossi, J. M. Millam, M. Klene, C. Adamo, R. Cammi, 
 J. W. Ochterski, R. L. Martin, K. Morokuma, O. Farkas, 
 J. B. Foresman, and D. J. Fox, Gaussian, Inc., Wallingford CT, 2016.
 
 ******************************************
 Gaussian 16:  ES64L-G16RevA.03 25-Dec-2016
                12-Feb-2020 
 ******************************************
 %chk=checkpoint.chk
 %mem=3GB
 %nprocshared=4
 Will use up to    4 processors via shared memory.
 -------------------------------------------------------------------
 #t pop=none jul-cc-pvdz guess=read ub97d3 empiricaldispersion=gd3bj
 -------------------------------------------------------------------
 ------------------------------
 theory_abbreviation b97d3_d3bj
 ------------------------------
 Symbolic Z-matrix:
 Charge =  0 Multiplicity = 6
 O                    -0.28401  -0.22623  -0.74213 
 C                    -1.09704  -1.18188  -0.6194 
 C                    -3.19426   0.00102   0.22017 
 C                    -2.43674   1.03356  -0.2119 
 C                    -2.50697   1.52148  -1.63038 
 Fe                    1.47113   0.10468   0.05126 
 Cl                    2.10569   1.98483  -0.84877 
 C                    -1.57251   1.86564   0.6892 
 Cl                    2.54438  -1.69309  -0.60026 
 Cl                    1.26974   0.17628   2.2369 
 H                    -3.86022  -0.46622  -0.50433 
 H                    -2.12674   2.7703    0.97597 
 H                    -1.27176   1.35688   1.60535 
 H                    -0.67215   2.20511   0.16777 
 H                    -2.80223   2.57866  -1.63741 
 H                    -1.51954   1.47066  -2.10477 
 H                    -3.2322    0.96678  -2.23225 
 C                    -3.41401  -0.40948   1.65069 
 H                    -4.31898   0.07518   2.04192 
 H                    -3.57276  -1.48883   1.74446 
 H                    -2.58741  -0.12882   2.30818 
 C                    -1.0202   -2.09027   0.56797 
 H                    -1.91335  -2.70506   0.67943 
 H                    -0.16316  -2.75475   0.3792 
 H                    -0.80615  -1.54134   1.48536 
 C                    -1.77059  -1.68887  -1.8602 
 H                    -1.05883  -2.39667  -2.31102 
 H                    -2.69402  -2.22788  -1.64486 
 H                    -1.94056  -0.88914  -2.57959 
 
                    Distance matrix (angstroms):
                    1          2          3          4          5
     1  O    0.000000
     2  C    1.260690   0.000000
     3  C    3.073636   2.550000   0.000000
     4  C    2.549998   2.620887   1.351533   0.000000
     5  C    2.963960   3.212187   2.491723   1.501694   0.000000
     6  Fe   1.954344   2.949657   4.669592   4.025359   4.545382
     7  Cl   3.257430   4.509784   5.759135   4.684471   4.701306
     8  C    2.843392   3.350507   2.515319   1.500409   2.524302
     9  Cl   3.189293   3.677177   6.039465   5.691841   6.075426
    10  Cl   3.383896   3.950279   4.901546   4.524325   5.570359
    11  H    3.592139   2.856678   1.089372   2.088338   2.655228
    12  H    3.914940   4.384661   3.062631   2.126829   2.914989
    13  H    2.998756   3.380140   2.730029   2.182684   3.467385
    14  H    2.624883   3.503125   3.349889   2.151850   2.658429
    15  H    3.874330   4.252730   3.201331   2.133781   1.097661
    16  H    2.502557   3.069335   3.220235   2.148328   1.096660
    17  H    3.512207   3.431757   2.635998   2.172331   1.093572
    18  C    3.944119   3.334410   1.504387   2.550812   3.913659
    19  H    4.911496   4.363919   2.142257   3.088851   4.342916
    20  H    4.311981   3.436756   2.164806   3.388262   4.646226
    21  H    3.823556   3.449774   2.178282   2.779323   4.271092
    22  C    2.394363   1.496973   3.036611   3.517541   4.481959
    23  H    3.289397   2.161802   3.028948   3.878871   4.852958
    24  H    2.768641   2.084046   4.099649   4.457559   5.274276
    25  H    2.638909   2.154960   3.111693   3.488495   4.688439
    26  C    2.366288   1.500097   3.034886   3.251504   3.301731
    27  H    2.787932   2.082962   4.088510   4.251048   4.232291
    28  H    3.260311   2.167025   2.948993   3.571624   3.754046
    29  H    2.561223   2.153963   3.194188   3.090135   2.651964
                    6          7          8          9         10
     6  Fe   0.000000
     7  Cl   2.178926   0.000000
     8  C    3.573751   3.988582   0.000000
     9  Cl   2.192789   3.712321   5.592503   0.000000
    10  Cl   2.196067   3.673017   3.650707   3.628877   0.000000
    11  H    5.390537   6.458984   3.477888   6.521762   5.851806
    12  H    4.572232   4.675487   1.099010   6.650246   4.455889
    13  H    3.392139   4.221874   1.090236   5.360030   2.872603
    14  H    3.003173   2.966198   1.094431   5.111942   3.488317
    15  H    5.218604   5.006231   2.726491   6.921696   6.112500
    16  H    3.931726   3.870943   2.822254   5.365478   5.320301
    17  H    5.298957   5.607457   3.478127   6.565613   6.392622
    18  C    5.165955   6.515150   3.080866   6.497449   4.756495
    19  H    6.122821   7.299269   3.546641   7.563970   5.593031
    20  H    5.554006   7.143951   4.045616   6.554301   5.144402
    21  H    4.649728   6.038142   2.762061   6.102565   3.869854
    22  C    3.360281   5.327742   3.996119   3.772101   3.628557
    23  H    4.443403   6.362634   4.583393   4.746893   4.567257
    24  H    3.309794   5.396223   4.840488   3.068751   3.754354
    25  H    3.154679   5.134287   3.581712   3.949545   2.797205
    26  C    4.168838   5.435497   4.378723   4.495160   5.432184
    27  H    4.270572   5.599102   5.237600   4.050294   5.720655
    28  H    5.066164   6.435671   4.843803   5.368240   6.046432
    29  H    4.421382   5.256192   4.290600   4.967774   5.885549
                   11         12         13         14         15
    11  H    0.000000
    12  H    3.958702   0.000000
    13  H    3.804549   1.767735   0.000000
    14  H    4.213256   1.757399   1.773597   0.000000
    15  H    3.416802   2.706062   3.788220   2.816998   0.000000
    16  H    3.433914   3.398343   3.720128   2.534155   1.758238
    17  H    2.331009   3.842832   4.326968   3.721210   1.771116
    18  C    2.201460   3.496188   2.776928   4.068527   4.484961
    19  H    2.643287   3.633982   3.334503   4.620430   4.701640
    20  H    2.487051   4.563085   3.662242   4.954257   5.345584
    21  H    3.105499   3.223649   2.105284   3.700919   4.790024
    22  C    3.442830   5.001607   3.608639   4.328002   5.462442
    23  H    3.194369   5.487532   4.215242   5.090391   5.837426
    24  H    4.436919   5.893891   4.431464   4.990387   6.283048
    25  H    3.800274   4.538026   2.937829   3.973647   5.541700
    26  C    2.774855   5.296689   4.640630   4.525740   4.396105
    27  H    3.852082   6.216294   5.428847   5.241213   5.314801
    28  H    2.400885   5.672061   5.043519   5.198548   4.807759
    29  H    2.858442   5.105699   4.796414   4.327958   3.695378
                   16         17         18         19         20
    16  H    0.000000
    17  H    1.789798   0.000000
    18  C    4.607329   4.123631   0.000000
    19  H    5.194164   4.499392   1.098606   0.000000
    20  H    5.271712   4.686173   1.094982   1.758255   0.000000
    21  H    4.813825   4.715040   1.092857   1.763758   1.771531
    22  C    4.480306   4.698907   3.118920   4.212325   2.874271
    23  H    5.034233   4.868227   2.909467   3.920867   2.316714
    24  H    5.085665   5.485296   4.205350   5.295657   3.884824
    25  H    4.740267   5.098724   2.847693   3.906772   2.779210
    26  C    3.178913   3.054050   4.082158   4.983246   4.035027
    27  H    3.900135   4.005317   5.019053   5.973835   4.857050
    28  H    3.907698   3.292492   3.832172   4.640785   3.578526
    29  H    2.443637   2.287672   4.505153   5.286321   4.660597
                   21         22         23         24         25
    21  H    0.000000
    22  C    3.054802   0.000000
    23  H    3.121572   1.089995   0.000000
    24  H    4.061216   1.100763   1.776444   0.000000
    25  H    2.417673   1.090300   1.797119   1.763344   0.000000
    26  C    4.525087   2.572977   2.739113   2.955479   3.484923
    27  H    5.368123   2.895501   3.125391   2.857925   3.899734
    28  H    4.477044   2.777980   2.497889   3.283237   3.719356
    29  H    4.988674   3.492406   3.730886   3.923531   4.270370
                   26         27         28         29
    26  C    0.000000
    27  H    1.100371   0.000000
    28  H    1.090697   1.773724   0.000000
    29  H    1.089027   1.766981   1.798236   0.000000
 Framework group  C1[X(C8H16Cl3FeO)]
 Deg. of freedom    81
                         Standard orientation:                         
 ---------------------------------------------------------------------
 Center     Atomic      Atomic             Coordinates (Angstroms)
 Number     Number       Type             X           Y           Z
 ---------------------------------------------------------------------
      1          8           0       -0.284007   -0.226234   -0.742128
      2          6           0       -1.097036   -1.181882   -0.619404
      3          6           0       -3.194259    0.001022    0.220173
      4          6           0       -2.436743    1.033557   -0.211897
      5          6           0       -2.506971    1.521480   -1.630376
      6         26           0        1.471126    0.104675    0.051262
      7         17           0        2.105694    1.984830   -0.848772
      8          6           0       -1.572514    1.865636    0.689203
      9         17           0        2.544382   -1.693093   -0.600255
     10         17           0        1.269735    0.176283    2.236902
     11          1           0       -3.860223   -0.466225   -0.504330
     12          1           0       -2.126744    2.770300    0.975969
     13          1           0       -1.271758    1.356876    1.605349
     14          1           0       -0.672154    2.205109    0.167774
     15          1           0       -2.802234    2.578660   -1.637412
     16          1           0       -1.519536    1.470662   -2.104774
     17          1           0       -3.232204    0.966781   -2.232245
     18          6           0       -3.414011   -0.409485    1.650688
     19          1           0       -4.318982    0.075180    2.041920
     20          1           0       -3.572761   -1.488832    1.744462
     21          1           0       -2.587414   -0.128820    2.308185
     22          6           0       -1.020201   -2.090273    0.567967
     23          1           0       -1.913345   -2.705057    0.679429
     24          1           0       -0.163160   -2.754748    0.379203
     25          1           0       -0.806153   -1.541340    1.485360
     26          6           0       -1.770589   -1.688870   -1.860202
     27          1           0       -1.058832   -2.396671   -2.311018
     28          1           0       -2.694017   -2.227875   -1.644855
     29          1           0       -1.940555   -0.889138   -2.579591
 ---------------------------------------------------------------------
 Rotational constants (GHZ):           0.5785835           0.3275309           0.3086070
   427 basis functions,  1056 primitive gaussians,   461 cartesian basis functions
    77 alpha electrons       72 beta electrons
       nuclear repulsion energy      1634.6667643363 Hartrees.
 NAtoms=   29 NActive=   29 NUniq=   29 SFac= 1.00D+00 NAtFMM=   60 NAOKFM=F Big=F
 Nuclear repulsion after empirical dispersion term =     1634.5654658355 Hartrees.
 Initial guess from the checkpoint file:  "checkpoint.chk"
 B after Tr=     0.000000    0.000000    0.000000
         Rot=    1.000000    0.000000    0.000000    0.000000 Ang=   0.00 deg.
 Initial guess <Sx>= 0.0000 <Sy>= 0.0000 <Sz>= 2.5000 <S**2>= 8.7617 S= 2.5019
 EnCoef did     1 forward-backward iterations
 SCF Done:  E(UB97D3) =  -3034.63183852     A.U. after   17 cycles
            NFock= 17  Conv=0.38D-08     -V/T= 2.0019
 <Sx>= 0.0000 <Sy>= 0.0000 <Sz>= 2.5000 <S**2>= 8.7598 S= 2.5016
 <L.S>= 0.000000000000E+00
 Annihilation of the first spin contaminant:
 S**2 before annihilation     8.7598,   after     8.7500
 1\1\GINC-HOLY7C04408\SP\UB97D3\Jul-CC-pVDZ\C8H16Cl3Fe1O1(6)\EKWAN\12-F
 eb-2020\0\\#t pop=none jul-cc-pvdz guess=read ub97d3 empiricaldispersi
 on=gd3bj\\theory_abbreviation b97d3_d3bj\\0,6\O,0,-0.284007,-0.226234,
 -0.742128\C,0,-1.097036,-1.181882,-0.619404\C,0,-3.194259,0.001023,0.2
 20173\C,0,-2.436743,1.033557,-0.211897\C,0,-2.506971,1.52148,-1.630376
 \Fe,0,1.471126,0.104675,0.051262\Cl,0,2.105694,1.98483,-0.848772\C,0,-
 1.572514,1.865636,0.689203\Cl,0,2.544382,-1.693093,-0.600255\Cl,0,1.26
 9735,0.176283,2.236902\H,0,-3.860223,-0.466224,-0.50433\H,0,-2.126744,
 2.7703,0.975969\H,0,-1.271758,1.356876,1.605349\H,0,-0.672154,2.205109
 ,0.167774\H,0,-2.802234,2.57866,-1.637412\H,0,-1.519536,1.470662,-2.10
 4774\H,0,-3.232204,0.966782,-2.232245\C,0,-3.414011,-0.409484,1.650688
 \H,0,-4.318982,0.075181,2.04192\H,0,-3.572761,-1.488831,1.744462\H,0,-
 2.587414,-0.12882,2.308185\C,0,-1.020201,-2.090273,0.567967\H,0,-1.913
 345,-2.705057,0.679429\H,0,-0.16316,-2.754748,0.379203\H,0,-0.806153,-
 1.54134,1.48536\C,0,-1.770589,-1.68887,-1.860202\H,0,-1.058832,-2.3966
 71,-2.311018\H,0,-2.694017,-2.227875,-1.644855\H,0,-1.940555,-0.889138
 ,-2.579591\\Version=ES64L-G16RevA.03\HF=-3034.6318385\S2=8.759818\S2-1
 =0.\S2A=8.75003\RMSD=3.816e-09\PG=C01 [X(C8H16Cl3Fe1O1)]\\@


 A people that values its privileges above its principles soon loses both.
 -- Dwight D. Eisenhower
 Job cpu time:       0 days  0 hours 52 minutes 25.8 seconds.
 Elapsed time:       0 days  0 hours 13 minutes  9.3 seconds.
 File lengths (MBytes):  RWF=    174 Int=      0 D2E=      0 Chk=     13 Scr=      1
 Normal termination of Gaussian 16 at Wed Feb 12 00:25:50 2020.
