 Entering Gaussian System, Link 0=g16
 Input=simple-grid-175-275-b3lyp_d3bj-631gd-gas-singlepoint-DFT-juldz2-gas.gjf
 Output=simple-grid-175-275-b3lyp_d3bj-631gd-gas-singlepoint-DFT-juldz2-gas.out
 Initial command:
 /n/sw/g16_nehalem/g16/l1.exe "/scratch/Gau-323933.inp" -scrdir="/scratch/"
 Entering Link 1 = /n/sw/g16_nehalem/g16/l1.exe PID=    323939.
  
 Copyright (c) 1988,1990,1992,1993,1995,1998,2003,2009,2016,
            Gaussian, Inc.  All Rights Reserved.
  
 This is part of the Gaussian(R) 16 program.  It is based on
 the Gaussian(R) 09 system (copyright 2009, Gaussian, Inc.),
 the Gaussian(R) 03 system (copyright 2003, Gaussian, Inc.),
 the Gaussian(R) 98 system (copyright 1998, Gaussian, Inc.),
 the Gaussian(R) 94 system (copyright 1995, Gaussian, Inc.),
 the Gaussian 92(TM) system (copyright 1992, Gaussian, Inc.),
 the Gaussian 90(TM) system (copyright 1990, Gaussian, Inc.),
 the Gaussian 88(TM) system (copyright 1988, Gaussian, Inc.),
 the Gaussian 86(TM) system (copyright 1986, Carnegie Mellon
 University), and the Gaussian 82(TM) system (copyright 1983,
 Carnegie Mellon University). Gaussian is a federally registered
 trademark of Gaussian, Inc.
  
 This software contains proprietary and confidential information,
 including trade secrets, belonging to Gaussian, Inc.
  
 This software is provided under written license and may be
 used, copied, transmitted, or stored only in accord with that
 written license.
  
 The following legend is applicable only to US Government
 contracts under FAR:
  
                    RESTRICTED RIGHTS LEGEND
  
 Use, reproduction and disclosure by the US Government is
 subject to restrictions as set forth in subparagraphs (a)
 and (c) of the Commercial Computer Software - Restricted
 Rights clause in FAR 52.227-19.
  
 Gaussian, Inc.
 340 Quinnipiac St., Bldg. 40, Wallingford CT 06492
  
  
 ---------------------------------------------------------------
 Warning -- This program may not be used in any manner that
 competes with the business of Gaussian, Inc. or will provide
 assistance to any competitor of Gaussian, Inc.  The licensee
 of this program is prohibited from giving any competitor of
 Gaussian, Inc. access to this program.  By using this program,
 the user acknowledges that Gaussian, Inc. is engaged in the
 business of creating and licensing software in the field of
 computational chemistry and represents and warrants to the
 licensee that it is not a competitor of Gaussian, Inc. and that
 it will not use this program in any manner prohibited above.
 ---------------------------------------------------------------
  

 Cite this work as:
 Gaussian 16, Revision A.03,
 M. J. Frisch, G. W. Trucks, H. B. Schlegel, G. E. Scuseria, 
 M. A. Robb, J. R. Cheeseman, G. Scalmani, V. Barone, 
 G. A. Petersson, H. Nakatsuji, X. Li, M. Caricato, A. V. Marenich, 
 J. Bloino, B. G. Janesko, R. Gomperts, B. Mennucci, H. P. Hratchian, 
 J. V. Ortiz, A. F. Izmaylov, J. L. Sonnenberg, D. Williams-Young, 
 F. Ding, F. Lipparini, F. Egidi, J. Goings, B. Peng, A. Petrone, 
 T. Henderson, D. Ranasinghe, V. G. Zakrzewski, J. Gao, N. Rega, 
 G. Zheng, W. Liang, M. Hada, M. Ehara, K. Toyota, R. Fukuda, 
 J. Hasegawa, M. Ishida, T. Nakajima, Y. Honda, O. Kitao, H. Nakai, 
 T. Vreven, K. Throssell, J. A. Montgomery, Jr., J. E. Peralta, 
 F. Ogliaro, M. J. Bearpark, J. J. Heyd, E. N. Brothers, K. N. Kudin, 
 V. N. Staroverov, T. A. Keith, R. Kobayashi, J. Normand, 
 K. Raghavachari, A. P. Rendell, J. C. Burant, S. S. Iyengar, 
 J. Tomasi, M. Cossi, J. M. Millam, M. Klene, C. Adamo, R. Cammi, 
 J. W. Ochterski, R. L. Martin, K. Morokuma, O. Farkas, 
 J. B. Foresman, and D. J. Fox, Gaussian, Inc., Wallingford CT, 2016.
 
 ******************************************
 Gaussian 16:  ES64L-G16RevA.03 25-Dec-2016
                11-Feb-2020 
 ******************************************
 %chk=checkpoint.chk
 %mem=3GB
 %nprocshared=4
 Will use up to    4 processors via shared memory.
 --------------------------------
 #t pop=none jul-cc-pvdz upbe1pbe
 --------------------------------
 ------------------------
 theory_abbreviation pbe0
 ------------------------
 Symbolic Z-matrix:
 Charge =  0 Multiplicity = 6
 O                    -0.33534  -0.09647  -0.41616 
 C                    -1.24238  -1.06988  -0.25527 
 C                    -2.53905  -0.41187   0.71848 
 C                    -2.93506   0.71992  -0.04544 
 C                    -4.02518   0.62965  -1.05088 
 Fe                    1.48819   0.17349  -0.08424 
 Cl                    1.77194   2.22821  -0.83249 
 C                    -2.17469   1.96094   0.03881 
 Cl                    2.53981  -1.42145  -1.17679 
 Cl                    1.79082   0.04479   2.10673 
 H                    -3.2831   -1.21086   0.68403 
 H                    -2.58631   2.7836   -0.54712 
 H                    -1.94587   2.26891   1.06265 
 H                    -1.18066   1.65407  -0.37778 
 H                    -4.8595    1.24794  -0.6843 
 H                    -3.72098   1.07285  -2.007 
 H                    -4.391    -0.3864   -1.20349 
 C                    -2.00393  -0.143     2.12792 
 H                    -2.67935   0.52814   2.66852 
 H                    -1.94284  -1.07454   2.6923 
 H                    -1.00728   0.30268   2.10718 
 C                    -0.73657  -2.25843   0.57669 
 H                    -1.53838  -2.96624   0.80677 
 H                     0.01772  -2.76681  -0.03367 
 H                    -0.25133  -1.93287   1.49654 
 C                    -1.79119  -1.54677  -1.60318 
 H                    -0.9849   -2.088    -2.10772 
 H                    -2.64458  -2.22372  -1.49187 
 H                    -2.067    -0.70748  -2.24483 
 
                    Distance matrix (angstroms):
                    1          2          3          4          5
     1  O    0.000000
     2  C    1.340200   0.000000
     3  C    2.498642   1.749999   0.000000
     4  C    2.750002   2.472366   1.421746   0.000000
     5  C    3.813796   3.356386   2.534554   1.485732   0.000000
     6  Fe   1.873042   3.005200   4.147967   4.457044   5.616017
     7  Cl   3.165131   4.505180   5.287730   5.005018   6.017440
     8  C    2.796989   3.184576   2.494981   1.457867   2.526666
     9  Cl   3.255849   3.908673   5.514164   5.986617   6.879086
    10  Cl   3.302341   4.002730   4.569851   5.236567   6.643672
    11  H    3.337901   2.250931   1.092330   2.093131   2.635920
    12  H    3.657707   4.091525   3.437291   2.152218   2.638863
    13  H    3.221134   3.657773   2.767110   2.146092   3.387871
    14  H    1.944336   2.727401   2.704645   2.015194   3.097383
    15  H    4.727300   4.317390   3.179187   2.095324   1.101251
    16  H    3.919265   3.715273   3.321079   2.142409   1.096872
    17  H    4.141542   3.358581   2.669142   2.164431   1.090626
    18  C    3.042805   2.668077   1.531395   2.516973   3.845412
    19  H    3.924252   3.628648   2.169327   2.732721   3.956703
    20  H    3.633617   3.029659   2.165775   3.420506   4.609968
    21  H    2.641599   2.742327   2.187551   2.919623   4.380400
    22  C    2.412635   1.536446   2.584337   3.753800   4.669573
    23  H    3.343415   2.193565   2.744796   4.032960   4.750304
    24  H    2.720597   2.125216   3.556475   4.569068   5.377330
    25  H    2.652893   2.189931   2.855260   4.076457   5.224732
    26  C    2.373166   1.531493   2.690233   2.978740   3.167416
    27  H    2.692486   2.129417   3.634851   3.992560   4.212576
    28  H    3.318881   2.196976   2.859994   3.292654   3.200347
    29  H    2.591536   2.183961   3.015196   2.761943   2.654784
                    6          7          8          9         10
     6  Fe   0.000000
     7  Cl   2.205049   0.000000
     8  C    4.077595   4.050489   0.000000
     9  Cl   2.200768   3.745413   5.928293   0.000000
    10  Cl   2.215515   3.661515   4.865512   3.673188   0.000000
    11  H    5.027112   6.299239   3.421286   6.116633   5.417138
    12  H    4.860909   4.402751   1.090643   6.660024   5.805449
    13  H    4.183168   4.173165   1.093368   6.225358   4.472102
    14  H    3.066109   3.042075   1.120627   4.892758   4.194311
    15  H    6.465881   6.705133   2.870443   7.881487   7.311917
    16  H    5.625053   5.734666   2.713857   6.790297   6.954104
    17  H    6.010911   6.704893   3.459089   7.007720   7.025551
    18  C    4.145922   5.351989   2.969866   5.762029   3.799449
    19  H    5.007177   5.912802   3.036936   6.769551   4.531184
    20  H    4.586794   6.093588   4.038430   5.931630   3.941569
    21  H    3.323609   4.480329   2.896689   5.132141   2.809963
    22  C    3.361641   5.329945   4.490052   3.809184   3.746137
    23  H    4.451060   6.373981   5.027097   4.790877   4.673304
    24  H    3.287885   5.354022   5.211862   3.078576   3.953511
    25  H    3.156192   5.180015   4.581058   3.898543   2.907549
    26  C    4.002601   5.247887   3.891942   4.353742   5.396972
    27  H    3.914707   5.277872   4.734663   3.706002   5.478590
    28  H    4.980747   6.305558   4.480527   5.255551   6.145639
    29  H    4.252488   5.034920   3.513838   4.782589   5.863856
                   11         12         13         14         15
    11  H    0.000000
    12  H    4.237562   0.000000
    13  H    3.747043   1.807318   0.000000
    14  H    3.708844   1.811175   1.743098   0.000000
    15  H    3.225376   2.746716   3.547311   3.713860   0.000000
    16  H    3.556503   2.519004   3.742229   3.073336   1.753975
    17  H    2.338784   3.706289   4.262001   3.892506   1.777662
    18  C    2.204862   4.007487   2.637326   3.191509   4.242353
    19  H    2.706815   3.928874   2.479332   3.576827   4.063565
    20  H    2.418271   5.078691   3.719468   4.177510   5.030134
    21  H    3.081477   3.961506   2.416204   2.833954   4.850299
    22  C    2.755670   5.486940   4.711195   4.051653   5.557268
    23  H    2.477990   5.999311   5.257212   4.783133   5.568872
    24  H    3.719068   6.152365   5.515075   4.593333   6.350494
    25  H    3.220734   5.645687   4.551345   4.152457   6.009066
    26  C    2.751351   4.527645   4.657249   3.481346   4.250792
    27  H    3.720879   5.360262   5.473326   4.127238   5.307268
    28  H    2.483572   5.095994   5.215119   4.292033   4.196476
    29  H    3.211000   3.916572   4.451178   3.138222   3.749260
                   16         17         18         19         20
    16  H    0.000000
    17  H    1.795541   0.000000
    18  C    4.639406   4.105558   0.000000
    19  H    4.821014   4.331115   1.094933   0.000000
    20  H    5.464108   4.652333   1.090883   1.763975   0.000000
    21  H    4.988359   4.783812   1.091954   1.778127   1.764758
    22  C    5.165225   4.475311   2.913334   3.989372   2.707850
    23  H    5.384720   4.339831   3.151637   4.120508   2.701355
    24  H    5.710943   5.145065   3.955231   5.043082   3.760111
    25  H    5.774741   5.178673   2.583388   3.650401   2.242272
    26  C    3.278650   2.874932   3.992103   4.831302   4.324016
    27  H    4.181770   3.913391   4.770955   5.703312   4.998489
    28  H    3.505900   2.551255   4.224061   4.988266   4.395492
    29  H    2.441671   2.566802   4.409484   5.103210   4.952315
                   21         22         23         24         25
    21  H    0.000000
    22  C    2.995824   0.000000
    23  H    3.557944   1.093996   0.000000
    24  H    3.880156   1.095420   1.779766   0.000000
    25  H    2.437635   1.089756   1.788894   1.763337   0.000000
    26  C    4.219209   2.523988   2.808314   2.687755   3.482601
    27  H    4.845738   2.701253   3.093846   2.401608   3.681420
    28  H    4.692186   2.814370   2.656833   3.083697   3.839646
    29  H    4.591669   3.483748   3.833235   3.670990   4.335452
                   26         27         28         29
    26  C    0.000000
    27  H    1.094347   0.000000
    28  H    1.094952   1.775456   0.000000
    29  H    1.091881   1.759425   1.788722   0.000000
 Framework group  C1[X(C8H16Cl3FeO)]
 Deg. of freedom    81
                         Standard orientation:                         
 ---------------------------------------------------------------------
 Center     Atomic      Atomic             Coordinates (Angstroms)
 Number     Number       Type             X           Y           Z
 ---------------------------------------------------------------------
      1          8           0       -0.335337   -0.096471   -0.416157
      2          6           0       -1.242382   -1.069878   -0.255272
      3          6           0       -2.539048   -0.411872    0.718475
      4          6           0       -2.935064    0.719924   -0.045444
      5          6           0       -4.025177    0.629648   -1.050881
      6         26           0        1.488187    0.173492   -0.084242
      7         17           0        1.771935    2.228206   -0.832493
      8          6           0       -2.174692    1.960937    0.038805
      9         17           0        2.539805   -1.421445   -1.176787
     10         17           0        1.790819    0.044790    2.106730
     11          1           0       -3.283099   -1.210863    0.684030
     12          1           0       -2.586312    2.783595   -0.547118
     13          1           0       -1.945874    2.268909    1.062645
     14          1           0       -1.180661    1.654071   -0.377776
     15          1           0       -4.859499    1.247935   -0.684300
     16          1           0       -3.720976    1.072847   -2.007001
     17          1           0       -4.391003   -0.386397   -1.203485
     18          6           0       -2.003927   -0.143002    2.127916
     19          1           0       -2.679348    0.528141    2.668519
     20          1           0       -1.942835   -1.074541    2.692299
     21          1           0       -1.007284    0.302683    2.107176
     22          6           0       -0.736572   -2.258430    0.576693
     23          1           0       -1.538384   -2.966237    0.806769
     24          1           0        0.017722   -2.766808   -0.033665
     25          1           0       -0.251325   -1.932874    1.496539
     26          6           0       -1.791194   -1.546774   -1.603177
     27          1           0       -0.984898   -2.087997   -2.107717
     28          1           0       -2.644584   -2.223720   -1.491872
     29          1           0       -2.067004   -0.707482   -2.244833
 ---------------------------------------------------------------------
 Rotational constants (GHZ):           0.5994951           0.3161835           0.3013209
   427 basis functions,  1056 primitive gaussians,   461 cartesian basis functions
    77 alpha electrons       72 beta electrons
       nuclear repulsion energy      1637.4149615716 Hartrees.
 NAtoms=   29 NActive=   29 NUniq=   29 SFac= 1.00D+00 NAtFMM=   60 NAOKFM=F Big=F
 ExpMin= 1.40D-02 ExpMax= 4.32D+06 ExpMxC= 4.91D+03 IAcc=3 IRadAn=         5 AccDes= 0.00D+00
 Harris functional with IExCor= 1009 and IRadAn=       5 diagonalized for initial guess.
 HarFok:  IExCor= 1009 AccDes= 0.00D+00 IRadAn=         5 IDoV= 1 UseB2=F ITyADJ=14
 ICtDFT=  3500011 ScaDFX=  1.000000  1.000000  1.000000  1.000000
 FoFCou: FMM=F IPFlag=           0 FMFlag=      100000 FMFlg1=           0
         NFxFlg=           0 DoJE=T BraDBF=F KetDBF=T FulRan=T
         wScrn=  0.000000 ICntrl=       500 IOpCl=  0 I1Cent=   200000004 NGrid=           0
         NMat0=    1 NMatS0=      1 NMatT0=    0 NMatD0=    1 NMtDS0=    0 NMtDT0=    0
 Petite list used in FoFCou.
 Initial guess <Sx>= 0.0000 <Sy>= 0.0000 <Sz>= 2.5000 <S**2>= 8.7500 S= 2.5000
 EnCoef did     5 forward-backward iterations
 EnCoef did     6 forward-backward iterations
 Restarting incremental Fock formation.
 SCF Done:  E(UPBE1PBE) =  -3033.11178066     A.U. after   21 cycles
            NFock= 21  Conv=0.71D-08     -V/T= 2.0021
 <Sx>= 0.0000 <Sy>= 0.0000 <Sz>= 2.5000 <S**2>= 8.7626 S= 2.5021
 <L.S>= 0.000000000000E+00
 Annihilation of the first spin contaminant:
 S**2 before annihilation     8.7626,   after     8.7500
 1\1\GINC-HOLY7C04510\SP\UPBE1PBE\Jul-CC-pVDZ\C8H16Cl3Fe1O1(6)\EKWAN\11
 -Feb-2020\0\\#t pop=none jul-cc-pvdz upbe1pbe\\theory_abbreviation pbe
 0\\0,6\O,0,-0.335337,-0.096471,-0.416157\C,0,-1.242382,-1.069878,-0.25
 5272\C,0,-2.539048,-0.411872,0.718475\C,0,-2.935064,0.719924,-0.045444
 \C,0,-4.025177,0.629648,-1.050881\Fe,0,1.488187,0.173492,-0.084242\Cl,
 0,1.771935,2.228206,-0.832493\C,0,-2.174692,1.960937,0.038805\Cl,0,2.5
 39805,-1.421445,-1.176787\Cl,0,1.790819,0.04479,2.10673\H,0,-3.283099,
 -1.210863,0.68403\H,0,-2.586312,2.783595,-0.547118\H,0,-1.945874,2.268
 909,1.062645\H,0,-1.180661,1.654071,-0.377776\H,0,-4.859499,1.247935,-
 0.6843\H,0,-3.720976,1.072847,-2.007001\H,0,-4.391003,-0.386397,-1.203
 485\C,0,-2.003927,-0.143002,2.127916\H,0,-2.679348,0.528141,2.668519\H
 ,0,-1.942835,-1.074541,2.692299\H,0,-1.007284,0.302683,2.107176\C,0,-0
 .736572,-2.25843,0.576693\H,0,-1.538384,-2.966237,0.806769\H,0,0.01772
 2,-2.766808,-0.033665\H,0,-0.251325,-1.932874,1.496539\C,0,-1.791194,-
 1.546774,-1.603177\H,0,-0.984898,-2.087997,-2.107717\H,0,-2.644584,-2.
 22372,-1.491872\H,0,-2.067004,-0.707482,-2.244833\\Version=ES64L-G16Re
 vA.03\HF=-3033.1117807\S2=8.762628\S2-1=0.\S2A=8.75005\RMSD=7.107e-09\
 PG=C01 [X(C8H16Cl3Fe1O1)]\\@


 At the touch of love, everyone becomves a poet.
                                -- Plato
 Job cpu time:       0 days  1 hours 35 minutes 10.1 seconds.
 Elapsed time:       0 days  0 hours 23 minutes 51.3 seconds.
 File lengths (MBytes):  RWF=    173 Int=      0 D2E=      0 Chk=     13 Scr=      1
 Normal termination of Gaussian 16 at Tue Feb 11 13:59:09 2020.
 Initial command:
 /n/sw/g16_nehalem/g16/l1.exe "/scratch/Gau-323933.inp" -scrdir="/scratch/"
 Entering Link 1 = /n/sw/g16_nehalem/g16/l1.exe PID=    326791.
  
 Copyright (c) 1988,1990,1992,1993,1995,1998,2003,2009,2016,
            Gaussian, Inc.  All Rights Reserved.
  
 This is part of the Gaussian(R) 16 program.  It is based on
 the Gaussian(R) 09 system (copyright 2009, Gaussian, Inc.),
 the Gaussian(R) 03 system (copyright 2003, Gaussian, Inc.),
 the Gaussian(R) 98 system (copyright 1998, Gaussian, Inc.),
 the Gaussian(R) 94 system (copyright 1995, Gaussian, Inc.),
 the Gaussian 92(TM) system (copyright 1992, Gaussian, Inc.),
 the Gaussian 90(TM) system (copyright 1990, Gaussian, Inc.),
 the Gaussian 88(TM) system (copyright 1988, Gaussian, Inc.),
 the Gaussian 86(TM) system (copyright 1986, Carnegie Mellon
 University), and the Gaussian 82(TM) system (copyright 1983,
 Carnegie Mellon University). Gaussian is a federally registered
 trademark of Gaussian, Inc.
  
 This software contains proprietary and confidential information,
 including trade secrets, belonging to Gaussian, Inc.
  
 This software is provided under written license and may be
 used, copied, transmitted, or stored only in accord with that
 written license.
  
 The following legend is applicable only to US Government
 contracts under FAR:
  
                    RESTRICTED RIGHTS LEGEND
  
 Use, reproduction and disclosure by the US Government is
 subject to restrictions as set forth in subparagraphs (a)
 and (c) of the Commercial Computer Software - Restricted
 Rights clause in FAR 52.227-19.
  
 Gaussian, Inc.
 340 Quinnipiac St., Bldg. 40, Wallingford CT 06492
  
  
 ---------------------------------------------------------------
 Warning -- This program may not be used in any manner that
 competes with the business of Gaussian, Inc. or will provide
 assistance to any competitor of Gaussian, Inc.  The licensee
 of this program is prohibited from giving any competitor of
 Gaussian, Inc. access to this program.  By using this program,
 the user acknowledges that Gaussian, Inc. is engaged in the
 business of creating and licensing software in the field of
 computational chemistry and represents and warrants to the
 licensee that it is not a competitor of Gaussian, Inc. and that
 it will not use this program in any manner prohibited above.
 ---------------------------------------------------------------
  

 Cite this work as:
 Gaussian 16, Revision A.03,
 M. J. Frisch, G. W. Trucks, H. B. Schlegel, G. E. Scuseria, 
 M. A. Robb, J. R. Cheeseman, G. Scalmani, V. Barone, 
 G. A. Petersson, H. Nakatsuji, X. Li, M. Caricato, A. V. Marenich, 
 J. Bloino, B. G. Janesko, R. Gomperts, B. Mennucci, H. P. Hratchian, 
 J. V. Ortiz, A. F. Izmaylov, J. L. Sonnenberg, D. Williams-Young, 
 F. Ding, F. Lipparini, F. Egidi, J. Goings, B. Peng, A. Petrone, 
 T. Henderson, D. Ranasinghe, V. G. Zakrzewski, J. Gao, N. Rega, 
 G. Zheng, W. Liang, M. Hada, M. Ehara, K. Toyota, R. Fukuda, 
 J. Hasegawa, M. Ishida, T. Nakajima, Y. Honda, O. Kitao, H. Nakai, 
 T. Vreven, K. Throssell, J. A. Montgomery, Jr., J. E. Peralta, 
 F. Ogliaro, M. J. Bearpark, J. J. Heyd, E. N. Brothers, K. N. Kudin, 
 V. N. Staroverov, T. A. Keith, R. Kobayashi, J. Normand, 
 K. Raghavachari, A. P. Rendell, J. C. Burant, S. S. Iyengar, 
 J. Tomasi, M. Cossi, J. M. Millam, M. Klene, C. Adamo, R. Cammi, 
 J. W. Ochterski, R. L. Martin, K. Morokuma, O. Farkas, 
 J. B. Foresman, and D. J. Fox, Gaussian, Inc., Wallingford CT, 2016.
 
 ******************************************
 Gaussian 16:  ES64L-G16RevA.03 25-Dec-2016
                11-Feb-2020 
 ******************************************
 %chk=checkpoint.chk
 %mem=3GB
 %nprocshared=4
 Will use up to    4 processors via shared memory.
 ---------------------------------------------------------------------
 #t pop=none jul-cc-pvdz guess=read upbe1pbe empiricaldispersion=gd3bj
 ---------------------------------------------------------------------
 -----------------------------
 theory_abbreviation pbe0_d3bj
 -----------------------------
 Symbolic Z-matrix:
 Charge =  0 Multiplicity = 6
 O                    -0.33534  -0.09647  -0.41616 
 C                    -1.24238  -1.06988  -0.25527 
 C                    -2.53905  -0.41187   0.71848 
 C                    -2.93506   0.71992  -0.04544 
 C                    -4.02518   0.62965  -1.05088 
 Fe                    1.48819   0.17349  -0.08424 
 Cl                    1.77194   2.22821  -0.83249 
 C                    -2.17469   1.96094   0.03881 
 Cl                    2.53981  -1.42145  -1.17679 
 Cl                    1.79082   0.04479   2.10673 
 H                    -3.2831   -1.21086   0.68403 
 H                    -2.58631   2.7836   -0.54712 
 H                    -1.94587   2.26891   1.06265 
 H                    -1.18066   1.65407  -0.37778 
 H                    -4.8595    1.24794  -0.6843 
 H                    -3.72098   1.07285  -2.007 
 H                    -4.391    -0.3864   -1.20349 
 C                    -2.00393  -0.143     2.12792 
 H                    -2.67935   0.52814   2.66852 
 H                    -1.94284  -1.07454   2.6923 
 H                    -1.00728   0.30268   2.10718 
 C                    -0.73657  -2.25843   0.57669 
 H                    -1.53838  -2.96624   0.80677 
 H                     0.01772  -2.76681  -0.03367 
 H                    -0.25133  -1.93287   1.49654 
 C                    -1.79119  -1.54677  -1.60318 
 H                    -0.9849   -2.088    -2.10772 
 H                    -2.64458  -2.22372  -1.49187 
 H                    -2.067    -0.70748  -2.24483 
 
                    Distance matrix (angstroms):
                    1          2          3          4          5
     1  O    0.000000
     2  C    1.340200   0.000000
     3  C    2.498642   1.749999   0.000000
     4  C    2.750002   2.472366   1.421746   0.000000
     5  C    3.813796   3.356386   2.534554   1.485732   0.000000
     6  Fe   1.873042   3.005200   4.147967   4.457044   5.616017
     7  Cl   3.165131   4.505180   5.287730   5.005018   6.017440
     8  C    2.796989   3.184576   2.494981   1.457867   2.526666
     9  Cl   3.255849   3.908673   5.514164   5.986617   6.879086
    10  Cl   3.302341   4.002730   4.569851   5.236567   6.643672
    11  H    3.337901   2.250931   1.092330   2.093131   2.635920
    12  H    3.657707   4.091525   3.437291   2.152218   2.638863
    13  H    3.221134   3.657773   2.767110   2.146092   3.387871
    14  H    1.944336   2.727401   2.704645   2.015194   3.097383
    15  H    4.727300   4.317390   3.179187   2.095324   1.101251
    16  H    3.919265   3.715273   3.321079   2.142409   1.096872
    17  H    4.141542   3.358581   2.669142   2.164431   1.090626
    18  C    3.042805   2.668077   1.531395   2.516973   3.845412
    19  H    3.924252   3.628648   2.169327   2.732721   3.956703
    20  H    3.633617   3.029659   2.165775   3.420506   4.609968
    21  H    2.641599   2.742327   2.187551   2.919623   4.380400
    22  C    2.412635   1.536446   2.584337   3.753800   4.669573
    23  H    3.343415   2.193565   2.744796   4.032960   4.750304
    24  H    2.720597   2.125216   3.556475   4.569068   5.377330
    25  H    2.652893   2.189931   2.855260   4.076457   5.224732
    26  C    2.373166   1.531493   2.690233   2.978740   3.167416
    27  H    2.692486   2.129417   3.634851   3.992560   4.212576
    28  H    3.318881   2.196976   2.859994   3.292654   3.200347
    29  H    2.591536   2.183961   3.015196   2.761943   2.654784
                    6          7          8          9         10
     6  Fe   0.000000
     7  Cl   2.205049   0.000000
     8  C    4.077595   4.050489   0.000000
     9  Cl   2.200768   3.745413   5.928293   0.000000
    10  Cl   2.215515   3.661515   4.865512   3.673188   0.000000
    11  H    5.027112   6.299239   3.421286   6.116633   5.417138
    12  H    4.860909   4.402751   1.090643   6.660024   5.805449
    13  H    4.183168   4.173165   1.093368   6.225358   4.472102
    14  H    3.066109   3.042075   1.120627   4.892758   4.194311
    15  H    6.465881   6.705133   2.870443   7.881487   7.311917
    16  H    5.625053   5.734666   2.713857   6.790297   6.954104
    17  H    6.010911   6.704893   3.459089   7.007720   7.025551
    18  C    4.145922   5.351989   2.969866   5.762029   3.799449
    19  H    5.007177   5.912802   3.036936   6.769551   4.531184
    20  H    4.586794   6.093588   4.038430   5.931630   3.941569
    21  H    3.323609   4.480329   2.896689   5.132141   2.809963
    22  C    3.361641   5.329945   4.490052   3.809184   3.746137
    23  H    4.451060   6.373981   5.027097   4.790877   4.673304
    24  H    3.287885   5.354022   5.211862   3.078576   3.953511
    25  H    3.156192   5.180015   4.581058   3.898543   2.907549
    26  C    4.002601   5.247887   3.891942   4.353742   5.396972
    27  H    3.914707   5.277872   4.734663   3.706002   5.478590
    28  H    4.980747   6.305558   4.480527   5.255551   6.145639
    29  H    4.252488   5.034920   3.513838   4.782589   5.863856
                   11         12         13         14         15
    11  H    0.000000
    12  H    4.237562   0.000000
    13  H    3.747043   1.807318   0.000000
    14  H    3.708844   1.811175   1.743098   0.000000
    15  H    3.225376   2.746716   3.547311   3.713860   0.000000
    16  H    3.556503   2.519004   3.742229   3.073336   1.753975
    17  H    2.338784   3.706289   4.262001   3.892506   1.777662
    18  C    2.204862   4.007487   2.637326   3.191509   4.242353
    19  H    2.706815   3.928874   2.479332   3.576827   4.063565
    20  H    2.418271   5.078691   3.719468   4.177510   5.030134
    21  H    3.081477   3.961506   2.416204   2.833954   4.850299
    22  C    2.755670   5.486940   4.711195   4.051653   5.557268
    23  H    2.477990   5.999311   5.257212   4.783133   5.568872
    24  H    3.719068   6.152365   5.515075   4.593333   6.350494
    25  H    3.220734   5.645687   4.551345   4.152457   6.009066
    26  C    2.751351   4.527645   4.657249   3.481346   4.250792
    27  H    3.720879   5.360262   5.473326   4.127238   5.307268
    28  H    2.483572   5.095994   5.215119   4.292033   4.196476
    29  H    3.211000   3.916572   4.451178   3.138222   3.749260
                   16         17         18         19         20
    16  H    0.000000
    17  H    1.795541   0.000000
    18  C    4.639406   4.105558   0.000000
    19  H    4.821014   4.331115   1.094933   0.000000
    20  H    5.464108   4.652333   1.090883   1.763975   0.000000
    21  H    4.988359   4.783812   1.091954   1.778127   1.764758
    22  C    5.165225   4.475311   2.913334   3.989372   2.707850
    23  H    5.384720   4.339831   3.151637   4.120508   2.701355
    24  H    5.710943   5.145065   3.955231   5.043082   3.760111
    25  H    5.774741   5.178673   2.583388   3.650401   2.242272
    26  C    3.278650   2.874932   3.992103   4.831302   4.324016
    27  H    4.181770   3.913391   4.770955   5.703312   4.998489
    28  H    3.505900   2.551255   4.224061   4.988266   4.395492
    29  H    2.441671   2.566802   4.409484   5.103210   4.952315
                   21         22         23         24         25
    21  H    0.000000
    22  C    2.995824   0.000000
    23  H    3.557944   1.093996   0.000000
    24  H    3.880156   1.095420   1.779766   0.000000
    25  H    2.437635   1.089756   1.788894   1.763337   0.000000
    26  C    4.219209   2.523988   2.808314   2.687755   3.482601
    27  H    4.845738   2.701253   3.093846   2.401608   3.681420
    28  H    4.692186   2.814370   2.656833   3.083697   3.839646
    29  H    4.591669   3.483748   3.833235   3.670990   4.335452
                   26         27         28         29
    26  C    0.000000
    27  H    1.094347   0.000000
    28  H    1.094952   1.775456   0.000000
    29  H    1.091881   1.759425   1.788722   0.000000
 Framework group  C1[X(C8H16Cl3FeO)]
 Deg. of freedom    81
                         Standard orientation:                         
 ---------------------------------------------------------------------
 Center     Atomic      Atomic             Coordinates (Angstroms)
 Number     Number       Type             X           Y           Z
 ---------------------------------------------------------------------
      1          8           0       -0.335337   -0.096471   -0.416157
      2          6           0       -1.242382   -1.069878   -0.255272
      3          6           0       -2.539048   -0.411872    0.718475
      4          6           0       -2.935064    0.719924   -0.045444
      5          6           0       -4.025177    0.629648   -1.050881
      6         26           0        1.488187    0.173492   -0.084242
      7         17           0        1.771935    2.228206   -0.832493
      8          6           0       -2.174692    1.960937    0.038805
      9         17           0        2.539805   -1.421445   -1.176787
     10         17           0        1.790819    0.044790    2.106730
     11          1           0       -3.283099   -1.210863    0.684030
     12          1           0       -2.586312    2.783595   -0.547118
     13          1           0       -1.945874    2.268909    1.062645
     14          1           0       -1.180661    1.654071   -0.377776
     15          1           0       -4.859499    1.247935   -0.684300
     16          1           0       -3.720976    1.072847   -2.007001
     17          1           0       -4.391003   -0.386397   -1.203485
     18          6           0       -2.003927   -0.143002    2.127916
     19          1           0       -2.679348    0.528141    2.668519
     20          1           0       -1.942835   -1.074541    2.692299
     21          1           0       -1.007284    0.302683    2.107176
     22          6           0       -0.736572   -2.258430    0.576693
     23          1           0       -1.538384   -2.966237    0.806769
     24          1           0        0.017722   -2.766808   -0.033665
     25          1           0       -0.251325   -1.932874    1.496539
     26          6           0       -1.791194   -1.546774   -1.603177
     27          1           0       -0.984898   -2.087997   -2.107717
     28          1           0       -2.644584   -2.223720   -1.491872
     29          1           0       -2.067004   -0.707482   -2.244833
 ---------------------------------------------------------------------
 Rotational constants (GHZ):           0.5994951           0.3161835           0.3013209
   427 basis functions,  1056 primitive gaussians,   461 cartesian basis functions
    77 alpha electrons       72 beta electrons
       nuclear repulsion energy      1637.4149615716 Hartrees.
 NAtoms=   29 NActive=   29 NUniq=   29 SFac= 1.00D+00 NAtFMM=   60 NAOKFM=F Big=F
 Nuclear repulsion after empirical dispersion term =     1637.3787603236 Hartrees.
 Initial guess from the checkpoint file:  "checkpoint.chk"
 B after Tr=     0.000000    0.000000    0.000000
         Rot=    1.000000    0.000000    0.000000    0.000000 Ang=   0.00 deg.
 Initial guess <Sx>= 0.0000 <Sy>= 0.0000 <Sz>= 2.5000 <S**2>= 8.7626 S= 2.5021
 SCF Done:  E(UPBE1PBE) =  -3033.14798190     A.U. after    1 cycles
            NFock=  1  Conv=0.32D-08     -V/T= 2.0021
 <Sx>= 0.0000 <Sy>= 0.0000 <Sz>= 2.5000 <S**2>= 8.7626 S= 2.5021
 <L.S>= 0.000000000000E+00
 Annihilation of the first spin contaminant:
 S**2 before annihilation     8.7626,   after     8.7500
 1\1\GINC-HOLY7C04510\SP\UPBE1PBE\Jul-CC-pVDZ\C8H16Cl3Fe1O1(6)\EKWAN\11
 -Feb-2020\0\\#t pop=none jul-cc-pvdz guess=read upbe1pbe empiricaldisp
 ersion=gd3bj\\theory_abbreviation pbe0_d3bj\\0,6\O,0,-0.335337,-0.0964
 71,-0.416157\C,0,-1.242382,-1.069878,-0.255272\C,0,-2.539048,-0.411872
 ,0.718475\C,0,-2.935064,0.719924,-0.045444\C,0,-4.025177,0.629648,-1.0
 50881\Fe,0,1.488187,0.173492,-0.084242\Cl,0,1.771935,2.228206,-0.83249
 3\C,0,-2.174692,1.960937,0.038805\Cl,0,2.539805,-1.421445,-1.176787\Cl
 ,0,1.790819,0.04479,2.10673\H,0,-3.283099,-1.210863,0.68403\H,0,-2.586
 312,2.783595,-0.547118\H,0,-1.945874,2.268909,1.062645\H,0,-1.180661,1
 .654071,-0.377776\H,0,-4.859499,1.247935,-0.6843\H,0,-3.720976,1.07284
 7,-2.007001\H,0,-4.391003,-0.386397,-1.203485\C,0,-2.003927,-0.143002,
 2.127916\H,0,-2.679348,0.528141,2.668519\H,0,-1.942835,-1.074541,2.692
 299\H,0,-1.007284,0.302683,2.107176\C,0,-0.736572,-2.25843,0.576693\H,
 0,-1.538384,-2.966237,0.806769\H,0,0.017722,-2.766808,-0.033665\H,0,-0
 .251325,-1.932874,1.496539\C,0,-1.791194,-1.546774,-1.603177\H,0,-0.98
 4898,-2.087997,-2.107717\H,0,-2.644584,-2.22372,-1.491872\H,0,-2.06700
 4,-0.707482,-2.244833\\Version=ES64L-G16RevA.03\HF=-3033.1479819\S2=8.
 762628\S2-1=0.\S2A=8.75005\RMSD=3.167e-09\PG=C01 [X(C8H16Cl3Fe1O1)]\\@


 SOME THINGS ARE EASY, THEY ARE ONLY HARD TO DO.
            -- A. EINSTEIN TO J. O. HIRSCHFELDER
 THE ONLY TROUBLE WITH A SURE THING IS THE UNCERTAINTY.
     -- FROM A TEABAG (BELONGING TO W.H.?)
 Job cpu time:       0 days  0 hours  4 minutes 47.5 seconds.
 Elapsed time:       0 days  0 hours  1 minutes 12.3 seconds.
 File lengths (MBytes):  RWF=    170 Int=      0 D2E=      0 Chk=     13 Scr=      1
 Normal termination of Gaussian 16 at Tue Feb 11 14:00:22 2020.
 Initial command:
 /n/sw/g16_nehalem/g16/l1.exe "/scratch/Gau-323933.inp" -scrdir="/scratch/"
 Entering Link 1 = /n/sw/g16_nehalem/g16/l1.exe PID=    327011.
  
 Copyright (c) 1988,1990,1992,1993,1995,1998,2003,2009,2016,
            Gaussian, Inc.  All Rights Reserved.
  
 This is part of the Gaussian(R) 16 program.  It is based on
 the Gaussian(R) 09 system (copyright 2009, Gaussian, Inc.),
 the Gaussian(R) 03 system (copyright 2003, Gaussian, Inc.),
 the Gaussian(R) 98 system (copyright 1998, Gaussian, Inc.),
 the Gaussian(R) 94 system (copyright 1995, Gaussian, Inc.),
 the Gaussian 92(TM) system (copyright 1992, Gaussian, Inc.),
 the Gaussian 90(TM) system (copyright 1990, Gaussian, Inc.),
 the Gaussian 88(TM) system (copyright 1988, Gaussian, Inc.),
 the Gaussian 86(TM) system (copyright 1986, Carnegie Mellon
 University), and the Gaussian 82(TM) system (copyright 1983,
 Carnegie Mellon University). Gaussian is a federally registered
 trademark of Gaussian, Inc.
  
 This software contains proprietary and confidential information,
 including trade secrets, belonging to Gaussian, Inc.
  
 This software is provided under written license and may be
 used, copied, transmitted, or stored only in accord with that
 written license.
  
 The following legend is applicable only to US Government
 contracts under FAR:
  
                    RESTRICTED RIGHTS LEGEND
  
 Use, reproduction and disclosure by the US Government is
 subject to restrictions as set forth in subparagraphs (a)
 and (c) of the Commercial Computer Software - Restricted
 Rights clause in FAR 52.227-19.
  
 Gaussian, Inc.
 340 Quinnipiac St., Bldg. 40, Wallingford CT 06492
  
  
 ---------------------------------------------------------------
 Warning -- This program may not be used in any manner that
 competes with the business of Gaussian, Inc. or will provide
 assistance to any competitor of Gaussian, Inc.  The licensee
 of this program is prohibited from giving any competitor of
 Gaussian, Inc. access to this program.  By using this program,
 the user acknowledges that Gaussian, Inc. is engaged in the
 business of creating and licensing software in the field of
 computational chemistry and represents and warrants to the
 licensee that it is not a competitor of Gaussian, Inc. and that
 it will not use this program in any manner prohibited above.
 ---------------------------------------------------------------
  

 Cite this work as:
 Gaussian 16, Revision A.03,
 M. J. Frisch, G. W. Trucks, H. B. Schlegel, G. E. Scuseria, 
 M. A. Robb, J. R. Cheeseman, G. Scalmani, V. Barone, 
 G. A. Petersson, H. Nakatsuji, X. Li, M. Caricato, A. V. Marenich, 
 J. Bloino, B. G. Janesko, R. Gomperts, B. Mennucci, H. P. Hratchian, 
 J. V. Ortiz, A. F. Izmaylov, J. L. Sonnenberg, D. Williams-Young, 
 F. Ding, F. Lipparini, F. Egidi, J. Goings, B. Peng, A. Petrone, 
 T. Henderson, D. Ranasinghe, V. G. Zakrzewski, J. Gao, N. Rega, 
 G. Zheng, W. Liang, M. Hada, M. Ehara, K. Toyota, R. Fukuda, 
 J. Hasegawa, M. Ishida, T. Nakajima, Y. Honda, O. Kitao, H. Nakai, 
 T. Vreven, K. Throssell, J. A. Montgomery, Jr., J. E. Peralta, 
 F. Ogliaro, M. J. Bearpark, J. J. Heyd, E. N. Brothers, K. N. Kudin, 
 V. N. Staroverov, T. A. Keith, R. Kobayashi, J. Normand, 
 K. Raghavachari, A. P. Rendell, J. C. Burant, S. S. Iyengar, 
 J. Tomasi, M. Cossi, J. M. Millam, M. Klene, C. Adamo, R. Cammi, 
 J. W. Ochterski, R. L. Martin, K. Morokuma, O. Farkas, 
 J. B. Foresman, and D. J. Fox, Gaussian, Inc., Wallingford CT, 2016.
 
 ******************************************
 Gaussian 16:  ES64L-G16RevA.03 25-Dec-2016
                11-Feb-2020 
 ******************************************
 %chk=checkpoint.chk
 %mem=3GB
 %nprocshared=4
 Will use up to    4 processors via shared memory.
 -----------------------------------------
 #t pop=none jul-cc-pvdz guess=read ub3lyp
 -----------------------------------------
 -------------------------
 theory_abbreviation b3lyp
 -------------------------
 Symbolic Z-matrix:
 Charge =  0 Multiplicity = 6
 O                    -0.33534  -0.09647  -0.41616 
 C                    -1.24238  -1.06988  -0.25527 
 C                    -2.53905  -0.41187   0.71848 
 C                    -2.93506   0.71992  -0.04544 
 C                    -4.02518   0.62965  -1.05088 
 Fe                    1.48819   0.17349  -0.08424 
 Cl                    1.77194   2.22821  -0.83249 
 C                    -2.17469   1.96094   0.03881 
 Cl                    2.53981  -1.42145  -1.17679 
 Cl                    1.79082   0.04479   2.10673 
 H                    -3.2831   -1.21086   0.68403 
 H                    -2.58631   2.7836   -0.54712 
 H                    -1.94587   2.26891   1.06265 
 H                    -1.18066   1.65407  -0.37778 
 H                    -4.8595    1.24794  -0.6843 
 H                    -3.72098   1.07285  -2.007 
 H                    -4.391    -0.3864   -1.20349 
 C                    -2.00393  -0.143     2.12792 
 H                    -2.67935   0.52814   2.66852 
 H                    -1.94284  -1.07454   2.6923 
 H                    -1.00728   0.30268   2.10718 
 C                    -0.73657  -2.25843   0.57669 
 H                    -1.53838  -2.96624   0.80677 
 H                     0.01772  -2.76681  -0.03367 
 H                    -0.25133  -1.93287   1.49654 
 C                    -1.79119  -1.54677  -1.60318 
 H                    -0.9849   -2.088    -2.10772 
 H                    -2.64458  -2.22372  -1.49187 
 H                    -2.067    -0.70748  -2.24483 
 
                    Distance matrix (angstroms):
                    1          2          3          4          5
     1  O    0.000000
     2  C    1.340200   0.000000
     3  C    2.498642   1.749999   0.000000
     4  C    2.750002   2.472366   1.421746   0.000000
     5  C    3.813796   3.356386   2.534554   1.485732   0.000000
     6  Fe   1.873042   3.005200   4.147967   4.457044   5.616017
     7  Cl   3.165131   4.505180   5.287730   5.005018   6.017440
     8  C    2.796989   3.184576   2.494981   1.457867   2.526666
     9  Cl   3.255849   3.908673   5.514164   5.986617   6.879086
    10  Cl   3.302341   4.002730   4.569851   5.236567   6.643672
    11  H    3.337901   2.250931   1.092330   2.093131   2.635920
    12  H    3.657707   4.091525   3.437291   2.152218   2.638863
    13  H    3.221134   3.657773   2.767110   2.146092   3.387871
    14  H    1.944336   2.727401   2.704645   2.015194   3.097383
    15  H    4.727300   4.317390   3.179187   2.095324   1.101251
    16  H    3.919265   3.715273   3.321079   2.142409   1.096872
    17  H    4.141542   3.358581   2.669142   2.164431   1.090626
    18  C    3.042805   2.668077   1.531395   2.516973   3.845412
    19  H    3.924252   3.628648   2.169327   2.732721   3.956703
    20  H    3.633617   3.029659   2.165775   3.420506   4.609968
    21  H    2.641599   2.742327   2.187551   2.919623   4.380400
    22  C    2.412635   1.536446   2.584337   3.753800   4.669573
    23  H    3.343415   2.193565   2.744796   4.032960   4.750304
    24  H    2.720597   2.125216   3.556475   4.569068   5.377330
    25  H    2.652893   2.189931   2.855260   4.076457   5.224732
    26  C    2.373166   1.531493   2.690233   2.978740   3.167416
    27  H    2.692486   2.129417   3.634851   3.992560   4.212576
    28  H    3.318881   2.196976   2.859994   3.292654   3.200347
    29  H    2.591536   2.183961   3.015196   2.761943   2.654784
                    6          7          8          9         10
     6  Fe   0.000000
     7  Cl   2.205049   0.000000
     8  C    4.077595   4.050489   0.000000
     9  Cl   2.200768   3.745413   5.928293   0.000000
    10  Cl   2.215515   3.661515   4.865512   3.673188   0.000000
    11  H    5.027112   6.299239   3.421286   6.116633   5.417138
    12  H    4.860909   4.402751   1.090643   6.660024   5.805449
    13  H    4.183168   4.173165   1.093368   6.225358   4.472102
    14  H    3.066109   3.042075   1.120627   4.892758   4.194311
    15  H    6.465881   6.705133   2.870443   7.881487   7.311917
    16  H    5.625053   5.734666   2.713857   6.790297   6.954104
    17  H    6.010911   6.704893   3.459089   7.007720   7.025551
    18  C    4.145922   5.351989   2.969866   5.762029   3.799449
    19  H    5.007177   5.912802   3.036936   6.769551   4.531184
    20  H    4.586794   6.093588   4.038430   5.931630   3.941569
    21  H    3.323609   4.480329   2.896689   5.132141   2.809963
    22  C    3.361641   5.329945   4.490052   3.809184   3.746137
    23  H    4.451060   6.373981   5.027097   4.790877   4.673304
    24  H    3.287885   5.354022   5.211862   3.078576   3.953511
    25  H    3.156192   5.180015   4.581058   3.898543   2.907549
    26  C    4.002601   5.247887   3.891942   4.353742   5.396972
    27  H    3.914707   5.277872   4.734663   3.706002   5.478590
    28  H    4.980747   6.305558   4.480527   5.255551   6.145639
    29  H    4.252488   5.034920   3.513838   4.782589   5.863856
                   11         12         13         14         15
    11  H    0.000000
    12  H    4.237562   0.000000
    13  H    3.747043   1.807318   0.000000
    14  H    3.708844   1.811175   1.743098   0.000000
    15  H    3.225376   2.746716   3.547311   3.713860   0.000000
    16  H    3.556503   2.519004   3.742229   3.073336   1.753975
    17  H    2.338784   3.706289   4.262001   3.892506   1.777662
    18  C    2.204862   4.007487   2.637326   3.191509   4.242353
    19  H    2.706815   3.928874   2.479332   3.576827   4.063565
    20  H    2.418271   5.078691   3.719468   4.177510   5.030134
    21  H    3.081477   3.961506   2.416204   2.833954   4.850299
    22  C    2.755670   5.486940   4.711195   4.051653   5.557268
    23  H    2.477990   5.999311   5.257212   4.783133   5.568872
    24  H    3.719068   6.152365   5.515075   4.593333   6.350494
    25  H    3.220734   5.645687   4.551345   4.152457   6.009066
    26  C    2.751351   4.527645   4.657249   3.481346   4.250792
    27  H    3.720879   5.360262   5.473326   4.127238   5.307268
    28  H    2.483572   5.095994   5.215119   4.292033   4.196476
    29  H    3.211000   3.916572   4.451178   3.138222   3.749260
                   16         17         18         19         20
    16  H    0.000000
    17  H    1.795541   0.000000
    18  C    4.639406   4.105558   0.000000
    19  H    4.821014   4.331115   1.094933   0.000000
    20  H    5.464108   4.652333   1.090883   1.763975   0.000000
    21  H    4.988359   4.783812   1.091954   1.778127   1.764758
    22  C    5.165225   4.475311   2.913334   3.989372   2.707850
    23  H    5.384720   4.339831   3.151637   4.120508   2.701355
    24  H    5.710943   5.145065   3.955231   5.043082   3.760111
    25  H    5.774741   5.178673   2.583388   3.650401   2.242272
    26  C    3.278650   2.874932   3.992103   4.831302   4.324016
    27  H    4.181770   3.913391   4.770955   5.703312   4.998489
    28  H    3.505900   2.551255   4.224061   4.988266   4.395492
    29  H    2.441671   2.566802   4.409484   5.103210   4.952315
                   21         22         23         24         25
    21  H    0.000000
    22  C    2.995824   0.000000
    23  H    3.557944   1.093996   0.000000
    24  H    3.880156   1.095420   1.779766   0.000000
    25  H    2.437635   1.089756   1.788894   1.763337   0.000000
    26  C    4.219209   2.523988   2.808314   2.687755   3.482601
    27  H    4.845738   2.701253   3.093846   2.401608   3.681420
    28  H    4.692186   2.814370   2.656833   3.083697   3.839646
    29  H    4.591669   3.483748   3.833235   3.670990   4.335452
                   26         27         28         29
    26  C    0.000000
    27  H    1.094347   0.000000
    28  H    1.094952   1.775456   0.000000
    29  H    1.091881   1.759425   1.788722   0.000000
 Framework group  C1[X(C8H16Cl3FeO)]
 Deg. of freedom    81
                         Standard orientation:                         
 ---------------------------------------------------------------------
 Center     Atomic      Atomic             Coordinates (Angstroms)
 Number     Number       Type             X           Y           Z
 ---------------------------------------------------------------------
      1          8           0       -0.335337   -0.096471   -0.416157
      2          6           0       -1.242382   -1.069878   -0.255272
      3          6           0       -2.539048   -0.411872    0.718475
      4          6           0       -2.935064    0.719924   -0.045444
      5          6           0       -4.025177    0.629648   -1.050881
      6         26           0        1.488187    0.173492   -0.084242
      7         17           0        1.771935    2.228206   -0.832493
      8          6           0       -2.174692    1.960937    0.038805
      9         17           0        2.539805   -1.421445   -1.176787
     10         17           0        1.790819    0.044790    2.106730
     11          1           0       -3.283099   -1.210863    0.684030
     12          1           0       -2.586312    2.783595   -0.547118
     13          1           0       -1.945874    2.268909    1.062645
     14          1           0       -1.180661    1.654071   -0.377776
     15          1           0       -4.859499    1.247935   -0.684300
     16          1           0       -3.720976    1.072847   -2.007001
     17          1           0       -4.391003   -0.386397   -1.203485
     18          6           0       -2.003927   -0.143002    2.127916
     19          1           0       -2.679348    0.528141    2.668519
     20          1           0       -1.942835   -1.074541    2.692299
     21          1           0       -1.007284    0.302683    2.107176
     22          6           0       -0.736572   -2.258430    0.576693
     23          1           0       -1.538384   -2.966237    0.806769
     24          1           0        0.017722   -2.766808   -0.033665
     25          1           0       -0.251325   -1.932874    1.496539
     26          6           0       -1.791194   -1.546774   -1.603177
     27          1           0       -0.984898   -2.087997   -2.107717
     28          1           0       -2.644584   -2.223720   -1.491872
     29          1           0       -2.067004   -0.707482   -2.244833
 ---------------------------------------------------------------------
 Rotational constants (GHZ):           0.5994951           0.3161835           0.3013209
   427 basis functions,  1056 primitive gaussians,   461 cartesian basis functions
    77 alpha electrons       72 beta electrons
       nuclear repulsion energy      1637.4149615716 Hartrees.
 NAtoms=   29 NActive=   29 NUniq=   29 SFac= 1.00D+00 NAtFMM=   60 NAOKFM=F Big=F
 Initial guess from the checkpoint file:  "checkpoint.chk"
 B after Tr=     0.000000    0.000000    0.000000
         Rot=    1.000000    0.000000    0.000000    0.000000 Ang=   0.00 deg.
 Initial guess <Sx>= 0.0000 <Sy>= 0.0000 <Sz>= 2.5000 <S**2>= 8.7626 S= 2.5021
 SCF Done:  E(UB3LYP) =  -3034.32382911     A.U. after   15 cycles
            NFock= 15  Conv=0.67D-08     -V/T= 2.0024
 <Sx>= 0.0000 <Sy>= 0.0000 <Sz>= 2.5000 <S**2>= 8.7620 S= 2.5020
 <L.S>= 0.000000000000E+00
 Annihilation of the first spin contaminant:
 S**2 before annihilation     8.7620,   after     8.7500
 1\1\GINC-HOLY7C04510\SP\UB3LYP\Jul-CC-pVDZ\C8H16Cl3Fe1O1(6)\EKWAN\11-F
 eb-2020\0\\#t pop=none jul-cc-pvdz guess=read ub3lyp\\theory_abbreviat
 ion b3lyp\\0,6\O,0,-0.335337,-0.096471,-0.416157\C,0,-1.242382,-1.0698
 78,-0.255272\C,0,-2.539048,-0.411872,0.718475\C,0,-2.935064,0.719924,-
 0.045444\C,0,-4.025177,0.629648,-1.050881\Fe,0,1.488187,0.173492,-0.08
 4242\Cl,0,1.771935,2.228206,-0.832493\C,0,-2.174692,1.960937,0.038805\
 Cl,0,2.539805,-1.421445,-1.176787\Cl,0,1.790819,0.04479,2.10673\H,0,-3
 .283099,-1.210863,0.68403\H,0,-2.586312,2.783595,-0.547118\H,0,-1.9458
 74,2.268909,1.062645\H,0,-1.180661,1.654071,-0.377776\H,0,-4.859499,1.
 247935,-0.6843\H,0,-3.720976,1.072847,-2.007001\H,0,-4.391003,-0.38639
 7,-1.203485\C,0,-2.003927,-0.143002,2.127916\H,0,-2.679348,0.528141,2.
 668519\H,0,-1.942835,-1.074541,2.692299\H,0,-1.007284,0.302683,2.10717
 6\C,0,-0.736572,-2.25843,0.576693\H,0,-1.538384,-2.966237,0.806769\H,0
 ,0.017722,-2.766808,-0.033665\H,0,-0.251325,-1.932874,1.496539\C,0,-1.
 791194,-1.546774,-1.603177\H,0,-0.984898,-2.087997,-2.107717\H,0,-2.64
 4584,-2.22372,-1.491872\H,0,-2.067004,-0.707482,-2.244833\\Version=ES6
 4L-G16RevA.03\HF=-3034.3238291\S2=8.762008\S2-1=0.\S2A=8.750045\RMSD=6
 .743e-09\PG=C01 [X(C8H16Cl3Fe1O1)]\\@


 THE REAL VOYAGE OF DISCOVERY CONSISTS NOT IN SEEKING NEW LANDSCAPES 
 BUT IN HAVING NEW EYES.
                                                    -- MARCEL PROUST
 Job cpu time:       0 days  1 hours  5 minutes 18.0 seconds.
 Elapsed time:       0 days  0 hours 16 minutes 22.1 seconds.
 File lengths (MBytes):  RWF=    174 Int=      0 D2E=      0 Chk=     13 Scr=      1
 Normal termination of Gaussian 16 at Tue Feb 11 14:16:45 2020.
 Initial command:
 /n/sw/g16_nehalem/g16/l1.exe "/scratch/Gau-323933.inp" -scrdir="/scratch/"
 Entering Link 1 = /n/sw/g16_nehalem/g16/l1.exe PID=    328169.
  
 Copyright (c) 1988,1990,1992,1993,1995,1998,2003,2009,2016,
            Gaussian, Inc.  All Rights Reserved.
  
 This is part of the Gaussian(R) 16 program.  It is based on
 the Gaussian(R) 09 system (copyright 2009, Gaussian, Inc.),
 the Gaussian(R) 03 system (copyright 2003, Gaussian, Inc.),
 the Gaussian(R) 98 system (copyright 1998, Gaussian, Inc.),
 the Gaussian(R) 94 system (copyright 1995, Gaussian, Inc.),
 the Gaussian 92(TM) system (copyright 1992, Gaussian, Inc.),
 the Gaussian 90(TM) system (copyright 1990, Gaussian, Inc.),
 the Gaussian 88(TM) system (copyright 1988, Gaussian, Inc.),
 the Gaussian 86(TM) system (copyright 1986, Carnegie Mellon
 University), and the Gaussian 82(TM) system (copyright 1983,
 Carnegie Mellon University). Gaussian is a federally registered
 trademark of Gaussian, Inc.
  
 This software contains proprietary and confidential information,
 including trade secrets, belonging to Gaussian, Inc.
  
 This software is provided under written license and may be
 used, copied, transmitted, or stored only in accord with that
 written license.
  
 The following legend is applicable only to US Government
 contracts under FAR:
  
                    RESTRICTED RIGHTS LEGEND
  
 Use, reproduction and disclosure by the US Government is
 subject to restrictions as set forth in subparagraphs (a)
 and (c) of the Commercial Computer Software - Restricted
 Rights clause in FAR 52.227-19.
  
 Gaussian, Inc.
 340 Quinnipiac St., Bldg. 40, Wallingford CT 06492
  
  
 ---------------------------------------------------------------
 Warning -- This program may not be used in any manner that
 competes with the business of Gaussian, Inc. or will provide
 assistance to any competitor of Gaussian, Inc.  The licensee
 of this program is prohibited from giving any competitor of
 Gaussian, Inc. access to this program.  By using this program,
 the user acknowledges that Gaussian, Inc. is engaged in the
 business of creating and licensing software in the field of
 computational chemistry and represents and warrants to the
 licensee that it is not a competitor of Gaussian, Inc. and that
 it will not use this program in any manner prohibited above.
 ---------------------------------------------------------------
  

 Cite this work as:
 Gaussian 16, Revision A.03,
 M. J. Frisch, G. W. Trucks, H. B. Schlegel, G. E. Scuseria, 
 M. A. Robb, J. R. Cheeseman, G. Scalmani, V. Barone, 
 G. A. Petersson, H. Nakatsuji, X. Li, M. Caricato, A. V. Marenich, 
 J. Bloino, B. G. Janesko, R. Gomperts, B. Mennucci, H. P. Hratchian, 
 J. V. Ortiz, A. F. Izmaylov, J. L. Sonnenberg, D. Williams-Young, 
 F. Ding, F. Lipparini, F. Egidi, J. Goings, B. Peng, A. Petrone, 
 T. Henderson, D. Ranasinghe, V. G. Zakrzewski, J. Gao, N. Rega, 
 G. Zheng, W. Liang, M. Hada, M. Ehara, K. Toyota, R. Fukuda, 
 J. Hasegawa, M. Ishida, T. Nakajima, Y. Honda, O. Kitao, H. Nakai, 
 T. Vreven, K. Throssell, J. A. Montgomery, Jr., J. E. Peralta, 
 F. Ogliaro, M. J. Bearpark, J. J. Heyd, E. N. Brothers, K. N. Kudin, 
 V. N. Staroverov, T. A. Keith, R. Kobayashi, J. Normand, 
 K. Raghavachari, A. P. Rendell, J. C. Burant, S. S. Iyengar, 
 J. Tomasi, M. Cossi, J. M. Millam, M. Klene, C. Adamo, R. Cammi, 
 J. W. Ochterski, R. L. Martin, K. Morokuma, O. Farkas, 
 J. B. Foresman, and D. J. Fox, Gaussian, Inc., Wallingford CT, 2016.
 
 ******************************************
 Gaussian 16:  ES64L-G16RevA.03 25-Dec-2016
                11-Feb-2020 
 ******************************************
 %chk=checkpoint.chk
 %mem=3GB
 %nprocshared=4
 Will use up to    4 processors via shared memory.
 -------------------------------------------------------------------
 #t pop=none jul-cc-pvdz guess=read ub3lyp empiricaldispersion=gd3bj
 -------------------------------------------------------------------
 ------------------------------
 theory_abbreviation b3lyp_d3bj
 ------------------------------
 Symbolic Z-matrix:
 Charge =  0 Multiplicity = 6
 O                    -0.33534  -0.09647  -0.41616 
 C                    -1.24238  -1.06988  -0.25527 
 C                    -2.53905  -0.41187   0.71848 
 C                    -2.93506   0.71992  -0.04544 
 C                    -4.02518   0.62965  -1.05088 
 Fe                    1.48819   0.17349  -0.08424 
 Cl                    1.77194   2.22821  -0.83249 
 C                    -2.17469   1.96094   0.03881 
 Cl                    2.53981  -1.42145  -1.17679 
 Cl                    1.79082   0.04479   2.10673 
 H                    -3.2831   -1.21086   0.68403 
 H                    -2.58631   2.7836   -0.54712 
 H                    -1.94587   2.26891   1.06265 
 H                    -1.18066   1.65407  -0.37778 
 H                    -4.8595    1.24794  -0.6843 
 H                    -3.72098   1.07285  -2.007 
 H                    -4.391    -0.3864   -1.20349 
 C                    -2.00393  -0.143     2.12792 
 H                    -2.67935   0.52814   2.66852 
 H                    -1.94284  -1.07454   2.6923 
 H                    -1.00728   0.30268   2.10718 
 C                    -0.73657  -2.25843   0.57669 
 H                    -1.53838  -2.96624   0.80677 
 H                     0.01772  -2.76681  -0.03367 
 H                    -0.25133  -1.93287   1.49654 
 C                    -1.79119  -1.54677  -1.60318 
 H                    -0.9849   -2.088    -2.10772 
 H                    -2.64458  -2.22372  -1.49187 
 H                    -2.067    -0.70748  -2.24483 
 
                    Distance matrix (angstroms):
                    1          2          3          4          5
     1  O    0.000000
     2  C    1.340200   0.000000
     3  C    2.498642   1.749999   0.000000
     4  C    2.750002   2.472366   1.421746   0.000000
     5  C    3.813796   3.356386   2.534554   1.485732   0.000000
     6  Fe   1.873042   3.005200   4.147967   4.457044   5.616017
     7  Cl   3.165131   4.505180   5.287730   5.005018   6.017440
     8  C    2.796989   3.184576   2.494981   1.457867   2.526666
     9  Cl   3.255849   3.908673   5.514164   5.986617   6.879086
    10  Cl   3.302341   4.002730   4.569851   5.236567   6.643672
    11  H    3.337901   2.250931   1.092330   2.093131   2.635920
    12  H    3.657707   4.091525   3.437291   2.152218   2.638863
    13  H    3.221134   3.657773   2.767110   2.146092   3.387871
    14  H    1.944336   2.727401   2.704645   2.015194   3.097383
    15  H    4.727300   4.317390   3.179187   2.095324   1.101251
    16  H    3.919265   3.715273   3.321079   2.142409   1.096872
    17  H    4.141542   3.358581   2.669142   2.164431   1.090626
    18  C    3.042805   2.668077   1.531395   2.516973   3.845412
    19  H    3.924252   3.628648   2.169327   2.732721   3.956703
    20  H    3.633617   3.029659   2.165775   3.420506   4.609968
    21  H    2.641599   2.742327   2.187551   2.919623   4.380400
    22  C    2.412635   1.536446   2.584337   3.753800   4.669573
    23  H    3.343415   2.193565   2.744796   4.032960   4.750304
    24  H    2.720597   2.125216   3.556475   4.569068   5.377330
    25  H    2.652893   2.189931   2.855260   4.076457   5.224732
    26  C    2.373166   1.531493   2.690233   2.978740   3.167416
    27  H    2.692486   2.129417   3.634851   3.992560   4.212576
    28  H    3.318881   2.196976   2.859994   3.292654   3.200347
    29  H    2.591536   2.183961   3.015196   2.761943   2.654784
                    6          7          8          9         10
     6  Fe   0.000000
     7  Cl   2.205049   0.000000
     8  C    4.077595   4.050489   0.000000
     9  Cl   2.200768   3.745413   5.928293   0.000000
    10  Cl   2.215515   3.661515   4.865512   3.673188   0.000000
    11  H    5.027112   6.299239   3.421286   6.116633   5.417138
    12  H    4.860909   4.402751   1.090643   6.660024   5.805449
    13  H    4.183168   4.173165   1.093368   6.225358   4.472102
    14  H    3.066109   3.042075   1.120627   4.892758   4.194311
    15  H    6.465881   6.705133   2.870443   7.881487   7.311917
    16  H    5.625053   5.734666   2.713857   6.790297   6.954104
    17  H    6.010911   6.704893   3.459089   7.007720   7.025551
    18  C    4.145922   5.351989   2.969866   5.762029   3.799449
    19  H    5.007177   5.912802   3.036936   6.769551   4.531184
    20  H    4.586794   6.093588   4.038430   5.931630   3.941569
    21  H    3.323609   4.480329   2.896689   5.132141   2.809963
    22  C    3.361641   5.329945   4.490052   3.809184   3.746137
    23  H    4.451060   6.373981   5.027097   4.790877   4.673304
    24  H    3.287885   5.354022   5.211862   3.078576   3.953511
    25  H    3.156192   5.180015   4.581058   3.898543   2.907549
    26  C    4.002601   5.247887   3.891942   4.353742   5.396972
    27  H    3.914707   5.277872   4.734663   3.706002   5.478590
    28  H    4.980747   6.305558   4.480527   5.255551   6.145639
    29  H    4.252488   5.034920   3.513838   4.782589   5.863856
                   11         12         13         14         15
    11  H    0.000000
    12  H    4.237562   0.000000
    13  H    3.747043   1.807318   0.000000
    14  H    3.708844   1.811175   1.743098   0.000000
    15  H    3.225376   2.746716   3.547311   3.713860   0.000000
    16  H    3.556503   2.519004   3.742229   3.073336   1.753975
    17  H    2.338784   3.706289   4.262001   3.892506   1.777662
    18  C    2.204862   4.007487   2.637326   3.191509   4.242353
    19  H    2.706815   3.928874   2.479332   3.576827   4.063565
    20  H    2.418271   5.078691   3.719468   4.177510   5.030134
    21  H    3.081477   3.961506   2.416204   2.833954   4.850299
    22  C    2.755670   5.486940   4.711195   4.051653   5.557268
    23  H    2.477990   5.999311   5.257212   4.783133   5.568872
    24  H    3.719068   6.152365   5.515075   4.593333   6.350494
    25  H    3.220734   5.645687   4.551345   4.152457   6.009066
    26  C    2.751351   4.527645   4.657249   3.481346   4.250792
    27  H    3.720879   5.360262   5.473326   4.127238   5.307268
    28  H    2.483572   5.095994   5.215119   4.292033   4.196476
    29  H    3.211000   3.916572   4.451178   3.138222   3.749260
                   16         17         18         19         20
    16  H    0.000000
    17  H    1.795541   0.000000
    18  C    4.639406   4.105558   0.000000
    19  H    4.821014   4.331115   1.094933   0.000000
    20  H    5.464108   4.652333   1.090883   1.763975   0.000000
    21  H    4.988359   4.783812   1.091954   1.778127   1.764758
    22  C    5.165225   4.475311   2.913334   3.989372   2.707850
    23  H    5.384720   4.339831   3.151637   4.120508   2.701355
    24  H    5.710943   5.145065   3.955231   5.043082   3.760111
    25  H    5.774741   5.178673   2.583388   3.650401   2.242272
    26  C    3.278650   2.874932   3.992103   4.831302   4.324016
    27  H    4.181770   3.913391   4.770955   5.703312   4.998489
    28  H    3.505900   2.551255   4.224061   4.988266   4.395492
    29  H    2.441671   2.566802   4.409484   5.103210   4.952315
                   21         22         23         24         25
    21  H    0.000000
    22  C    2.995824   0.000000
    23  H    3.557944   1.093996   0.000000
    24  H    3.880156   1.095420   1.779766   0.000000
    25  H    2.437635   1.089756   1.788894   1.763337   0.000000
    26  C    4.219209   2.523988   2.808314   2.687755   3.482601
    27  H    4.845738   2.701253   3.093846   2.401608   3.681420
    28  H    4.692186   2.814370   2.656833   3.083697   3.839646
    29  H    4.591669   3.483748   3.833235   3.670990   4.335452
                   26         27         28         29
    26  C    0.000000
    27  H    1.094347   0.000000
    28  H    1.094952   1.775456   0.000000
    29  H    1.091881   1.759425   1.788722   0.000000
 Framework group  C1[X(C8H16Cl3FeO)]
 Deg. of freedom    81
                         Standard orientation:                         
 ---------------------------------------------------------------------
 Center     Atomic      Atomic             Coordinates (Angstroms)
 Number     Number       Type             X           Y           Z
 ---------------------------------------------------------------------
      1          8           0       -0.335337   -0.096471   -0.416157
      2          6           0       -1.242382   -1.069878   -0.255272
      3          6           0       -2.539048   -0.411872    0.718475
      4          6           0       -2.935064    0.719924   -0.045444
      5          6           0       -4.025177    0.629648   -1.050881
      6         26           0        1.488187    0.173492   -0.084242
      7         17           0        1.771935    2.228206   -0.832493
      8          6           0       -2.174692    1.960937    0.038805
      9         17           0        2.539805   -1.421445   -1.176787
     10         17           0        1.790819    0.044790    2.106730
     11          1           0       -3.283099   -1.210863    0.684030
     12          1           0       -2.586312    2.783595   -0.547118
     13          1           0       -1.945874    2.268909    1.062645
     14          1           0       -1.180661    1.654071   -0.377776
     15          1           0       -4.859499    1.247935   -0.684300
     16          1           0       -3.720976    1.072847   -2.007001
     17          1           0       -4.391003   -0.386397   -1.203485
     18          6           0       -2.003927   -0.143002    2.127916
     19          1           0       -2.679348    0.528141    2.668519
     20          1           0       -1.942835   -1.074541    2.692299
     21          1           0       -1.007284    0.302683    2.107176
     22          6           0       -0.736572   -2.258430    0.576693
     23          1           0       -1.538384   -2.966237    0.806769
     24          1           0        0.017722   -2.766808   -0.033665
     25          1           0       -0.251325   -1.932874    1.496539
     26          6           0       -1.791194   -1.546774   -1.603177
     27          1           0       -0.984898   -2.087997   -2.107717
     28          1           0       -2.644584   -2.223720   -1.491872
     29          1           0       -2.067004   -0.707482   -2.244833
 ---------------------------------------------------------------------
 Rotational constants (GHZ):           0.5994951           0.3161835           0.3013209
   427 basis functions,  1056 primitive gaussians,   461 cartesian basis functions
    77 alpha electrons       72 beta electrons
       nuclear repulsion energy      1637.4149615716 Hartrees.
 NAtoms=   29 NActive=   29 NUniq=   29 SFac= 1.00D+00 NAtFMM=   60 NAOKFM=F Big=F
 Nuclear repulsion after empirical dispersion term =     1637.3474019856 Hartrees.
 Initial guess from the checkpoint file:  "checkpoint.chk"
 B after Tr=     0.000000    0.000000    0.000000
         Rot=    1.000000    0.000000    0.000000    0.000000 Ang=   0.00 deg.
 Initial guess <Sx>= 0.0000 <Sy>= 0.0000 <Sz>= 2.5000 <S**2>= 8.7620 S= 2.5020
 SCF Done:  E(UB3LYP) =  -3034.39138870     A.U. after    1 cycles
            NFock=  1  Conv=0.22D-08     -V/T= 2.0024
 <Sx>= 0.0000 <Sy>= 0.0000 <Sz>= 2.5000 <S**2>= 8.7620 S= 2.5020
 <L.S>= 0.000000000000E+00
 Annihilation of the first spin contaminant:
 S**2 before annihilation     8.7620,   after     8.7500
 1\1\GINC-HOLY7C04510\SP\UB3LYP\Jul-CC-pVDZ\C8H16Cl3Fe1O1(6)\EKWAN\11-F
 eb-2020\0\\#t pop=none jul-cc-pvdz guess=read ub3lyp empiricaldispersi
 on=gd3bj\\theory_abbreviation b3lyp_d3bj\\0,6\O,0,-0.335337,-0.096471,
 -0.416157\C,0,-1.242382,-1.069878,-0.255272\C,0,-2.539048,-0.411872,0.
 718475\C,0,-2.935064,0.719924,-0.045444\C,0,-4.025177,0.629648,-1.0508
 81\Fe,0,1.488187,0.173492,-0.084242\Cl,0,1.771935,2.228206,-0.832493\C
 ,0,-2.174692,1.960937,0.038805\Cl,0,2.539805,-1.421445,-1.176787\Cl,0,
 1.790819,0.04479,2.10673\H,0,-3.283099,-1.210863,0.68403\H,0,-2.586312
 ,2.783595,-0.547118\H,0,-1.945874,2.268909,1.062645\H,0,-1.180661,1.65
 4071,-0.377776\H,0,-4.859499,1.247935,-0.6843\H,0,-3.720976,1.072847,-
 2.007001\H,0,-4.391003,-0.386397,-1.203485\C,0,-2.003927,-0.143002,2.1
 27916\H,0,-2.679348,0.528141,2.668519\H,0,-1.942835,-1.074541,2.692299
 \H,0,-1.007284,0.302683,2.107176\C,0,-0.736572,-2.25843,0.576693\H,0,-
 1.538384,-2.966237,0.806769\H,0,0.017722,-2.766808,-0.033665\H,0,-0.25
 1325,-1.932874,1.496539\C,0,-1.791194,-1.546774,-1.603177\H,0,-0.98489
 8,-2.087997,-2.107717\H,0,-2.644584,-2.22372,-1.491872\H,0,-2.067004,-
 0.707482,-2.244833\\Version=ES64L-G16RevA.03\HF=-3034.3913887\S2=8.762
 008\S2-1=0.\S2A=8.750045\RMSD=2.194e-09\PG=C01 [X(C8H16Cl3Fe1O1)]\\@


 K N O W I N G  IS A BARRIER WHICH PREVENTS LEARNING

                     -- TEACHING OF THE BENE GESSERIT
 Job cpu time:       0 days  0 hours  4 minutes 46.8 seconds.
 Elapsed time:       0 days  0 hours  1 minutes 12.1 seconds.
 File lengths (MBytes):  RWF=    170 Int=      0 D2E=      0 Chk=     13 Scr=      1
 Normal termination of Gaussian 16 at Tue Feb 11 14:17:58 2020.
 Initial command:
 /n/sw/g16_nehalem/g16/l1.exe "/scratch/Gau-323933.inp" -scrdir="/scratch/"
 Entering Link 1 = /n/sw/g16_nehalem/g16/l1.exe PID=    328359.
  
 Copyright (c) 1988,1990,1992,1993,1995,1998,2003,2009,2016,
            Gaussian, Inc.  All Rights Reserved.
  
 This is part of the Gaussian(R) 16 program.  It is based on
 the Gaussian(R) 09 system (copyright 2009, Gaussian, Inc.),
 the Gaussian(R) 03 system (copyright 2003, Gaussian, Inc.),
 the Gaussian(R) 98 system (copyright 1998, Gaussian, Inc.),
 the Gaussian(R) 94 system (copyright 1995, Gaussian, Inc.),
 the Gaussian 92(TM) system (copyright 1992, Gaussian, Inc.),
 the Gaussian 90(TM) system (copyright 1990, Gaussian, Inc.),
 the Gaussian 88(TM) system (copyright 1988, Gaussian, Inc.),
 the Gaussian 86(TM) system (copyright 1986, Carnegie Mellon
 University), and the Gaussian 82(TM) system (copyright 1983,
 Carnegie Mellon University). Gaussian is a federally registered
 trademark of Gaussian, Inc.
  
 This software contains proprietary and confidential information,
 including trade secrets, belonging to Gaussian, Inc.
  
 This software is provided under written license and may be
 used, copied, transmitted, or stored only in accord with that
 written license.
  
 The following legend is applicable only to US Government
 contracts under FAR:
  
                    RESTRICTED RIGHTS LEGEND
  
 Use, reproduction and disclosure by the US Government is
 subject to restrictions as set forth in subparagraphs (a)
 and (c) of the Commercial Computer Software - Restricted
 Rights clause in FAR 52.227-19.
  
 Gaussian, Inc.
 340 Quinnipiac St., Bldg. 40, Wallingford CT 06492
  
  
 ---------------------------------------------------------------
 Warning -- This program may not be used in any manner that
 competes with the business of Gaussian, Inc. or will provide
 assistance to any competitor of Gaussian, Inc.  The licensee
 of this program is prohibited from giving any competitor of
 Gaussian, Inc. access to this program.  By using this program,
 the user acknowledges that Gaussian, Inc. is engaged in the
 business of creating and licensing software in the field of
 computational chemistry and represents and warrants to the
 licensee that it is not a competitor of Gaussian, Inc. and that
 it will not use this program in any manner prohibited above.
 ---------------------------------------------------------------
  

 Cite this work as:
 Gaussian 16, Revision A.03,
 M. J. Frisch, G. W. Trucks, H. B. Schlegel, G. E. Scuseria, 
 M. A. Robb, J. R. Cheeseman, G. Scalmani, V. Barone, 
 G. A. Petersson, H. Nakatsuji, X. Li, M. Caricato, A. V. Marenich, 
 J. Bloino, B. G. Janesko, R. Gomperts, B. Mennucci, H. P. Hratchian, 
 J. V. Ortiz, A. F. Izmaylov, J. L. Sonnenberg, D. Williams-Young, 
 F. Ding, F. Lipparini, F. Egidi, J. Goings, B. Peng, A. Petrone, 
 T. Henderson, D. Ranasinghe, V. G. Zakrzewski, J. Gao, N. Rega, 
 G. Zheng, W. Liang, M. Hada, M. Ehara, K. Toyota, R. Fukuda, 
 J. Hasegawa, M. Ishida, T. Nakajima, Y. Honda, O. Kitao, H. Nakai, 
 T. Vreven, K. Throssell, J. A. Montgomery, Jr., J. E. Peralta, 
 F. Ogliaro, M. J. Bearpark, J. J. Heyd, E. N. Brothers, K. N. Kudin, 
 V. N. Staroverov, T. A. Keith, R. Kobayashi, J. Normand, 
 K. Raghavachari, A. P. Rendell, J. C. Burant, S. S. Iyengar, 
 J. Tomasi, M. Cossi, J. M. Millam, M. Klene, C. Adamo, R. Cammi, 
 J. W. Ochterski, R. L. Martin, K. Morokuma, O. Farkas, 
 J. B. Foresman, and D. J. Fox, Gaussian, Inc., Wallingford CT, 2016.
 
 ******************************************
 Gaussian 16:  ES64L-G16RevA.03 25-Dec-2016
                11-Feb-2020 
 ******************************************
 %chk=checkpoint.chk
 %mem=3GB
 %nprocshared=4
 Will use up to    4 processors via shared memory.
 ----------------------------------------
 #t pop=none jul-cc-pvdz guess=read ub97d
 ----------------------------------------
 ------------------------
 theory_abbreviation b97d
 ------------------------
 Symbolic Z-matrix:
 Charge =  0 Multiplicity = 6
 O                    -0.33534  -0.09647  -0.41616 
 C                    -1.24238  -1.06988  -0.25527 
 C                    -2.53905  -0.41187   0.71848 
 C                    -2.93506   0.71992  -0.04544 
 C                    -4.02518   0.62965  -1.05088 
 Fe                    1.48819   0.17349  -0.08424 
 Cl                    1.77194   2.22821  -0.83249 
 C                    -2.17469   1.96094   0.03881 
 Cl                    2.53981  -1.42145  -1.17679 
 Cl                    1.79082   0.04479   2.10673 
 H                    -3.2831   -1.21086   0.68403 
 H                    -2.58631   2.7836   -0.54712 
 H                    -1.94587   2.26891   1.06265 
 H                    -1.18066   1.65407  -0.37778 
 H                    -4.8595    1.24794  -0.6843 
 H                    -3.72098   1.07285  -2.007 
 H                    -4.391    -0.3864   -1.20349 
 C                    -2.00393  -0.143     2.12792 
 H                    -2.67935   0.52814   2.66852 
 H                    -1.94284  -1.07454   2.6923 
 H                    -1.00728   0.30268   2.10718 
 C                    -0.73657  -2.25843   0.57669 
 H                    -1.53838  -2.96624   0.80677 
 H                     0.01772  -2.76681  -0.03367 
 H                    -0.25133  -1.93287   1.49654 
 C                    -1.79119  -1.54677  -1.60318 
 H                    -0.9849   -2.088    -2.10772 
 H                    -2.64458  -2.22372  -1.49187 
 H                    -2.067    -0.70748  -2.24483 
 
                    Distance matrix (angstroms):
                    1          2          3          4          5
     1  O    0.000000
     2  C    1.340200   0.000000
     3  C    2.498642   1.749999   0.000000
     4  C    2.750002   2.472366   1.421746   0.000000
     5  C    3.813796   3.356386   2.534554   1.485732   0.000000
     6  Fe   1.873042   3.005200   4.147967   4.457044   5.616017
     7  Cl   3.165131   4.505180   5.287730   5.005018   6.017440
     8  C    2.796989   3.184576   2.494981   1.457867   2.526666
     9  Cl   3.255849   3.908673   5.514164   5.986617   6.879086
    10  Cl   3.302341   4.002730   4.569851   5.236567   6.643672
    11  H    3.337901   2.250931   1.092330   2.093131   2.635920
    12  H    3.657707   4.091525   3.437291   2.152218   2.638863
    13  H    3.221134   3.657773   2.767110   2.146092   3.387871
    14  H    1.944336   2.727401   2.704645   2.015194   3.097383
    15  H    4.727300   4.317390   3.179187   2.095324   1.101251
    16  H    3.919265   3.715273   3.321079   2.142409   1.096872
    17  H    4.141542   3.358581   2.669142   2.164431   1.090626
    18  C    3.042805   2.668077   1.531395   2.516973   3.845412
    19  H    3.924252   3.628648   2.169327   2.732721   3.956703
    20  H    3.633617   3.029659   2.165775   3.420506   4.609968
    21  H    2.641599   2.742327   2.187551   2.919623   4.380400
    22  C    2.412635   1.536446   2.584337   3.753800   4.669573
    23  H    3.343415   2.193565   2.744796   4.032960   4.750304
    24  H    2.720597   2.125216   3.556475   4.569068   5.377330
    25  H    2.652893   2.189931   2.855260   4.076457   5.224732
    26  C    2.373166   1.531493   2.690233   2.978740   3.167416
    27  H    2.692486   2.129417   3.634851   3.992560   4.212576
    28  H    3.318881   2.196976   2.859994   3.292654   3.200347
    29  H    2.591536   2.183961   3.015196   2.761943   2.654784
                    6          7          8          9         10
     6  Fe   0.000000
     7  Cl   2.205049   0.000000
     8  C    4.077595   4.050489   0.000000
     9  Cl   2.200768   3.745413   5.928293   0.000000
    10  Cl   2.215515   3.661515   4.865512   3.673188   0.000000
    11  H    5.027112   6.299239   3.421286   6.116633   5.417138
    12  H    4.860909   4.402751   1.090643   6.660024   5.805449
    13  H    4.183168   4.173165   1.093368   6.225358   4.472102
    14  H    3.066109   3.042075   1.120627   4.892758   4.194311
    15  H    6.465881   6.705133   2.870443   7.881487   7.311917
    16  H    5.625053   5.734666   2.713857   6.790297   6.954104
    17  H    6.010911   6.704893   3.459089   7.007720   7.025551
    18  C    4.145922   5.351989   2.969866   5.762029   3.799449
    19  H    5.007177   5.912802   3.036936   6.769551   4.531184
    20  H    4.586794   6.093588   4.038430   5.931630   3.941569
    21  H    3.323609   4.480329   2.896689   5.132141   2.809963
    22  C    3.361641   5.329945   4.490052   3.809184   3.746137
    23  H    4.451060   6.373981   5.027097   4.790877   4.673304
    24  H    3.287885   5.354022   5.211862   3.078576   3.953511
    25  H    3.156192   5.180015   4.581058   3.898543   2.907549
    26  C    4.002601   5.247887   3.891942   4.353742   5.396972
    27  H    3.914707   5.277872   4.734663   3.706002   5.478590
    28  H    4.980747   6.305558   4.480527   5.255551   6.145639
    29  H    4.252488   5.034920   3.513838   4.782589   5.863856
                   11         12         13         14         15
    11  H    0.000000
    12  H    4.237562   0.000000
    13  H    3.747043   1.807318   0.000000
    14  H    3.708844   1.811175   1.743098   0.000000
    15  H    3.225376   2.746716   3.547311   3.713860   0.000000
    16  H    3.556503   2.519004   3.742229   3.073336   1.753975
    17  H    2.338784   3.706289   4.262001   3.892506   1.777662
    18  C    2.204862   4.007487   2.637326   3.191509   4.242353
    19  H    2.706815   3.928874   2.479332   3.576827   4.063565
    20  H    2.418271   5.078691   3.719468   4.177510   5.030134
    21  H    3.081477   3.961506   2.416204   2.833954   4.850299
    22  C    2.755670   5.486940   4.711195   4.051653   5.557268
    23  H    2.477990   5.999311   5.257212   4.783133   5.568872
    24  H    3.719068   6.152365   5.515075   4.593333   6.350494
    25  H    3.220734   5.645687   4.551345   4.152457   6.009066
    26  C    2.751351   4.527645   4.657249   3.481346   4.250792
    27  H    3.720879   5.360262   5.473326   4.127238   5.307268
    28  H    2.483572   5.095994   5.215119   4.292033   4.196476
    29  H    3.211000   3.916572   4.451178   3.138222   3.749260
                   16         17         18         19         20
    16  H    0.000000
    17  H    1.795541   0.000000
    18  C    4.639406   4.105558   0.000000
    19  H    4.821014   4.331115   1.094933   0.000000
    20  H    5.464108   4.652333   1.090883   1.763975   0.000000
    21  H    4.988359   4.783812   1.091954   1.778127   1.764758
    22  C    5.165225   4.475311   2.913334   3.989372   2.707850
    23  H    5.384720   4.339831   3.151637   4.120508   2.701355
    24  H    5.710943   5.145065   3.955231   5.043082   3.760111
[...]
   427 basis functions,  1056 primitive gaussians,   461 cartesian basis functions
    77 alpha electrons       72 beta electrons
       nuclear repulsion energy      1637.4149615716 Hartrees.
 NAtoms=   29 NActive=   29 NUniq=   29 SFac= 1.00D+00 NAtFMM=   60 NAOKFM=F Big=F
 Nuclear repulsion after empirical dispersion term =     1637.4125405651 Hartrees.
 Initial guess from the checkpoint file:  "checkpoint.chk"
 B after Tr=     0.000000    0.000000    0.000000
         Rot=    1.000000    0.000000    0.000000    0.000000 Ang=   0.00 deg.
 Initial guess <Sx>= 0.0000 <Sy>= 0.0000 <Sz>= 2.5000 <S**2>= 8.7618 S= 2.5020
 SCF Done:  E(UM06L) =  -3034.19008673     A.U. after   16 cycles
            NFock= 16  Conv=0.80D-08     -V/T= 2.0020
 <Sx>= 0.0000 <Sy>= 0.0000 <Sz>= 2.5000 <S**2>= 8.7623 S= 2.5021
 <L.S>= 0.000000000000E+00
 Annihilation of the first spin contaminant:
 S**2 before annihilation     8.7623,   after     8.7500
 1\1\GINC-HOLY7C04510\SP\UM06L\Jul-CC-pVDZ\C8H16Cl3Fe1O1(6)\EKWAN\11-Fe
 b-2020\0\\#t pop=none jul-cc-pvdz guess=read um06l empiricaldispersion
 =gd3\\theory_abbreviation m06l_d3\\0,6\O,0,-0.335337,-0.096471,-0.4161
 57\C,0,-1.242382,-1.069878,-0.255272\C,0,-2.539048,-0.411872,0.718475\
 C,0,-2.935064,0.719924,-0.045444\C,0,-4.025177,0.629648,-1.050881\Fe,0
 ,1.488187,0.173492,-0.084242\Cl,0,1.771935,2.228206,-0.832493\C,0,-2.1
 74692,1.960937,0.038805\Cl,0,2.539805,-1.421445,-1.176787\Cl,0,1.79081
 9,0.04479,2.10673\H,0,-3.283099,-1.210863,0.68403\H,0,-2.586312,2.7835
 95,-0.547118\H,0,-1.945874,2.268909,1.062645\H,0,-1.180661,1.654071,-0
 .377776\H,0,-4.859499,1.247935,-0.6843\H,0,-3.720976,1.072847,-2.00700
 1\H,0,-4.391003,-0.386397,-1.203485\C,0,-2.003927,-0.143002,2.127916\H
 ,0,-2.679348,0.528141,2.668519\H,0,-1.942835,-1.074541,2.692299\H,0,-1
 .007284,0.302683,2.107176\C,0,-0.736572,-2.25843,0.576693\H,0,-1.53838
 4,-2.966237,0.806769\H,0,0.017722,-2.766808,-0.033665\H,0,-0.251325,-1
 .932874,1.496539\C,0,-1.791194,-1.546774,-1.603177\H,0,-0.984898,-2.08
 7997,-2.107717\H,0,-2.644584,-2.22372,-1.491872\H,0,-2.067004,-0.70748
 2,-2.244833\\Version=ES64L-G16RevA.03\HF=-3034.1900867\S2=8.762338\S2-
 1=0.\S2A=8.750048\RMSD=8.014e-09\PG=C01 [X(C8H16Cl3Fe1O1)]\\@


 WE LEARN WISDOM FROM FAILURE MUCH MORE THAN FROM SUCCESS.
 WE DISCOVER WHAT WILL DO BY FINDING OUT WHAT WILL NOT DO...
 AND HE WHO NEVER MADE A MISTAKE NEVER MADE A DISCOVERY
 Job cpu time:       0 days  1 hours  8 minutes 28.1 seconds.
 Elapsed time:       0 days  0 hours 17 minutes  9.7 seconds.
 File lengths (MBytes):  RWF=    174 Int=      0 D2E=      0 Chk=     13 Scr=      1
 Normal termination of Gaussian 16 at Tue Feb 11 23:59:23 2020.
 Initial command:
 /n/sw/g16_nehalem/g16/l1.exe "/scratch/Gau-323933.inp" -scrdir="/scratch/"
 Entering Link 1 = /n/sw/g16_nehalem/g16/l1.exe PID=    383355.
  
 Copyright (c) 1988,1990,1992,1993,1995,1998,2003,2009,2016,
            Gaussian, Inc.  All Rights Reserved.
  
 This is part of the Gaussian(R) 16 program.  It is based on
 the Gaussian(R) 09 system (copyright 2009, Gaussian, Inc.),
 the Gaussian(R) 03 system (copyright 2003, Gaussian, Inc.),
 the Gaussian(R) 98 system (copyright 1998, Gaussian, Inc.),
 the Gaussian(R) 94 system (copyright 1995, Gaussian, Inc.),
 the Gaussian 92(TM) system (copyright 1992, Gaussian, Inc.),
 the Gaussian 90(TM) system (copyright 1990, Gaussian, Inc.),
 the Gaussian 88(TM) system (copyright 1988, Gaussian, Inc.),
 the Gaussian 86(TM) system (copyright 1986, Carnegie Mellon
 University), and the Gaussian 82(TM) system (copyright 1983,
 Carnegie Mellon University). Gaussian is a federally registered
 trademark of Gaussian, Inc.
  
 This software contains proprietary and confidential information,
 including trade secrets, belonging to Gaussian, Inc.
  
 This software is provided under written license and may be
 used, copied, transmitted, or stored only in accord with that
 written license.
  
 The following legend is applicable only to US Government
 contracts under FAR:
  
                    RESTRICTED RIGHTS LEGEND
  
 Use, reproduction and disclosure by the US Government is
 subject to restrictions as set forth in subparagraphs (a)
 and (c) of the Commercial Computer Software - Restricted
 Rights clause in FAR 52.227-19.
  
 Gaussian, Inc.
 340 Quinnipiac St., Bldg. 40, Wallingford CT 06492
  
  
 ---------------------------------------------------------------
 Warning -- This program may not be used in any manner that
 competes with the business of Gaussian, Inc. or will provide
 assistance to any competitor of Gaussian, Inc.  The licensee
 of this program is prohibited from giving any competitor of
 Gaussian, Inc. access to this program.  By using this program,
 the user acknowledges that Gaussian, Inc. is engaged in the
 business of creating and licensing software in the field of
 computational chemistry and represents and warrants to the
 licensee that it is not a competitor of Gaussian, Inc. and that
 it will not use this program in any manner prohibited above.
 ---------------------------------------------------------------
  

 Cite this work as:
 Gaussian 16, Revision A.03,
 M. J. Frisch, G. W. Trucks, H. B. Schlegel, G. E. Scuseria, 
 M. A. Robb, J. R. Cheeseman, G. Scalmani, V. Barone, 
 G. A. Petersson, H. Nakatsuji, X. Li, M. Caricato, A. V. Marenich, 
 J. Bloino, B. G. Janesko, R. Gomperts, B. Mennucci, H. P. Hratchian, 
 J. V. Ortiz, A. F. Izmaylov, J. L. Sonnenberg, D. Williams-Young, 
 F. Ding, F. Lipparini, F. Egidi, J. Goings, B. Peng, A. Petrone, 
 T. Henderson, D. Ranasinghe, V. G. Zakrzewski, J. Gao, N. Rega, 
 G. Zheng, W. Liang, M. Hada, M. Ehara, K. Toyota, R. Fukuda, 
 J. Hasegawa, M. Ishida, T. Nakajima, Y. Honda, O. Kitao, H. Nakai, 
 T. Vreven, K. Throssell, J. A. Montgomery, Jr., J. E. Peralta, 
 F. Ogliaro, M. J. Bearpark, J. J. Heyd, E. N. Brothers, K. N. Kudin, 
 V. N. Staroverov, T. A. Keith, R. Kobayashi, J. Normand, 
 K. Raghavachari, A. P. Rendell, J. C. Burant, S. S. Iyengar, 
 J. Tomasi, M. Cossi, J. M. Millam, M. Klene, C. Adamo, R. Cammi, 
 J. W. Ochterski, R. L. Martin, K. Morokuma, O. Farkas, 
 J. B. Foresman, and D. J. Fox, Gaussian, Inc., Wallingford CT, 2016.
 
 ******************************************
 Gaussian 16:  ES64L-G16RevA.03 25-Dec-2016
                11-Feb-2020 
 ******************************************
 %chk=checkpoint.chk
 %mem=3GB
 %nprocshared=4
 Will use up to    4 processors via shared memory.
 -------------------------------------------------------------------
 #t pop=none jul-cc-pvdz guess=read ub97d3 empiricaldispersion=gd3bj
 -------------------------------------------------------------------
 ------------------------------
 theory_abbreviation b97d3_d3bj
 ------------------------------
 Symbolic Z-matrix:
 Charge =  0 Multiplicity = 6
 O                    -0.33534  -0.09647  -0.41616 
 C                    -1.24238  -1.06988  -0.25527 
 C                    -2.53905  -0.41187   0.71848 
 C                    -2.93506   0.71992  -0.04544 
 C                    -4.02518   0.62965  -1.05088 
 Fe                    1.48819   0.17349  -0.08424 
 Cl                    1.77194   2.22821  -0.83249 
 C                    -2.17469   1.96094   0.03881 
 Cl                    2.53981  -1.42145  -1.17679 
 Cl                    1.79082   0.04479   2.10673 
 H                    -3.2831   -1.21086   0.68403 
 H                    -2.58631   2.7836   -0.54712 
 H                    -1.94587   2.26891   1.06265 
 H                    -1.18066   1.65407  -0.37778 
 H                    -4.8595    1.24794  -0.6843 
 H                    -3.72098   1.07285  -2.007 
 H                    -4.391    -0.3864   -1.20349 
 C                    -2.00393  -0.143     2.12792 
 H                    -2.67935   0.52814   2.66852 
 H                    -1.94284  -1.07454   2.6923 
 H                    -1.00728   0.30268   2.10718 
 C                    -0.73657  -2.25843   0.57669 
 H                    -1.53838  -2.96624   0.80677 
 H                     0.01772  -2.76681  -0.03367 
 H                    -0.25133  -1.93287   1.49654 
 C                    -1.79119  -1.54677  -1.60318 
 H                    -0.9849   -2.088    -2.10772 
 H                    -2.64458  -2.22372  -1.49187 
 H                    -2.067    -0.70748  -2.24483 
 
                    Distance matrix (angstroms):
                    1          2          3          4          5
     1  O    0.000000
     2  C    1.340200   0.000000
     3  C    2.498642   1.749999   0.000000
     4  C    2.750002   2.472366   1.421746   0.000000
     5  C    3.813796   3.356386   2.534554   1.485732   0.000000
     6  Fe   1.873042   3.005200   4.147967   4.457044   5.616017
     7  Cl   3.165131   4.505180   5.287730   5.005018   6.017440
     8  C    2.796989   3.184576   2.494981   1.457867   2.526666
     9  Cl   3.255849   3.908673   5.514164   5.986617   6.879086
    10  Cl   3.302341   4.002730   4.569851   5.236567   6.643672
    11  H    3.337901   2.250931   1.092330   2.093131   2.635920
    12  H    3.657707   4.091525   3.437291   2.152218   2.638863
    13  H    3.221134   3.657773   2.767110   2.146092   3.387871
    14  H    1.944336   2.727401   2.704645   2.015194   3.097383
    15  H    4.727300   4.317390   3.179187   2.095324   1.101251
    16  H    3.919265   3.715273   3.321079   2.142409   1.096872
    17  H    4.141542   3.358581   2.669142   2.164431   1.090626
    18  C    3.042805   2.668077   1.531395   2.516973   3.845412
    19  H    3.924252   3.628648   2.169327   2.732721   3.956703
    20  H    3.633617   3.029659   2.165775   3.420506   4.609968
    21  H    2.641599   2.742327   2.187551   2.919623   4.380400
    22  C    2.412635   1.536446   2.584337   3.753800   4.669573
    23  H    3.343415   2.193565   2.744796   4.032960   4.750304
    24  H    2.720597   2.125216   3.556475   4.569068   5.377330
    25  H    2.652893   2.189931   2.855260   4.076457   5.224732
    26  C    2.373166   1.531493   2.690233   2.978740   3.167416
    27  H    2.692486   2.129417   3.634851   3.992560   4.212576
    28  H    3.318881   2.196976   2.859994   3.292654   3.200347
    29  H    2.591536   2.183961   3.015196   2.761943   2.654784
                    6          7          8          9         10
     6  Fe   0.000000
     7  Cl   2.205049   0.000000
     8  C    4.077595   4.050489   0.000000
     9  Cl   2.200768   3.745413   5.928293   0.000000
    10  Cl   2.215515   3.661515   4.865512   3.673188   0.000000
    11  H    5.027112   6.299239   3.421286   6.116633   5.417138
    12  H    4.860909   4.402751   1.090643   6.660024   5.805449
    13  H    4.183168   4.173165   1.093368   6.225358   4.472102
    14  H    3.066109   3.042075   1.120627   4.892758   4.194311
    15  H    6.465881   6.705133   2.870443   7.881487   7.311917
    16  H    5.625053   5.734666   2.713857   6.790297   6.954104
    17  H    6.010911   6.704893   3.459089   7.007720   7.025551
    18  C    4.145922   5.351989   2.969866   5.762029   3.799449
    19  H    5.007177   5.912802   3.036936   6.769551   4.531184
    20  H    4.586794   6.093588   4.038430   5.931630   3.941569
    21  H    3.323609   4.480329   2.896689   5.132141   2.809963
    22  C    3.361641   5.329945   4.490052   3.809184   3.746137
    23  H    4.451060   6.373981   5.027097   4.790877   4.673304
    24  H    3.287885   5.354022   5.211862   3.078576   3.953511
    25  H    3.156192   5.180015   4.581058   3.898543   2.907549
    26  C    4.002601   5.247887   3.891942   4.353742   5.396972
    27  H    3.914707   5.277872   4.734663   3.706002   5.478590
    28  H    4.980747   6.305558   4.480527   5.255551   6.145639
    29  H    4.252488   5.034920   3.513838   4.782589   5.863856
                   11         12         13         14         15
    11  H    0.000000
    12  H    4.237562   0.000000
    13  H    3.747043   1.807318   0.000000
    14  H    3.708844   1.811175   1.743098   0.000000
    15  H    3.225376   2.746716   3.547311   3.713860   0.000000
    16  H    3.556503   2.519004   3.742229   3.073336   1.753975
    17  H    2.338784   3.706289   4.262001   3.892506   1.777662
    18  C    2.204862   4.007487   2.637326   3.191509   4.242353
    19  H    2.706815   3.928874   2.479332   3.576827   4.063565
    20  H    2.418271   5.078691   3.719468   4.177510   5.030134
    21  H    3.081477   3.961506   2.416204   2.833954   4.850299
    22  C    2.755670   5.486940   4.711195   4.051653   5.557268
    23  H    2.477990   5.999311   5.257212   4.783133   5.568872
    24  H    3.719068   6.152365   5.515075   4.593333   6.350494
    25  H    3.220734   5.645687   4.551345   4.152457   6.009066
    26  C    2.751351   4.527645   4.657249   3.481346   4.250792
    27  H    3.720879   5.360262   5.473326   4.127238   5.307268
    28  H    2.483572   5.095994   5.215119   4.292033   4.196476
    29  H    3.211000   3.916572   4.451178   3.138222   3.749260
                   16         17         18         19         20
    16  H    0.000000
    17  H    1.795541   0.000000
    18  C    4.639406   4.105558   0.000000
    19  H    4.821014   4.331115   1.094933   0.000000
    20  H    5.464108   4.652333   1.090883   1.763975   0.000000
    21  H    4.988359   4.783812   1.091954   1.778127   1.764758
    22  C    5.165225   4.475311   2.913334   3.989372   2.707850
    23  H    5.384720   4.339831   3.151637   4.120508   2.701355
    24  H    5.710943   5.145065   3.955231   5.043082   3.760111
    25  H    5.774741   5.178673   2.583388   3.650401   2.242272
    26  C    3.278650   2.874932   3.992103   4.831302   4.324016
    27  H    4.181770   3.913391   4.770955   5.703312   4.998489
    28  H    3.505900   2.551255   4.224061   4.988266   4.395492
    29  H    2.441671   2.566802   4.409484   5.103210   4.952315
                   21         22         23         24         25
    21  H    0.000000
    22  C    2.995824   0.000000
    23  H    3.557944   1.093996   0.000000
    24  H    3.880156   1.095420   1.779766   0.000000
    25  H    2.437635   1.089756   1.788894   1.763337   0.000000
    26  C    4.219209   2.523988   2.808314   2.687755   3.482601
    27  H    4.845738   2.701253   3.093846   2.401608   3.681420
    28  H    4.692186   2.814370   2.656833   3.083697   3.839646
    29  H    4.591669   3.483748   3.833235   3.670990   4.335452
                   26         27         28         29
    26  C    0.000000
    27  H    1.094347   0.000000
    28  H    1.094952   1.775456   0.000000
    29  H    1.091881   1.759425   1.788722   0.000000
 Framework group  C1[X(C8H16Cl3FeO)]
 Deg. of freedom    81
                         Standard orientation:                         
 ---------------------------------------------------------------------
 Center     Atomic      Atomic             Coordinates (Angstroms)
 Number     Number       Type             X           Y           Z
 ---------------------------------------------------------------------
      1          8           0       -0.335337   -0.096471   -0.416157
      2          6           0       -1.242382   -1.069878   -0.255272
      3          6           0       -2.539048   -0.411872    0.718475
      4          6           0       -2.935064    0.719924   -0.045444
      5          6           0       -4.025177    0.629648   -1.050881
      6         26           0        1.488187    0.173492   -0.084242
      7         17           0        1.771935    2.228206   -0.832493
      8          6           0       -2.174692    1.960937    0.038805
      9         17           0        2.539805   -1.421445   -1.176787
     10         17           0        1.790819    0.044790    2.106730
     11          1           0       -3.283099   -1.210863    0.684030
     12          1           0       -2.586312    2.783595   -0.547118
     13          1           0       -1.945874    2.268909    1.062645
     14          1           0       -1.180661    1.654071   -0.377776
     15          1           0       -4.859499    1.247935   -0.684300
     16          1           0       -3.720976    1.072847   -2.007001
     17          1           0       -4.391003   -0.386397   -1.203485
     18          6           0       -2.003927   -0.143002    2.127916
     19          1           0       -2.679348    0.528141    2.668519
     20          1           0       -1.942835   -1.074541    2.692299
     21          1           0       -1.007284    0.302683    2.107176
     22          6           0       -0.736572   -2.258430    0.576693
     23          1           0       -1.538384   -2.966237    0.806769
     24          1           0        0.017722   -2.766808   -0.033665
     25          1           0       -0.251325   -1.932874    1.496539
     26          6           0       -1.791194   -1.546774   -1.603177
     27          1           0       -0.984898   -2.087997   -2.107717
     28          1           0       -2.644584   -2.223720   -1.491872
     29          1           0       -2.067004   -0.707482   -2.244833
 ---------------------------------------------------------------------
 Rotational constants (GHZ):           0.5994951           0.3161835           0.3013209
   427 basis functions,  1056 primitive gaussians,   461 cartesian basis functions
    77 alpha electrons       72 beta electrons
       nuclear repulsion energy      1637.4149615716 Hartrees.
 NAtoms=   29 NActive=   29 NUniq=   29 SFac= 1.00D+00 NAtFMM=   60 NAOKFM=F Big=F
 Nuclear repulsion after empirical dispersion term =     1637.3149746953 Hartrees.
 Initial guess from the checkpoint file:  "checkpoint.chk"
 B after Tr=     0.000000    0.000000    0.000000
         Rot=    1.000000    0.000000    0.000000    0.000000 Ang=   0.00 deg.
 Initial guess <Sx>= 0.0000 <Sy>= 0.0000 <Sz>= 2.5000 <S**2>= 8.7623 S= 2.5021
 EnCoef did     4 forward-backward iterations
 SCF Done:  E(UB97D3) =  -3034.61059690     A.U. after   16 cycles
            NFock= 16  Conv=0.38D-08     -V/T= 2.0019
 <Sx>= 0.0000 <Sy>= 0.0000 <Sz>= 2.5000 <S**2>= 8.7610 S= 2.5018
 <L.S>= 0.000000000000E+00
 Annihilation of the first spin contaminant:
 S**2 before annihilation     8.7610,   after     8.7500
 1\1\GINC-HOLY7C04510\SP\UB97D3\Jul-CC-pVDZ\C8H16Cl3Fe1O1(6)\EKWAN\12-F
 eb-2020\0\\#t pop=none jul-cc-pvdz guess=read ub97d3 empiricaldispersi
 on=gd3bj\\theory_abbreviation b97d3_d3bj\\0,6\O,0,-0.335337,-0.096471,
 -0.416157\C,0,-1.242382,-1.069878,-0.255272\C,0,-2.539048,-0.411872,0.
 718475\C,0,-2.935064,0.719924,-0.045444\C,0,-4.025177,0.629648,-1.0508
 81\Fe,0,1.488187,0.173492,-0.084242\Cl,0,1.771935,2.228206,-0.832493\C
 ,0,-2.174692,1.960937,0.038805\Cl,0,2.539805,-1.421445,-1.176787\Cl,0,
 1.790819,0.04479,2.10673\H,0,-3.283099,-1.210863,0.68403\H,0,-2.586312
 ,2.783595,-0.547118\H,0,-1.945874,2.268909,1.062645\H,0,-1.180661,1.65
 4071,-0.377776\H,0,-4.859499,1.247935,-0.6843\H,0,-3.720976,1.072847,-
 2.007001\H,0,-4.391003,-0.386397,-1.203485\C,0,-2.003927,-0.143002,2.1
 27916\H,0,-2.679348,0.528141,2.668519\H,0,-1.942835,-1.074541,2.692299
 \H,0,-1.007284,0.302683,2.107176\C,0,-0.736572,-2.25843,0.576693\H,0,-
 1.538384,-2.966237,0.806769\H,0,0.017722,-2.766808,-0.033665\H,0,-0.25
 1325,-1.932874,1.496539\C,0,-1.791194,-1.546774,-1.603177\H,0,-0.98489
 8,-2.087997,-2.107717\H,0,-2.644584,-2.22372,-1.491872\H,0,-2.067004,-
 0.707482,-2.244833\\Version=ES64L-G16RevA.03\HF=-3034.6105969\S2=8.761
 007\S2-1=0.\S2A=8.750037\RMSD=3.760e-09\PG=C01 [X(C8H16Cl3Fe1O1)]\\@


 YOU WILL NEVER "FIND" TIME FOR ANYTHING.
 IF YOU WANT TIME, YOU MUST MAKE IT.

                        -- CHARLES BIXTON
 Job cpu time:       0 days  0 hours 52 minutes 20.8 seconds.
 Elapsed time:       0 days  0 hours 13 minutes 22.3 seconds.
 File lengths (MBytes):  RWF=    174 Int=      0 D2E=      0 Chk=     13 Scr=      1
 Normal termination of Gaussian 16 at Wed Feb 12 00:12:45 2020.
