 Entering Gaussian System, Link 0=g16
 Input=simple-grid-245-275-b3lyp_d3bj-631gd-gas-singlepoint-DFT-juldz2-gas.gjf
 Output=simple-grid-245-275-b3lyp_d3bj-631gd-gas-singlepoint-DFT-juldz2-gas.out
 Initial command:
 /n/sw/g16_nehalem/g16/l1.exe "/scratch/Gau-227302.inp" -scrdir="/scratch/"
 Entering Link 1 = /n/sw/g16_nehalem/g16/l1.exe PID=    227303.
  
 Copyright (c) 1988,1990,1992,1993,1995,1998,2003,2009,2016,
            Gaussian, Inc.  All Rights Reserved.
  
 This is part of the Gaussian(R) 16 program.  It is based on
 the Gaussian(R) 09 system (copyright 2009, Gaussian, Inc.),
 the Gaussian(R) 03 system (copyright 2003, Gaussian, Inc.),
 the Gaussian(R) 98 system (copyright 1998, Gaussian, Inc.),
 the Gaussian(R) 94 system (copyright 1995, Gaussian, Inc.),
 the Gaussian 92(TM) system (copyright 1992, Gaussian, Inc.),
 the Gaussian 90(TM) system (copyright 1990, Gaussian, Inc.),
 the Gaussian 88(TM) system (copyright 1988, Gaussian, Inc.),
 the Gaussian 86(TM) system (copyright 1986, Carnegie Mellon
 University), and the Gaussian 82(TM) system (copyright 1983,
 Carnegie Mellon University). Gaussian is a federally registered
 trademark of Gaussian, Inc.
  
 This software contains proprietary and confidential information,
 including trade secrets, belonging to Gaussian, Inc.
  
 This software is provided under written license and may be
 used, copied, transmitted, or stored only in accord with that
 written license.
  
 The following legend is applicable only to US Government
 contracts under FAR:
  
                    RESTRICTED RIGHTS LEGEND
  
 Use, reproduction and disclosure by the US Government is
 subject to restrictions as set forth in subparagraphs (a)
 and (c) of the Commercial Computer Software - Restricted
 Rights clause in FAR 52.227-19.
  
 Gaussian, Inc.
 340 Quinnipiac St., Bldg. 40, Wallingford CT 06492
  
  
 ---------------------------------------------------------------
 Warning -- This program may not be used in any manner that
 competes with the business of Gaussian, Inc. or will provide
 assistance to any competitor of Gaussian, Inc.  The licensee
 of this program is prohibited from giving any competitor of
 Gaussian, Inc. access to this program.  By using this program,
 the user acknowledges that Gaussian, Inc. is engaged in the
 business of creating and licensing software in the field of
 computational chemistry and represents and warrants to the
 licensee that it is not a competitor of Gaussian, Inc. and that
 it will not use this program in any manner prohibited above.
 ---------------------------------------------------------------
  

 Cite this work as:
 Gaussian 16, Revision A.03,
 M. J. Frisch, G. W. Trucks, H. B. Schlegel, G. E. Scuseria, 
 M. A. Robb, J. R. Cheeseman, G. Scalmani, V. Barone, 
 G. A. Petersson, H. Nakatsuji, X. Li, M. Caricato, A. V. Marenich, 
 J. Bloino, B. G. Janesko, R. Gomperts, B. Mennucci, H. P. Hratchian, 
 J. V. Ortiz, A. F. Izmaylov, J. L. Sonnenberg, D. Williams-Young, 
 F. Ding, F. Lipparini, F. Egidi, J. Goings, B. Peng, A. Petrone, 
 T. Henderson, D. Ranasinghe, V. G. Zakrzewski, J. Gao, N. Rega, 
 G. Zheng, W. Liang, M. Hada, M. Ehara, K. Toyota, R. Fukuda, 
 J. Hasegawa, M. Ishida, T. Nakajima, Y. Honda, O. Kitao, H. Nakai, 
 T. Vreven, K. Throssell, J. A. Montgomery, Jr., J. E. Peralta, 
 F. Ogliaro, M. J. Bearpark, J. J. Heyd, E. N. Brothers, K. N. Kudin, 
 V. N. Staroverov, T. A. Keith, R. Kobayashi, J. Normand, 
 K. Raghavachari, A. P. Rendell, J. C. Burant, S. S. Iyengar, 
 J. Tomasi, M. Cossi, J. M. Millam, M. Klene, C. Adamo, R. Cammi, 
 J. W. Ochterski, R. L. Martin, K. Morokuma, O. Farkas, 
 J. B. Foresman, and D. J. Fox, Gaussian, Inc., Wallingford CT, 2016.
 
 ******************************************
 Gaussian 16:  ES64L-G16RevA.03 25-Dec-2016
                11-Feb-2020 
 ******************************************
 %chk=checkpoint.chk
 %mem=3GB
 %nprocshared=4
 Will use up to    4 processors via shared memory.
 --------------------------------
 #t pop=none jul-cc-pvdz upbe1pbe
 --------------------------------
 ------------------------
 theory_abbreviation pbe0
 ------------------------
 Symbolic Z-matrix:
 Charge =  0 Multiplicity = 6
 O                    -0.24606  -0.29202  -0.83398 
 C                    -1.07914  -1.22678  -0.65735 
 C                    -2.95694  -0.17832   0.51614 
 C                    -2.5956    0.95383  -0.13401 
 C                    -3.09732   1.26961  -1.51344 
 Fe                    1.461     0.14367   0.00388 
 Cl                    2.05749   2.02052  -0.92932 
 C                    -1.68206   1.98952   0.44354 
 Cl                    2.66837  -1.60841  -0.51373 
 Cl                    1.12789   0.30379   2.17356 
 H                    -3.6871   -0.82016   0.02486 
 H                    -2.22085   2.9415    0.54143 
 H                    -1.27426   1.72461   1.41805 
 H                    -0.84594   2.18025  -0.24139 
 H                    -3.60891   2.2406   -1.50517 
 H                    -2.25937   1.36954  -2.21626 
 H                    -3.79954   0.52173  -1.89036 
 C                    -2.75312  -0.44028   1.98782 
 H                    -3.53221   0.07529   2.56491 
 H                    -2.83984  -1.50459   2.22188 
 H                    -1.78638  -0.09027   2.35726 
 C                    -0.86375  -2.22817   0.43949 
 H                    -1.74511  -2.84512   0.61779 
 H                    -0.05002  -2.87771   0.08385 
 H                    -0.52393  -1.76197   1.36373 
 C                    -1.85822  -1.68265  -1.86045 
 H                    -1.2082   -2.40658  -2.37287 
 H                    -2.7844   -2.19375  -1.59451 
 H                    -2.04822  -0.86365  -2.55133 
 
                    Distance matrix (angstroms):
                    1          2          3          4          5
     1  O    0.000000
     2  C    1.264510   0.000000
     3  C    3.030617   2.450002   0.000000
     4  C    2.749986   2.707136   1.354631   0.000000
     5  C    3.321147   3.322332   2.497076   1.501418   0.000000
     6  Fe   1.950866   2.961017   4.459181   4.139003   4.934394
     7  Cl   3.265469   4.522980   5.662933   4.839586   5.241864
     8  C    2.983215   3.452541   2.515973   1.496922   2.520117
     9  Cl   3.213931   3.769628   5.894910   5.866739   6.521164
    10  Cl   3.359762   3.902259   4.434556   4.428517   5.690263
    11  H    3.585704   2.726208   1.089242   2.088934   2.661074
    12  H    4.030774   4.484981   3.205573   2.132478   2.790315
    13  H    3.193062   3.613318   2.695556   2.179211   3.481986
    14  H    2.612112   3.440235   3.254689   2.139376   2.741548
    15  H    4.263027   4.375070   3.218993   2.136036   1.097549
    16  H    2.953792   3.250231   3.216902   2.149792   1.098223
    17  H    3.795434   3.460948   2.644101   2.172772   1.092936
    18  C    3.777543   3.227641   1.508638   2.543719   3.911645
    19  H    4.741952   4.253924   2.143055   2.988852   4.271818
    20  H    4.187638   3.386329   2.163856   3.413757   4.659948
    21  H    3.549264   3.298437   2.183501   2.819823   4.306984
    22  C    2.398318   1.500743   2.930741   3.667877   4.586634
    23  H    3.297434   2.165299   2.930990   3.964913   4.827170
    24  H    2.750757   2.081839   3.990467   4.605232   5.388660
    25  H    2.658548   2.163200   3.024218   3.729688   4.908243
    26  C    2.363587   1.504073   3.019670   3.236564   3.220501
    27  H    2.786627   2.086055   4.045947   4.269632   4.221587
    28  H    3.261623   2.172845   2.923463   3.475055   3.478416
    29  H    2.554184   2.158279   3.271830   3.073485   2.593961
                    6          7          8          9         10
     6  Fe   0.000000
     7  Cl   2.179276   0.000000
     8  C    3.671414   3.983709   0.000000
     9  Cl   2.189848   3.703377   5.726054   0.000000
    10  Cl   2.200935   3.665949   3.705461   3.640207   0.000000
    11  H    5.237585   6.479215   3.477035   6.426774   5.391128
    12  H    4.655404   4.616869   1.098240   6.761614   4.564577
    13  H    3.461342   4.086351   1.089110   5.512269   2.891332
    14  H    3.087033   2.988091   1.097538   5.174791   3.639922
    15  H    5.690193   5.699836   2.751955   7.429808   6.302499
    16  H    4.502545   4.551406   2.791447   6.004117   5.646220
    17  H    5.603954   6.121665   3.476379   6.947406   6.390807
    18  C    4.694227   6.140618   3.071792   6.083977   3.956051
    19  H    5.612097   6.873011   3.404047   7.124606   4.682075
    20  H    5.112095   6.807376   4.088008   6.150995   4.360670
    21  H    4.017285   5.480180   2.828204   5.512903   2.946518
    22  C    3.349596   5.334663   4.296342   3.710605   3.658471
    23  H    4.425926   6.366139   4.838187   4.721078   4.537633
    24  H    3.379101   5.427784   5.146154   3.059070   3.984509
    25  H    3.069297   5.121429   4.032575   3.706648   2.766167
    26  C    4.222362   5.469301   4.338690   4.723259   5.397775
    27  H    4.390598   5.687517   5.242371   4.372794   5.785626
    28  H    5.103118   6.453412   4.782114   5.589586   5.978470
    29  H    4.456279   5.273165   4.152581   5.191605   5.811643
                   11         12         13         14         15
    11  H    0.000000
    12  H    4.070228   0.000000
    13  H    3.773416   1.773505   0.000000
    14  H    4.140712   1.755751   1.773356   0.000000
    15  H    3.422766   2.570315   3.776518   3.038879   0.000000
    16  H    3.443219   3.174481   3.782161   2.560303   1.756597
    17  H    2.341227   3.776387   4.332387   3.767432   1.771787
    18  C    2.206768   3.716420   2.682991   3.933679   4.485583
    19  H    2.697717   3.745568   3.022232   4.418388   4.610856
    20  H    2.452187   4.793204   3.677633   4.860183   5.339370
    21  H    3.096055   3.560564   2.106699   3.576677   4.865483
    22  C    3.182096   5.345796   4.092747   4.460721   5.593523
    23  H    2.867641   5.806637   4.663105   5.176964   5.817665
    24  H    4.179158   6.227766   4.945732   5.130521   6.433336
    25  H    3.561630   5.067372   3.566815   4.268621   5.811040
    26  C    2.764612   5.223334   4.764350   4.309066   4.310804
    27  H    3.796155   6.174183   5.607341   5.070847   5.302133
    28  H    2.307379   5.590225   5.168144   4.971970   4.511240
    29  H    3.053616   4.906536   4.801477   4.005829   3.628577
                   16         17         18         19         20
    16  H    0.000000
    17  H    1.788045   0.000000
    18  C    4.603633   4.130457   0.000000
    19  H    5.114168   4.485551   1.098104   0.000000
    20  H    5.319272   4.683750   1.093192   1.758714   0.000000
    21  H    4.824084   4.740209   1.092511   1.765911   1.768734
    22  C    4.684468   4.648547   3.027138   4.116309   2.757794
    23  H    5.104861   4.674092   2.945551   3.938751   2.359776
    24  H    5.311393   5.432549   4.107660   5.196296   3.773555
    25  H    5.063039   5.151110   2.665632   3.723983   2.483162
    26  C    3.098932   2.937500   4.141672   5.047413   4.202464
    27  H    3.922830   3.939906   5.026797   5.995196   4.958587
    28  H    3.655034   2.914081   3.988573   4.796725   3.878517
    29  H    2.268039   2.328792   4.613023   5.409229   4.880682
                   21         22         23         24         25
    21  H    0.000000
    22  C    3.016569   0.000000
    23  H    3.258315   1.090510   0.000000
    24  H    3.994139   1.100244   1.777489   0.000000
    25  H    2.318498   1.089512   1.794688   1.762831   0.000000
    26  C    4.508866   2.564425   2.739669   2.911710   3.490262
    27  H    5.298464   2.838989   3.069958   2.756599   3.853044
    28  H    4.586632   2.797726   2.529565   3.280481   3.747982
    29  H    4.976037   3.494268   3.749858   3.872140   4.296295
                   26         27         28         29
    26  C    0.000000
    27  H    1.099627   0.000000
    28  H    1.090763   1.770747   0.000000
    29  H    1.088203   1.765822   1.796285   0.000000
 Framework group  C1[X(C8H16Cl3FeO)]
 Deg. of freedom    81
                         Standard orientation:                         
 ---------------------------------------------------------------------
 Center     Atomic      Atomic             Coordinates (Angstroms)
 Number     Number       Type             X           Y           Z
 ---------------------------------------------------------------------
      1          8           0       -0.246062   -0.292019   -0.833979
      2          6           0       -1.079138   -1.226776   -0.657348
      3          6           0       -2.956944   -0.178315    0.516144
      4          6           0       -2.595599    0.953831   -0.134010
      5          6           0       -3.097320    1.269610   -1.513436
      6         26           0        1.460997    0.143668    0.003878
      7         17           0        2.057491    2.020521   -0.929321
      8          6           0       -1.682059    1.989522    0.443539
      9         17           0        2.668371   -1.608406   -0.513729
     10         17           0        1.127886    0.303792    2.173558
     11          1           0       -3.687100   -0.820156    0.024859
     12          1           0       -2.220849    2.941496    0.541425
     13          1           0       -1.274255    1.724614    1.418054
     14          1           0       -0.845941    2.180248   -0.241385
     15          1           0       -3.608909    2.240600   -1.505170
     16          1           0       -2.259374    1.369539   -2.216255
     17          1           0       -3.799540    0.521728   -1.890356
     18          6           0       -2.753118   -0.440282    1.987815
     19          1           0       -3.532206    0.075291    2.564910
     20          1           0       -2.839840   -1.504594    2.221883
     21          1           0       -1.786379   -0.090270    2.357258
     22          6           0       -0.863747   -2.228167    0.439490
     23          1           0       -1.745107   -2.845115    0.617792
     24          1           0       -0.050022   -2.877714    0.083853
     25          1           0       -0.523933   -1.761965    1.363730
     26          6           0       -1.858219   -1.682650   -1.860447
     27          1           0       -1.208203   -2.406584   -2.372871
     28          1           0       -2.784403   -2.193754   -1.594513
     29          1           0       -2.048224   -0.863651   -2.551333
 ---------------------------------------------------------------------
 Rotational constants (GHZ):           0.5732500           0.3297791           0.3103694
   427 basis functions,  1056 primitive gaussians,   461 cartesian basis functions
    77 alpha electrons       72 beta electrons
       nuclear repulsion energy      1633.5441917972 Hartrees.
 NAtoms=   29 NActive=   29 NUniq=   29 SFac= 1.00D+00 NAtFMM=   60 NAOKFM=F Big=F
 ExpMin= 1.40D-02 ExpMax= 4.32D+06 ExpMxC= 4.91D+03 IAcc=3 IRadAn=         5 AccDes= 0.00D+00
 Harris functional with IExCor= 1009 and IRadAn=       5 diagonalized for initial guess.
 HarFok:  IExCor= 1009 AccDes= 0.00D+00 IRadAn=         5 IDoV= 1 UseB2=F ITyADJ=14
 ICtDFT=  3500011 ScaDFX=  1.000000  1.000000  1.000000  1.000000
 FoFCou: FMM=F IPFlag=           0 FMFlag=      100000 FMFlg1=           0
         NFxFlg=           0 DoJE=T BraDBF=F KetDBF=T FulRan=T
         wScrn=  0.000000 ICntrl=       500 IOpCl=  0 I1Cent=   200000004 NGrid=           0
         NMat0=    1 NMatS0=      1 NMatT0=    0 NMatD0=    1 NMtDS0=    0 NMtDT0=    0
 Petite list used in FoFCou.
 Initial guess <Sx>= 0.0000 <Sy>= 0.0000 <Sz>= 2.5000 <S**2>= 8.7500 S= 2.5000
 EnCoef did   100 forward-backward iterations
 Restarting incremental Fock formation.
 SCF Done:  E(UPBE1PBE) =  -3033.12831869     A.U. after   21 cycles
            NFock= 21  Conv=0.67D-08     -V/T= 2.0021
 <Sx>= 0.0000 <Sy>= 0.0000 <Sz>= 2.5000 <S**2>= 8.7627 S= 2.5021
 <L.S>= 0.000000000000E+00
 Annihilation of the first spin contaminant:
 S**2 before annihilation     8.7627,   after     8.7500
 1\1\GINC-HOLY7C18604\SP\UPBE1PBE\Jul-CC-pVDZ\C8H16Cl3Fe1O1(6)\EKWAN\11
 -Feb-2020\0\\#t pop=none jul-cc-pvdz upbe1pbe\\theory_abbreviation pbe
 0\\0,6\O,0,-0.246062,-0.292019,-0.833979\C,0,-1.079138,-1.226776,-0.65
 7348\C,0,-2.956944,-0.178315,0.516144\C,0,-2.595599,0.953831,-0.13401\
 C,0,-3.09732,1.26961,-1.513436\Fe,0,1.460997,0.143668,0.003878\Cl,0,2.
 057491,2.020521,-0.929321\C,0,-1.682059,1.989522,0.443539\Cl,0,2.66837
 1,-1.608406,-0.513729\Cl,0,1.127886,0.303792,2.173558\H,0,-3.6871,-0.8
 20156,0.024859\H,0,-2.220849,2.941496,0.541425\H,0,-1.274255,1.724614,
 1.418054\H,0,-0.845941,2.180248,-0.241385\H,0,-3.608909,2.2406,-1.5051
 7\H,0,-2.259374,1.369539,-2.216255\H,0,-3.79954,0.521728,-1.890356\C,0
 ,-2.753118,-0.440282,1.987815\H,0,-3.532206,0.075291,2.56491\H,0,-2.83
 984,-1.504594,2.221883\H,0,-1.786379,-0.09027,2.357258\C,0,-0.863747,-
 2.228167,0.43949\H,0,-1.745107,-2.845115,0.617792\H,0,-0.050022,-2.877
 714,0.083853\H,0,-0.523933,-1.761965,1.36373\C,0,-1.858219,-1.68265,-1
 .860447\H,0,-1.208203,-2.406584,-2.372871\H,0,-2.784403,-2.193754,-1.5
 94513\H,0,-2.048224,-0.863651,-2.551333\\Version=ES64L-G16RevA.03\HF=-
 3033.1283187\S2=8.762698\S2-1=0.\S2A=8.75005\RMSD=6.707e-09\PG=C01 [X(
 C8H16Cl3Fe1O1)]\\@


 THE MORE PROGRESS PHYSICAL SCIENCES MAKE, THE MORE THEY TEND TO ENTER
 THE DOMAIN OF MATHEMATICS, WHICH IS A KIND OF CENTRE TO WHICH THEY ALL
 CONVERGE.  WE MAY EVEN JUDGE THE DEGREE OF PERFECTION TO WHICH A 
 SCIENCE HAS ARRIVED BY THE FACILITY WITH WHICH IT MAY BE SUBMITTED
 TO CALCULATION.

                               -- ADOLPHE QUETELET, 1796-1874
 Job cpu time:       0 days  1 hours 22 minutes 17.1 seconds.
 Elapsed time:       0 days  0 hours 20 minutes 38.0 seconds.
 File lengths (MBytes):  RWF=    173 Int=      0 D2E=      0 Chk=     13 Scr=      1
 Normal termination of Gaussian 16 at Tue Feb 11 23:38:03 2020.
 Initial command:
 /n/sw/g16_nehalem/g16/l1.exe "/scratch/Gau-227302.inp" -scrdir="/scratch/"
 Entering Link 1 = /n/sw/g16_nehalem/g16/l1.exe PID=    228914.
  
 Copyright (c) 1988,1990,1992,1993,1995,1998,2003,2009,2016,
            Gaussian, Inc.  All Rights Reserved.
  
 This is part of the Gaussian(R) 16 program.  It is based on
 the Gaussian(R) 09 system (copyright 2009, Gaussian, Inc.),
 the Gaussian(R) 03 system (copyright 2003, Gaussian, Inc.),
 the Gaussian(R) 98 system (copyright 1998, Gaussian, Inc.),
 the Gaussian(R) 94 system (copyright 1995, Gaussian, Inc.),
 the Gaussian 92(TM) system (copyright 1992, Gaussian, Inc.),
 the Gaussian 90(TM) system (copyright 1990, Gaussian, Inc.),
 the Gaussian 88(TM) system (copyright 1988, Gaussian, Inc.),
 the Gaussian 86(TM) system (copyright 1986, Carnegie Mellon
 University), and the Gaussian 82(TM) system (copyright 1983,
 Carnegie Mellon University). Gaussian is a federally registered
 trademark of Gaussian, Inc.
  
 This software contains proprietary and confidential information,
 including trade secrets, belonging to Gaussian, Inc.
  
 This software is provided under written license and may be
 used, copied, transmitted, or stored only in accord with that
 written license.
  
 The following legend is applicable only to US Government
 contracts under FAR:
  
                    RESTRICTED RIGHTS LEGEND
  
 Use, reproduction and disclosure by the US Government is
 subject to restrictions as set forth in subparagraphs (a)
 and (c) of the Commercial Computer Software - Restricted
 Rights clause in FAR 52.227-19.
  
 Gaussian, Inc.
 340 Quinnipiac St., Bldg. 40, Wallingford CT 06492
  
  
 ---------------------------------------------------------------
 Warning -- This program may not be used in any manner that
 competes with the business of Gaussian, Inc. or will provide
 assistance to any competitor of Gaussian, Inc.  The licensee
 of this program is prohibited from giving any competitor of
 Gaussian, Inc. access to this program.  By using this program,
 the user acknowledges that Gaussian, Inc. is engaged in the
 business of creating and licensing software in the field of
 computational chemistry and represents and warrants to the
 licensee that it is not a competitor of Gaussian, Inc. and that
 it will not use this program in any manner prohibited above.
 ---------------------------------------------------------------
  

 Cite this work as:
 Gaussian 16, Revision A.03,
 M. J. Frisch, G. W. Trucks, H. B. Schlegel, G. E. Scuseria, 
 M. A. Robb, J. R. Cheeseman, G. Scalmani, V. Barone, 
 G. A. Petersson, H. Nakatsuji, X. Li, M. Caricato, A. V. Marenich, 
 J. Bloino, B. G. Janesko, R. Gomperts, B. Mennucci, H. P. Hratchian, 
 J. V. Ortiz, A. F. Izmaylov, J. L. Sonnenberg, D. Williams-Young, 
 F. Ding, F. Lipparini, F. Egidi, J. Goings, B. Peng, A. Petrone, 
 T. Henderson, D. Ranasinghe, V. G. Zakrzewski, J. Gao, N. Rega, 
 G. Zheng, W. Liang, M. Hada, M. Ehara, K. Toyota, R. Fukuda, 
 J. Hasegawa, M. Ishida, T. Nakajima, Y. Honda, O. Kitao, H. Nakai, 
 T. Vreven, K. Throssell, J. A. Montgomery, Jr., J. E. Peralta, 
 F. Ogliaro, M. J. Bearpark, J. J. Heyd, E. N. Brothers, K. N. Kudin, 
 V. N. Staroverov, T. A. Keith, R. Kobayashi, J. Normand, 
 K. Raghavachari, A. P. Rendell, J. C. Burant, S. S. Iyengar, 
 J. Tomasi, M. Cossi, J. M. Millam, M. Klene, C. Adamo, R. Cammi, 
 J. W. Ochterski, R. L. Martin, K. Morokuma, O. Farkas, 
 J. B. Foresman, and D. J. Fox, Gaussian, Inc., Wallingford CT, 2016.
 
 ******************************************
 Gaussian 16:  ES64L-G16RevA.03 25-Dec-2016
                11-Feb-2020 
 ******************************************
 %chk=checkpoint.chk
 %mem=3GB
 %nprocshared=4
 Will use up to    4 processors via shared memory.
 ---------------------------------------------------------------------
 #t pop=none jul-cc-pvdz guess=read upbe1pbe empiricaldispersion=gd3bj
 ---------------------------------------------------------------------
 -----------------------------
 theory_abbreviation pbe0_d3bj
 -----------------------------
 Symbolic Z-matrix:
 Charge =  0 Multiplicity = 6
 O                    -0.24606  -0.29202  -0.83398 
 C                    -1.07914  -1.22678  -0.65735 
 C                    -2.95694  -0.17832   0.51614 
 C                    -2.5956    0.95383  -0.13401 
 C                    -3.09732   1.26961  -1.51344 
 Fe                    1.461     0.14367   0.00388 
 Cl                    2.05749   2.02052  -0.92932 
 C                    -1.68206   1.98952   0.44354 
 Cl                    2.66837  -1.60841  -0.51373 
 Cl                    1.12789   0.30379   2.17356 
 H                    -3.6871   -0.82016   0.02486 
 H                    -2.22085   2.9415    0.54143 
 H                    -1.27426   1.72461   1.41805 
 H                    -0.84594   2.18025  -0.24139 
 H                    -3.60891   2.2406   -1.50517 
 H                    -2.25937   1.36954  -2.21626 
 H                    -3.79954   0.52173  -1.89036 
 C                    -2.75312  -0.44028   1.98782 
 H                    -3.53221   0.07529   2.56491 
 H                    -2.83984  -1.50459   2.22188 
 H                    -1.78638  -0.09027   2.35726 
 C                    -0.86375  -2.22817   0.43949 
 H                    -1.74511  -2.84512   0.61779 
 H                    -0.05002  -2.87771   0.08385 
 H                    -0.52393  -1.76197   1.36373 
 C                    -1.85822  -1.68265  -1.86045 
 H                    -1.2082   -2.40658  -2.37287 
 H                    -2.7844   -2.19375  -1.59451 
 H                    -2.04822  -0.86365  -2.55133 
 
                    Distance matrix (angstroms):
                    1          2          3          4          5
     1  O    0.000000
     2  C    1.264510   0.000000
     3  C    3.030617   2.450002   0.000000
     4  C    2.749986   2.707136   1.354631   0.000000
     5  C    3.321147   3.322332   2.497076   1.501418   0.000000
     6  Fe   1.950866   2.961017   4.459181   4.139003   4.934394
     7  Cl   3.265469   4.522980   5.662933   4.839586   5.241864
     8  C    2.983215   3.452541   2.515973   1.496922   2.520117
     9  Cl   3.213931   3.769628   5.894910   5.866739   6.521164
    10  Cl   3.359762   3.902259   4.434556   4.428517   5.690263
    11  H    3.585704   2.726208   1.089242   2.088934   2.661074
    12  H    4.030774   4.484981   3.205573   2.132478   2.790315
    13  H    3.193062   3.613318   2.695556   2.179211   3.481986
    14  H    2.612112   3.440235   3.254689   2.139376   2.741548
    15  H    4.263027   4.375070   3.218993   2.136036   1.097549
    16  H    2.953792   3.250231   3.216902   2.149792   1.098223
    17  H    3.795434   3.460948   2.644101   2.172772   1.092936
    18  C    3.777543   3.227641   1.508638   2.543719   3.911645
    19  H    4.741952   4.253924   2.143055   2.988852   4.271818
    20  H    4.187638   3.386329   2.163856   3.413757   4.659948
    21  H    3.549264   3.298437   2.183501   2.819823   4.306984
    22  C    2.398318   1.500743   2.930741   3.667877   4.586634
    23  H    3.297434   2.165299   2.930990   3.964913   4.827170
    24  H    2.750757   2.081839   3.990467   4.605232   5.388660
    25  H    2.658548   2.163200   3.024218   3.729688   4.908243
    26  C    2.363587   1.504073   3.019670   3.236564   3.220501
    27  H    2.786627   2.086055   4.045947   4.269632   4.221587
    28  H    3.261623   2.172845   2.923463   3.475055   3.478416
    29  H    2.554184   2.158279   3.271830   3.073485   2.593961
                    6          7          8          9         10
     6  Fe   0.000000
     7  Cl   2.179276   0.000000
     8  C    3.671414   3.983709   0.000000
     9  Cl   2.189848   3.703377   5.726054   0.000000
    10  Cl   2.200935   3.665949   3.705461   3.640207   0.000000
    11  H    5.237585   6.479215   3.477035   6.426774   5.391128
    12  H    4.655404   4.616869   1.098240   6.761614   4.564577
    13  H    3.461342   4.086351   1.089110   5.512269   2.891332
    14  H    3.087033   2.988091   1.097538   5.174791   3.639922
    15  H    5.690193   5.699836   2.751955   7.429808   6.302499
    16  H    4.502545   4.551406   2.791447   6.004117   5.646220
    17  H    5.603954   6.121665   3.476379   6.947406   6.390807
    18  C    4.694227   6.140618   3.071792   6.083977   3.956051
    19  H    5.612097   6.873011   3.404047   7.124606   4.682075
    20  H    5.112095   6.807376   4.088008   6.150995   4.360670
    21  H    4.017285   5.480180   2.828204   5.512903   2.946518
    22  C    3.349596   5.334663   4.296342   3.710605   3.658471
    23  H    4.425926   6.366139   4.838187   4.721078   4.537633
    24  H    3.379101   5.427784   5.146154   3.059070   3.984509
    25  H    3.069297   5.121429   4.032575   3.706648   2.766167
    26  C    4.222362   5.469301   4.338690   4.723259   5.397775
    27  H    4.390598   5.687517   5.242371   4.372794   5.785626
    28  H    5.103118   6.453412   4.782114   5.589586   5.978470
    29  H    4.456279   5.273165   4.152581   5.191605   5.811643
                   11         12         13         14         15
    11  H    0.000000
    12  H    4.070228   0.000000
    13  H    3.773416   1.773505   0.000000
    14  H    4.140712   1.755751   1.773356   0.000000
    15  H    3.422766   2.570315   3.776518   3.038879   0.000000
    16  H    3.443219   3.174481   3.782161   2.560303   1.756597
    17  H    2.341227   3.776387   4.332387   3.767432   1.771787
    18  C    2.206768   3.716420   2.682991   3.933679   4.485583
    19  H    2.697717   3.745568   3.022232   4.418388   4.610856
    20  H    2.452187   4.793204   3.677633   4.860183   5.339370
    21  H    3.096055   3.560564   2.106699   3.576677   4.865483
    22  C    3.182096   5.345796   4.092747   4.460721   5.593523
    23  H    2.867641   5.806637   4.663105   5.176964   5.817665
    24  H    4.179158   6.227766   4.945732   5.130521   6.433336
    25  H    3.561630   5.067372   3.566815   4.268621   5.811040
    26  C    2.764612   5.223334   4.764350   4.309066   4.310804
    27  H    3.796155   6.174183   5.607341   5.070847   5.302133
    28  H    2.307379   5.590225   5.168144   4.971970   4.511240
    29  H    3.053616   4.906536   4.801477   4.005829   3.628577
                   16         17         18         19         20
    16  H    0.000000
    17  H    1.788045   0.000000
    18  C    4.603633   4.130457   0.000000
    19  H    5.114168   4.485551   1.098104   0.000000
    20  H    5.319272   4.683750   1.093192   1.758714   0.000000
    21  H    4.824084   4.740209   1.092511   1.765911   1.768734
    22  C    4.684468   4.648547   3.027138   4.116309   2.757794
    23  H    5.104861   4.674092   2.945551   3.938751   2.359776
    24  H    5.311393   5.432549   4.107660   5.196296   3.773555
    25  H    5.063039   5.151110   2.665632   3.723983   2.483162
    26  C    3.098932   2.937500   4.141672   5.047413   4.202464
    27  H    3.922830   3.939906   5.026797   5.995196   4.958587
    28  H    3.655034   2.914081   3.988573   4.796725   3.878517
    29  H    2.268039   2.328792   4.613023   5.409229   4.880682
                   21         22         23         24         25
    21  H    0.000000
    22  C    3.016569   0.000000
    23  H    3.258315   1.090510   0.000000
    24  H    3.994139   1.100244   1.777489   0.000000
    25  H    2.318498   1.089512   1.794688   1.762831   0.000000
    26  C    4.508866   2.564425   2.739669   2.911710   3.490262
    27  H    5.298464   2.838989   3.069958   2.756599   3.853044
    28  H    4.586632   2.797726   2.529565   3.280481   3.747982
    29  H    4.976037   3.494268   3.749858   3.872140   4.296295
                   26         27         28         29
    26  C    0.000000
    27  H    1.099627   0.000000
    28  H    1.090763   1.770747   0.000000
    29  H    1.088203   1.765822   1.796285   0.000000
 Framework group  C1[X(C8H16Cl3FeO)]
 Deg. of freedom    81
                         Standard orientation:                         
 ---------------------------------------------------------------------
 Center     Atomic      Atomic             Coordinates (Angstroms)
 Number     Number       Type             X           Y           Z
 ---------------------------------------------------------------------
      1          8           0       -0.246062   -0.292019   -0.833979
      2          6           0       -1.079138   -1.226776   -0.657348
      3          6           0       -2.956944   -0.178315    0.516144
      4          6           0       -2.595599    0.953831   -0.134010
      5          6           0       -3.097320    1.269610   -1.513436
      6         26           0        1.460997    0.143668    0.003878
      7         17           0        2.057491    2.020521   -0.929321
      8          6           0       -1.682059    1.989522    0.443539
      9         17           0        2.668371   -1.608406   -0.513729
     10         17           0        1.127886    0.303792    2.173558
     11          1           0       -3.687100   -0.820156    0.024859
     12          1           0       -2.220849    2.941496    0.541425
     13          1           0       -1.274255    1.724614    1.418054
     14          1           0       -0.845941    2.180248   -0.241385
     15          1           0       -3.608909    2.240600   -1.505170
     16          1           0       -2.259374    1.369539   -2.216255
     17          1           0       -3.799540    0.521728   -1.890356
     18          6           0       -2.753118   -0.440282    1.987815
     19          1           0       -3.532206    0.075291    2.564910
     20          1           0       -2.839840   -1.504594    2.221883
     21          1           0       -1.786379   -0.090270    2.357258
     22          6           0       -0.863747   -2.228167    0.439490
     23          1           0       -1.745107   -2.845115    0.617792
     24          1           0       -0.050022   -2.877714    0.083853
     25          1           0       -0.523933   -1.761965    1.363730
     26          6           0       -1.858219   -1.682650   -1.860447
     27          1           0       -1.208203   -2.406584   -2.372871
     28          1           0       -2.784403   -2.193754   -1.594513
     29          1           0       -2.048224   -0.863651   -2.551333
 ---------------------------------------------------------------------
 Rotational constants (GHZ):           0.5732500           0.3297791           0.3103694
   427 basis functions,  1056 primitive gaussians,   461 cartesian basis functions
    77 alpha electrons       72 beta electrons
       nuclear repulsion energy      1633.5441917972 Hartrees.
 NAtoms=   29 NActive=   29 NUniq=   29 SFac= 1.00D+00 NAtFMM=   60 NAOKFM=F Big=F
 Nuclear repulsion after empirical dispersion term =     1633.5069893550 Hartrees.
 Initial guess from the checkpoint file:  "checkpoint.chk"
 B after Tr=     0.000000    0.000000    0.000000
         Rot=    1.000000    0.000000    0.000000    0.000000 Ang=   0.00 deg.
 Initial guess <Sx>= 0.0000 <Sy>= 0.0000 <Sz>= 2.5000 <S**2>= 8.7627 S= 2.5021
 SCF Done:  E(UPBE1PBE) =  -3033.16552113     A.U. after    1 cycles
            NFock=  1  Conv=0.29D-08     -V/T= 2.0021
 <Sx>= 0.0000 <Sy>= 0.0000 <Sz>= 2.5000 <S**2>= 8.7627 S= 2.5021
 <L.S>= 0.000000000000E+00
 Annihilation of the first spin contaminant:
 S**2 before annihilation     8.7627,   after     8.7500
 1\1\GINC-HOLY7C18604\SP\UPBE1PBE\Jul-CC-pVDZ\C8H16Cl3Fe1O1(6)\EKWAN\11
 -Feb-2020\0\\#t pop=none jul-cc-pvdz guess=read upbe1pbe empiricaldisp
 ersion=gd3bj\\theory_abbreviation pbe0_d3bj\\0,6\O,0,-0.246062,-0.2920
 19,-0.833979\C,0,-1.079138,-1.226776,-0.657348\C,0,-2.956944,-0.178315
 ,0.516144\C,0,-2.595599,0.953831,-0.13401\C,0,-3.09732,1.26961,-1.5134
 36\Fe,0,1.460997,0.143668,0.003878\Cl,0,2.057491,2.020521,-0.929321\C,
 0,-1.682059,1.989522,0.443539\Cl,0,2.668371,-1.608406,-0.513729\Cl,0,1
 .127886,0.303792,2.173558\H,0,-3.6871,-0.820156,0.024859\H,0,-2.220849
 ,2.941496,0.541425\H,0,-1.274255,1.724614,1.418054\H,0,-0.845941,2.180
 248,-0.241385\H,0,-3.608909,2.2406,-1.50517\H,0,-2.259374,1.369539,-2.
 216255\H,0,-3.79954,0.521728,-1.890356\C,0,-2.753118,-0.440282,1.98781
 5\H,0,-3.532206,0.075291,2.56491\H,0,-2.83984,-1.504594,2.221883\H,0,-
 1.786379,-0.09027,2.357258\C,0,-0.863747,-2.228167,0.43949\H,0,-1.7451
 07,-2.845115,0.617792\H,0,-0.050022,-2.877714,0.083853\H,0,-0.523933,-
 1.761965,1.36373\C,0,-1.858219,-1.68265,-1.860447\H,0,-1.208203,-2.406
 584,-2.372871\H,0,-2.784403,-2.193754,-1.594513\H,0,-2.048224,-0.86365
 1,-2.551333\\Version=ES64L-G16RevA.03\HF=-3033.1655211\S2=8.762698\S2-
 1=0.\S2A=8.75005\RMSD=2.917e-09\PG=C01 [X(C8H16Cl3Fe1O1)]\\@


 Ideas are like rabbits. You get a couple and learn
 how to handle them, and pretty soon you have a dozen.
                                    -- John Steinbeck
 Job cpu time:       0 days  0 hours  4 minutes 16.9 seconds.
 Elapsed time:       0 days  0 hours  1 minutes  4.9 seconds.
 File lengths (MBytes):  RWF=    170 Int=      0 D2E=      0 Chk=     13 Scr=      1
 Normal termination of Gaussian 16 at Tue Feb 11 23:39:09 2020.
 Initial command:
 /n/sw/g16_nehalem/g16/l1.exe "/scratch/Gau-227302.inp" -scrdir="/scratch/"
 Entering Link 1 = /n/sw/g16_nehalem/g16/l1.exe PID=    229016.
  
 Copyright (c) 1988,1990,1992,1993,1995,1998,2003,2009,2016,
            Gaussian, Inc.  All Rights Reserved.
  
 This is part of the Gaussian(R) 16 program.  It is based on
 the Gaussian(R) 09 system (copyright 2009, Gaussian, Inc.),
 the Gaussian(R) 03 system (copyright 2003, Gaussian, Inc.),
 the Gaussian(R) 98 system (copyright 1998, Gaussian, Inc.),
 the Gaussian(R) 94 system (copyright 1995, Gaussian, Inc.),
 the Gaussian 92(TM) system (copyright 1992, Gaussian, Inc.),
 the Gaussian 90(TM) system (copyright 1990, Gaussian, Inc.),
 the Gaussian 88(TM) system (copyright 1988, Gaussian, Inc.),
 the Gaussian 86(TM) system (copyright 1986, Carnegie Mellon
 University), and the Gaussian 82(TM) system (copyright 1983,
 Carnegie Mellon University). Gaussian is a federally registered
 trademark of Gaussian, Inc.
  
 This software contains proprietary and confidential information,
 including trade secrets, belonging to Gaussian, Inc.
  
 This software is provided under written license and may be
 used, copied, transmitted, or stored only in accord with that
 written license.
  
 The following legend is applicable only to US Government
 contracts under FAR:
  
                    RESTRICTED RIGHTS LEGEND
  
 Use, reproduction and disclosure by the US Government is
 subject to restrictions as set forth in subparagraphs (a)
 and (c) of the Commercial Computer Software - Restricted
 Rights clause in FAR 52.227-19.
  
 Gaussian, Inc.
 340 Quinnipiac St., Bldg. 40, Wallingford CT 06492
  
  
 ---------------------------------------------------------------
 Warning -- This program may not be used in any manner that
 competes with the business of Gaussian, Inc. or will provide
 assistance to any competitor of Gaussian, Inc.  The licensee
 of this program is prohibited from giving any competitor of
 Gaussian, Inc. access to this program.  By using this program,
 the user acknowledges that Gaussian, Inc. is engaged in the
 business of creating and licensing software in the field of
 computational chemistry and represents and warrants to the
 licensee that it is not a competitor of Gaussian, Inc. and that
 it will not use this program in any manner prohibited above.
 ---------------------------------------------------------------
  

 Cite this work as:
 Gaussian 16, Revision A.03,
 M. J. Frisch, G. W. Trucks, H. B. Schlegel, G. E. Scuseria, 
 M. A. Robb, J. R. Cheeseman, G. Scalmani, V. Barone, 
 G. A. Petersson, H. Nakatsuji, X. Li, M. Caricato, A. V. Marenich, 
 J. Bloino, B. G. Janesko, R. Gomperts, B. Mennucci, H. P. Hratchian, 
 J. V. Ortiz, A. F. Izmaylov, J. L. Sonnenberg, D. Williams-Young, 
 F. Ding, F. Lipparini, F. Egidi, J. Goings, B. Peng, A. Petrone, 
 T. Henderson, D. Ranasinghe, V. G. Zakrzewski, J. Gao, N. Rega, 
 G. Zheng, W. Liang, M. Hada, M. Ehara, K. Toyota, R. Fukuda, 
 J. Hasegawa, M. Ishida, T. Nakajima, Y. Honda, O. Kitao, H. Nakai, 
 T. Vreven, K. Throssell, J. A. Montgomery, Jr., J. E. Peralta, 
 F. Ogliaro, M. J. Bearpark, J. J. Heyd, E. N. Brothers, K. N. Kudin, 
 V. N. Staroverov, T. A. Keith, R. Kobayashi, J. Normand, 
 K. Raghavachari, A. P. Rendell, J. C. Burant, S. S. Iyengar, 
 J. Tomasi, M. Cossi, J. M. Millam, M. Klene, C. Adamo, R. Cammi, 
 J. W. Ochterski, R. L. Martin, K. Morokuma, O. Farkas, 
 J. B. Foresman, and D. J. Fox, Gaussian, Inc., Wallingford CT, 2016.
 
 ******************************************
 Gaussian 16:  ES64L-G16RevA.03 25-Dec-2016
                11-Feb-2020 
 ******************************************
 %chk=checkpoint.chk
 %mem=3GB
 %nprocshared=4
 Will use up to    4 processors via shared memory.
 -----------------------------------------
 #t pop=none jul-cc-pvdz guess=read ub3lyp
 -----------------------------------------
 -------------------------
 theory_abbreviation b3lyp
 -------------------------
 Symbolic Z-matrix:
 Charge =  0 Multiplicity = 6
 O                    -0.24606  -0.29202  -0.83398 
 C                    -1.07914  -1.22678  -0.65735 
 C                    -2.95694  -0.17832   0.51614 
 C                    -2.5956    0.95383  -0.13401 
 C                    -3.09732   1.26961  -1.51344 
 Fe                    1.461     0.14367   0.00388 
 Cl                    2.05749   2.02052  -0.92932 
 C                    -1.68206   1.98952   0.44354 
 Cl                    2.66837  -1.60841  -0.51373 
 Cl                    1.12789   0.30379   2.17356 
 H                    -3.6871   -0.82016   0.02486 
 H                    -2.22085   2.9415    0.54143 
 H                    -1.27426   1.72461   1.41805 
 H                    -0.84594   2.18025  -0.24139 
 H                    -3.60891   2.2406   -1.50517 
 H                    -2.25937   1.36954  -2.21626 
 H                    -3.79954   0.52173  -1.89036 
 C                    -2.75312  -0.44028   1.98782 
 H                    -3.53221   0.07529   2.56491 
 H                    -2.83984  -1.50459   2.22188 
 H                    -1.78638  -0.09027   2.35726 
 C                    -0.86375  -2.22817   0.43949 
 H                    -1.74511  -2.84512   0.61779 
 H                    -0.05002  -2.87771   0.08385 
 H                    -0.52393  -1.76197   1.36373 
 C                    -1.85822  -1.68265  -1.86045 
 H                    -1.2082   -2.40658  -2.37287 
 H                    -2.7844   -2.19375  -1.59451 
 H                    -2.04822  -0.86365  -2.55133 
 
                    Distance matrix (angstroms):
                    1          2          3          4          5
     1  O    0.000000
     2  C    1.264510   0.000000
     3  C    3.030617   2.450002   0.000000
     4  C    2.749986   2.707136   1.354631   0.000000
     5  C    3.321147   3.322332   2.497076   1.501418   0.000000
     6  Fe   1.950866   2.961017   4.459181   4.139003   4.934394
     7  Cl   3.265469   4.522980   5.662933   4.839586   5.241864
     8  C    2.983215   3.452541   2.515973   1.496922   2.520117
     9  Cl   3.213931   3.769628   5.894910   5.866739   6.521164
    10  Cl   3.359762   3.902259   4.434556   4.428517   5.690263
    11  H    3.585704   2.726208   1.089242   2.088934   2.661074
    12  H    4.030774   4.484981   3.205573   2.132478   2.790315
    13  H    3.193062   3.613318   2.695556   2.179211   3.481986
    14  H    2.612112   3.440235   3.254689   2.139376   2.741548
    15  H    4.263027   4.375070   3.218993   2.136036   1.097549
    16  H    2.953792   3.250231   3.216902   2.149792   1.098223
    17  H    3.795434   3.460948   2.644101   2.172772   1.092936
    18  C    3.777543   3.227641   1.508638   2.543719   3.911645
    19  H    4.741952   4.253924   2.143055   2.988852   4.271818
    20  H    4.187638   3.386329   2.163856   3.413757   4.659948
    21  H    3.549264   3.298437   2.183501   2.819823   4.306984
    22  C    2.398318   1.500743   2.930741   3.667877   4.586634
    23  H    3.297434   2.165299   2.930990   3.964913   4.827170
    24  H    2.750757   2.081839   3.990467   4.605232   5.388660
    25  H    2.658548   2.163200   3.024218   3.729688   4.908243
    26  C    2.363587   1.504073   3.019670   3.236564   3.220501
    27  H    2.786627   2.086055   4.045947   4.269632   4.221587
    28  H    3.261623   2.172845   2.923463   3.475055   3.478416
    29  H    2.554184   2.158279   3.271830   3.073485   2.593961
                    6          7          8          9         10
     6  Fe   0.000000
     7  Cl   2.179276   0.000000
     8  C    3.671414   3.983709   0.000000
     9  Cl   2.189848   3.703377   5.726054   0.000000
    10  Cl   2.200935   3.665949   3.705461   3.640207   0.000000
    11  H    5.237585   6.479215   3.477035   6.426774   5.391128
    12  H    4.655404   4.616869   1.098240   6.761614   4.564577
    13  H    3.461342   4.086351   1.089110   5.512269   2.891332
    14  H    3.087033   2.988091   1.097538   5.174791   3.639922
    15  H    5.690193   5.699836   2.751955   7.429808   6.302499
    16  H    4.502545   4.551406   2.791447   6.004117   5.646220
    17  H    5.603954   6.121665   3.476379   6.947406   6.390807
    18  C    4.694227   6.140618   3.071792   6.083977   3.956051
    19  H    5.612097   6.873011   3.404047   7.124606   4.682075
    20  H    5.112095   6.807376   4.088008   6.150995   4.360670
    21  H    4.017285   5.480180   2.828204   5.512903   2.946518
    22  C    3.349596   5.334663   4.296342   3.710605   3.658471
    23  H    4.425926   6.366139   4.838187   4.721078   4.537633
    24  H    3.379101   5.427784   5.146154   3.059070   3.984509
    25  H    3.069297   5.121429   4.032575   3.706648   2.766167
    26  C    4.222362   5.469301   4.338690   4.723259   5.397775
    27  H    4.390598   5.687517   5.242371   4.372794   5.785626
    28  H    5.103118   6.453412   4.782114   5.589586   5.978470
    29  H    4.456279   5.273165   4.152581   5.191605   5.811643
                   11         12         13         14         15
    11  H    0.000000
    12  H    4.070228   0.000000
    13  H    3.773416   1.773505   0.000000
    14  H    4.140712   1.755751   1.773356   0.000000
    15  H    3.422766   2.570315   3.776518   3.038879   0.000000
    16  H    3.443219   3.174481   3.782161   2.560303   1.756597
    17  H    2.341227   3.776387   4.332387   3.767432   1.771787
    18  C    2.206768   3.716420   2.682991   3.933679   4.485583
    19  H    2.697717   3.745568   3.022232   4.418388   4.610856
    20  H    2.452187   4.793204   3.677633   4.860183   5.339370
    21  H    3.096055   3.560564   2.106699   3.576677   4.865483
    22  C    3.182096   5.345796   4.092747   4.460721   5.593523
    23  H    2.867641   5.806637   4.663105   5.176964   5.817665
    24  H    4.179158   6.227766   4.945732   5.130521   6.433336
    25  H    3.561630   5.067372   3.566815   4.268621   5.811040
    26  C    2.764612   5.223334   4.764350   4.309066   4.310804
    27  H    3.796155   6.174183   5.607341   5.070847   5.302133
    28  H    2.307379   5.590225   5.168144   4.971970   4.511240
    29  H    3.053616   4.906536   4.801477   4.005829   3.628577
                   16         17         18         19         20
    16  H    0.000000
    17  H    1.788045   0.000000
    18  C    4.603633   4.130457   0.000000
    19  H    5.114168   4.485551   1.098104   0.000000
    20  H    5.319272   4.683750   1.093192   1.758714   0.000000
    21  H    4.824084   4.740209   1.092511   1.765911   1.768734
    22  C    4.684468   4.648547   3.027138   4.116309   2.757794
    23  H    5.104861   4.674092   2.945551   3.938751   2.359776
    24  H    5.311393   5.432549   4.107660   5.196296   3.773555
    25  H    5.063039   5.151110   2.665632   3.723983   2.483162
    26  C    3.098932   2.937500   4.141672   5.047413   4.202464
    27  H    3.922830   3.939906   5.026797   5.995196   4.958587
    28  H    3.655034   2.914081   3.988573   4.796725   3.878517
    29  H    2.268039   2.328792   4.613023   5.409229   4.880682
                   21         22         23         24         25
    21  H    0.000000
    22  C    3.016569   0.000000
    23  H    3.258315   1.090510   0.000000
    24  H    3.994139   1.100244   1.777489   0.000000
    25  H    2.318498   1.089512   1.794688   1.762831   0.000000
    26  C    4.508866   2.564425   2.739669   2.911710   3.490262
    27  H    5.298464   2.838989   3.069958   2.756599   3.853044
    28  H    4.586632   2.797726   2.529565   3.280481   3.747982
    29  H    4.976037   3.494268   3.749858   3.872140   4.296295
                   26         27         28         29
    26  C    0.000000
    27  H    1.099627   0.000000
    28  H    1.090763   1.770747   0.000000
    29  H    1.088203   1.765822   1.796285   0.000000
 Framework group  C1[X(C8H16Cl3FeO)]
 Deg. of freedom    81
                         Standard orientation:                         
 ---------------------------------------------------------------------
 Center     Atomic      Atomic             Coordinates (Angstroms)
 Number     Number       Type             X           Y           Z
 ---------------------------------------------------------------------
      1          8           0       -0.246062   -0.292019   -0.833979
      2          6           0       -1.079138   -1.226776   -0.657348
      3          6           0       -2.956944   -0.178315    0.516144
      4          6           0       -2.595599    0.953831   -0.134010
      5          6           0       -3.097320    1.269610   -1.513436
      6         26           0        1.460997    0.143668    0.003878
      7         17           0        2.057491    2.020521   -0.929321
      8          6           0       -1.682059    1.989522    0.443539
      9         17           0        2.668371   -1.608406   -0.513729
     10         17           0        1.127886    0.303792    2.173558
     11          1           0       -3.687100   -0.820156    0.024859
     12          1           0       -2.220849    2.941496    0.541425
     13          1           0       -1.274255    1.724614    1.418054
     14          1           0       -0.845941    2.180248   -0.241385
     15          1           0       -3.608909    2.240600   -1.505170
     16          1           0       -2.259374    1.369539   -2.216255
     17          1           0       -3.799540    0.521728   -1.890356
     18          6           0       -2.753118   -0.440282    1.987815
     19          1           0       -3.532206    0.075291    2.564910
     20          1           0       -2.839840   -1.504594    2.221883
     21          1           0       -1.786379   -0.090270    2.357258
     22          6           0       -0.863747   -2.228167    0.439490
     23          1           0       -1.745107   -2.845115    0.617792
     24          1           0       -0.050022   -2.877714    0.083853
     25          1           0       -0.523933   -1.761965    1.363730
     26          6           0       -1.858219   -1.682650   -1.860447
     27          1           0       -1.208203   -2.406584   -2.372871
     28          1           0       -2.784403   -2.193754   -1.594513
     29          1           0       -2.048224   -0.863651   -2.551333
 ---------------------------------------------------------------------
 Rotational constants (GHZ):           0.5732500           0.3297791           0.3103694
   427 basis functions,  1056 primitive gaussians,   461 cartesian basis functions
    77 alpha electrons       72 beta electrons
       nuclear repulsion energy      1633.5441917972 Hartrees.
 NAtoms=   29 NActive=   29 NUniq=   29 SFac= 1.00D+00 NAtFMM=   60 NAOKFM=F Big=F
 Initial guess from the checkpoint file:  "checkpoint.chk"
 B after Tr=     0.000000    0.000000    0.000000
         Rot=    1.000000    0.000000    0.000000    0.000000 Ang=   0.00 deg.
 Initial guess <Sx>= 0.0000 <Sy>= 0.0000 <Sz>= 2.5000 <S**2>= 8.7627 S= 2.5021
 SCF Done:  E(UB3LYP) =  -3034.34519261     A.U. after   13 cycles
            NFock= 13  Conv=0.70D-08     -V/T= 2.0024
 <Sx>= 0.0000 <Sy>= 0.0000 <Sz>= 2.5000 <S**2>= 8.7620 S= 2.5020
 <L.S>= 0.000000000000E+00
 Annihilation of the first spin contaminant:
 S**2 before annihilation     8.7620,   after     8.7500
 1\1\GINC-HOLY7C18604\SP\UB3LYP\Jul-CC-pVDZ\C8H16Cl3Fe1O1(6)\EKWAN\11-F
 eb-2020\0\\#t pop=none jul-cc-pvdz guess=read ub3lyp\\theory_abbreviat
 ion b3lyp\\0,6\O,0,-0.246062,-0.292019,-0.833979\C,0,-1.079138,-1.2267
 76,-0.657348\C,0,-2.956944,-0.178315,0.516144\C,0,-2.595599,0.953831,-
 0.13401\C,0,-3.09732,1.26961,-1.513436\Fe,0,1.460997,0.143668,0.003878
 \Cl,0,2.057491,2.020521,-0.929321\C,0,-1.682059,1.989522,0.443539\Cl,0
 ,2.668371,-1.608406,-0.513729\Cl,0,1.127886,0.303792,2.173558\H,0,-3.6
 871,-0.820156,0.024859\H,0,-2.220849,2.941496,0.541425\H,0,-1.274255,1
 .724614,1.418054\H,0,-0.845941,2.180248,-0.241385\H,0,-3.608909,2.2406
 ,-1.50517\H,0,-2.259374,1.369539,-2.216255\H,0,-3.79954,0.521728,-1.89
 0356\C,0,-2.753118,-0.440282,1.987815\H,0,-3.532206,0.075291,2.56491\H
 ,0,-2.83984,-1.504594,2.221883\H,0,-1.786379,-0.09027,2.357258\C,0,-0.
 863747,-2.228167,0.43949\H,0,-1.745107,-2.845115,0.617792\H,0,-0.05002
 2,-2.877714,0.083853\H,0,-0.523933,-1.761965,1.36373\C,0,-1.858219,-1.
 68265,-1.860447\H,0,-1.208203,-2.406584,-2.372871\H,0,-2.784403,-2.193
 754,-1.594513\H,0,-2.048224,-0.863651,-2.551333\\Version=ES64L-G16RevA
 .03\HF=-3034.3451926\S2=8.76198\S2-1=0.\S2A=8.750044\RMSD=7.014e-09\PG
 =C01 [X(C8H16Cl3Fe1O1)]\\@


 ...THOSE SCIENCES ARE VAIN AND FULL OF ERRORS WHICH 
 ARE NOT BORN FROM EXPERIMENT, THE MOTHER OF CERTAINTY...

                          -- LEONARDO DA VINCI, 1452-1519
 Job cpu time:       0 days  0 hours 50 minutes 16.7 seconds.
 Elapsed time:       0 days  0 hours 12 minutes 36.3 seconds.
 File lengths (MBytes):  RWF=    174 Int=      0 D2E=      0 Chk=     13 Scr=      1
 Normal termination of Gaussian 16 at Tue Feb 11 23:51:46 2020.
 Initial command:
 /n/sw/g16_nehalem/g16/l1.exe "/scratch/Gau-227302.inp" -scrdir="/scratch/"
 Entering Link 1 = /n/sw/g16_nehalem/g16/l1.exe PID=    229776.
  
 Copyright (c) 1988,1990,1992,1993,1995,1998,2003,2009,2016,
            Gaussian, Inc.  All Rights Reserved.
  
 This is part of the Gaussian(R) 16 program.  It is based on
 the Gaussian(R) 09 system (copyright 2009, Gaussian, Inc.),
 the Gaussian(R) 03 system (copyright 2003, Gaussian, Inc.),
 the Gaussian(R) 98 system (copyright 1998, Gaussian, Inc.),
 the Gaussian(R) 94 system (copyright 1995, Gaussian, Inc.),
 the Gaussian 92(TM) system (copyright 1992, Gaussian, Inc.),
 the Gaussian 90(TM) system (copyright 1990, Gaussian, Inc.),
 the Gaussian 88(TM) system (copyright 1988, Gaussian, Inc.),
 the Gaussian 86(TM) system (copyright 1986, Carnegie Mellon
 University), and the Gaussian 82(TM) system (copyright 1983,
 Carnegie Mellon University). Gaussian is a federally registered
 trademark of Gaussian, Inc.
  
 This software contains proprietary and confidential information,
 including trade secrets, belonging to Gaussian, Inc.
  
 This software is provided under written license and may be
 used, copied, transmitted, or stored only in accord with that
 written license.
  
 The following legend is applicable only to US Government
 contracts under FAR:
  
                    RESTRICTED RIGHTS LEGEND
  
 Use, reproduction and disclosure by the US Government is
 subject to restrictions as set forth in subparagraphs (a)
 and (c) of the Commercial Computer Software - Restricted
 Rights clause in FAR 52.227-19.
  
 Gaussian, Inc.
 340 Quinnipiac St., Bldg. 40, Wallingford CT 06492
  
  
 ---------------------------------------------------------------
 Warning -- This program may not be used in any manner that
 competes with the business of Gaussian, Inc. or will provide
 assistance to any competitor of Gaussian, Inc.  The licensee
 of this program is prohibited from giving any competitor of
 Gaussian, Inc. access to this program.  By using this program,
 the user acknowledges that Gaussian, Inc. is engaged in the
 business of creating and licensing software in the field of
 computational chemistry and represents and warrants to the
 licensee that it is not a competitor of Gaussian, Inc. and that
 it will not use this program in any manner prohibited above.
 ---------------------------------------------------------------
  

 Cite this work as:
 Gaussian 16, Revision A.03,
 M. J. Frisch, G. W. Trucks, H. B. Schlegel, G. E. Scuseria, 
 M. A. Robb, J. R. Cheeseman, G. Scalmani, V. Barone, 
 G. A. Petersson, H. Nakatsuji, X. Li, M. Caricato, A. V. Marenich, 
 J. Bloino, B. G. Janesko, R. Gomperts, B. Mennucci, H. P. Hratchian, 
 J. V. Ortiz, A. F. Izmaylov, J. L. Sonnenberg, D. Williams-Young, 
 F. Ding, F. Lipparini, F. Egidi, J. Goings, B. Peng, A. Petrone, 
 T. Henderson, D. Ranasinghe, V. G. Zakrzewski, J. Gao, N. Rega, 
 G. Zheng, W. Liang, M. Hada, M. Ehara, K. Toyota, R. Fukuda, 
 J. Hasegawa, M. Ishida, T. Nakajima, Y. Honda, O. Kitao, H. Nakai, 
 T. Vreven, K. Throssell, J. A. Montgomery, Jr., J. E. Peralta, 
 F. Ogliaro, M. J. Bearpark, J. J. Heyd, E. N. Brothers, K. N. Kudin, 
 V. N. Staroverov, T. A. Keith, R. Kobayashi, J. Normand, 
 K. Raghavachari, A. P. Rendell, J. C. Burant, S. S. Iyengar, 
 J. Tomasi, M. Cossi, J. M. Millam, M. Klene, C. Adamo, R. Cammi, 
 J. W. Ochterski, R. L. Martin, K. Morokuma, O. Farkas, 
 J. B. Foresman, and D. J. Fox, Gaussian, Inc., Wallingford CT, 2016.
 
 ******************************************
 Gaussian 16:  ES64L-G16RevA.03 25-Dec-2016
                11-Feb-2020 
 ******************************************
 %chk=checkpoint.chk
 %mem=3GB
 %nprocshared=4
 Will use up to    4 processors via shared memory.
 -------------------------------------------------------------------
 #t pop=none jul-cc-pvdz guess=read ub3lyp empiricaldispersion=gd3bj
 -------------------------------------------------------------------
 ------------------------------
 theory_abbreviation b3lyp_d3bj
 ------------------------------
 Symbolic Z-matrix:
 Charge =  0 Multiplicity = 6
 O                    -0.24606  -0.29202  -0.83398 
 C                    -1.07914  -1.22678  -0.65735 
 C                    -2.95694  -0.17832   0.51614 
 C                    -2.5956    0.95383  -0.13401 
 C                    -3.09732   1.26961  -1.51344 
 Fe                    1.461     0.14367   0.00388 
 Cl                    2.05749   2.02052  -0.92932 
 C                    -1.68206   1.98952   0.44354 
 Cl                    2.66837  -1.60841  -0.51373 
 Cl                    1.12789   0.30379   2.17356 
 H                    -3.6871   -0.82016   0.02486 
 H                    -2.22085   2.9415    0.54143 
 H                    -1.27426   1.72461   1.41805 
 H                    -0.84594   2.18025  -0.24139 
 H                    -3.60891   2.2406   -1.50517 
 H                    -2.25937   1.36954  -2.21626 
 H                    -3.79954   0.52173  -1.89036 
 C                    -2.75312  -0.44028   1.98782 
 H                    -3.53221   0.07529   2.56491 
 H                    -2.83984  -1.50459   2.22188 
 H                    -1.78638  -0.09027   2.35726 
 C                    -0.86375  -2.22817   0.43949 
 H                    -1.74511  -2.84512   0.61779 
 H                    -0.05002  -2.87771   0.08385 
 H                    -0.52393  -1.76197   1.36373 
 C                    -1.85822  -1.68265  -1.86045 
 H                    -1.2082   -2.40658  -2.37287 
 H                    -2.7844   -2.19375  -1.59451 
 H                    -2.04822  -0.86365  -2.55133 
 
                    Distance matrix (angstroms):
                    1          2          3          4          5
     1  O    0.000000
     2  C    1.264510   0.000000
     3  C    3.030617   2.450002   0.000000
     4  C    2.749986   2.707136   1.354631   0.000000
     5  C    3.321147   3.322332   2.497076   1.501418   0.000000
     6  Fe   1.950866   2.961017   4.459181   4.139003   4.934394
     7  Cl   3.265469   4.522980   5.662933   4.839586   5.241864
     8  C    2.983215   3.452541   2.515973   1.496922   2.520117
     9  Cl   3.213931   3.769628   5.894910   5.866739   6.521164
    10  Cl   3.359762   3.902259   4.434556   4.428517   5.690263
    11  H    3.585704   2.726208   1.089242   2.088934   2.661074
    12  H    4.030774   4.484981   3.205573   2.132478   2.790315
    13  H    3.193062   3.613318   2.695556   2.179211   3.481986
    14  H    2.612112   3.440235   3.254689   2.139376   2.741548
    15  H    4.263027   4.375070   3.218993   2.136036   1.097549
    16  H    2.953792   3.250231   3.216902   2.149792   1.098223
    17  H    3.795434   3.460948   2.644101   2.172772   1.092936
    18  C    3.777543   3.227641   1.508638   2.543719   3.911645
    19  H    4.741952   4.253924   2.143055   2.988852   4.271818
    20  H    4.187638   3.386329   2.163856   3.413757   4.659948
    21  H    3.549264   3.298437   2.183501   2.819823   4.306984
    22  C    2.398318   1.500743   2.930741   3.667877   4.586634
    23  H    3.297434   2.165299   2.930990   3.964913   4.827170
    24  H    2.750757   2.081839   3.990467   4.605232   5.388660
    25  H    2.658548   2.163200   3.024218   3.729688   4.908243
    26  C    2.363587   1.504073   3.019670   3.236564   3.220501
    27  H    2.786627   2.086055   4.045947   4.269632   4.221587
    28  H    3.261623   2.172845   2.923463   3.475055   3.478416
    29  H    2.554184   2.158279   3.271830   3.073485   2.593961
                    6          7          8          9         10
     6  Fe   0.000000
     7  Cl   2.179276   0.000000
     8  C    3.671414   3.983709   0.000000
     9  Cl   2.189848   3.703377   5.726054   0.000000
    10  Cl   2.200935   3.665949   3.705461   3.640207   0.000000
    11  H    5.237585   6.479215   3.477035   6.426774   5.391128
    12  H    4.655404   4.616869   1.098240   6.761614   4.564577
    13  H    3.461342   4.086351   1.089110   5.512269   2.891332
    14  H    3.087033   2.988091   1.097538   5.174791   3.639922
    15  H    5.690193   5.699836   2.751955   7.429808   6.302499
    16  H    4.502545   4.551406   2.791447   6.004117   5.646220
    17  H    5.603954   6.121665   3.476379   6.947406   6.390807
    18  C    4.694227   6.140618   3.071792   6.083977   3.956051
    19  H    5.612097   6.873011   3.404047   7.124606   4.682075
    20  H    5.112095   6.807376   4.088008   6.150995   4.360670
    21  H    4.017285   5.480180   2.828204   5.512903   2.946518
    22  C    3.349596   5.334663   4.296342   3.710605   3.658471
    23  H    4.425926   6.366139   4.838187   4.721078   4.537633
    24  H    3.379101   5.427784   5.146154   3.059070   3.984509
    25  H    3.069297   5.121429   4.032575   3.706648   2.766167
    26  C    4.222362   5.469301   4.338690   4.723259   5.397775
    27  H    4.390598   5.687517   5.242371   4.372794   5.785626
    28  H    5.103118   6.453412   4.782114   5.589586   5.978470
    29  H    4.456279   5.273165   4.152581   5.191605   5.811643
                   11         12         13         14         15
    11  H    0.000000
    12  H    4.070228   0.000000
    13  H    3.773416   1.773505   0.000000
    14  H    4.140712   1.755751   1.773356   0.000000
    15  H    3.422766   2.570315   3.776518   3.038879   0.000000
    16  H    3.443219   3.174481   3.782161   2.560303   1.756597
    17  H    2.341227   3.776387   4.332387   3.767432   1.771787
    18  C    2.206768   3.716420   2.682991   3.933679   4.485583
    19  H    2.697717   3.745568   3.022232   4.418388   4.610856
    20  H    2.452187   4.793204   3.677633   4.860183   5.339370
    21  H    3.096055   3.560564   2.106699   3.576677   4.865483
    22  C    3.182096   5.345796   4.092747   4.460721   5.593523
    23  H    2.867641   5.806637   4.663105   5.176964   5.817665
    24  H    4.179158   6.227766   4.945732   5.130521   6.433336
    25  H    3.561630   5.067372   3.566815   4.268621   5.811040
    26  C    2.764612   5.223334   4.764350   4.309066   4.310804
    27  H    3.796155   6.174183   5.607341   5.070847   5.302133
    28  H    2.307379   5.590225   5.168144   4.971970   4.511240
    29  H    3.053616   4.906536   4.801477   4.005829   3.628577
                   16         17         18         19         20
    16  H    0.000000
    17  H    1.788045   0.000000
    18  C    4.603633   4.130457   0.000000
    19  H    5.114168   4.485551   1.098104   0.000000
    20  H    5.319272   4.683750   1.093192   1.758714   0.000000
    21  H    4.824084   4.740209   1.092511   1.765911   1.768734
    22  C    4.684468   4.648547   3.027138   4.116309   2.757794
    23  H    5.104861   4.674092   2.945551   3.938751   2.359776
    24  H    5.311393   5.432549   4.107660   5.196296   3.773555
    25  H    5.063039   5.151110   2.665632   3.723983   2.483162
    26  C    3.098932   2.937500   4.141672   5.047413   4.202464
    27  H    3.922830   3.939906   5.026797   5.995196   4.958587
    28  H    3.655034   2.914081   3.988573   4.796725   3.878517
    29  H    2.268039   2.328792   4.613023   5.409229   4.880682
                   21         22         23         24         25
    21  H    0.000000
    22  C    3.016569   0.000000
    23  H    3.258315   1.090510   0.000000
    24  H    3.994139   1.100244   1.777489   0.000000
    25  H    2.318498   1.089512   1.794688   1.762831   0.000000
    26  C    4.508866   2.564425   2.739669   2.911710   3.490262
    27  H    5.298464   2.838989   3.069958   2.756599   3.853044
    28  H    4.586632   2.797726   2.529565   3.280481   3.747982
    29  H    4.976037   3.494268   3.749858   3.872140   4.296295
                   26         27         28         29
    26  C    0.000000
    27  H    1.099627   0.000000
    28  H    1.090763   1.770747   0.000000
    29  H    1.088203   1.765822   1.796285   0.000000
 Framework group  C1[X(C8H16Cl3FeO)]
 Deg. of freedom    81
                         Standard orientation:                         
 ---------------------------------------------------------------------
 Center     Atomic      Atomic             Coordinates (Angstroms)
 Number     Number       Type             X           Y           Z
 ---------------------------------------------------------------------
      1          8           0       -0.246062   -0.292019   -0.833979
      2          6           0       -1.079138   -1.226776   -0.657348
      3          6           0       -2.956944   -0.178315    0.516144
      4          6           0       -2.595599    0.953831   -0.134010
      5          6           0       -3.097320    1.269610   -1.513436
      6         26           0        1.460997    0.143668    0.003878
      7         17           0        2.057491    2.020521   -0.929321
      8          6           0       -1.682059    1.989522    0.443539
      9         17           0        2.668371   -1.608406   -0.513729
     10         17           0        1.127886    0.303792    2.173558
     11          1           0       -3.687100   -0.820156    0.024859
     12          1           0       -2.220849    2.941496    0.541425
     13          1           0       -1.274255    1.724614    1.418054
     14          1           0       -0.845941    2.180248   -0.241385
     15          1           0       -3.608909    2.240600   -1.505170
     16          1           0       -2.259374    1.369539   -2.216255
     17          1           0       -3.799540    0.521728   -1.890356
     18          6           0       -2.753118   -0.440282    1.987815
     19          1           0       -3.532206    0.075291    2.564910
     20          1           0       -2.839840   -1.504594    2.221883
     21          1           0       -1.786379   -0.090270    2.357258
     22          6           0       -0.863747   -2.228167    0.439490
     23          1           0       -1.745107   -2.845115    0.617792
     24          1           0       -0.050022   -2.877714    0.083853
     25          1           0       -0.523933   -1.761965    1.363730
     26          6           0       -1.858219   -1.682650   -1.860447
     27          1           0       -1.208203   -2.406584   -2.372871
     28          1           0       -2.784403   -2.193754   -1.594513
     29          1           0       -2.048224   -0.863651   -2.551333
 ---------------------------------------------------------------------
 Rotational constants (GHZ):           0.5732500           0.3297791           0.3103694
   427 basis functions,  1056 primitive gaussians,   461 cartesian basis functions
    77 alpha electrons       72 beta electrons
       nuclear repulsion energy      1633.5441917972 Hartrees.
 NAtoms=   29 NActive=   29 NUniq=   29 SFac= 1.00D+00 NAtFMM=   60 NAOKFM=F Big=F
 Nuclear repulsion after empirical dispersion term =     1633.4750498774 Hartrees.
 Initial guess from the checkpoint file:  "checkpoint.chk"
 B after Tr=     0.000000    0.000000    0.000000
         Rot=    1.000000    0.000000    0.000000    0.000000 Ang=   0.00 deg.
 Initial guess <Sx>= 0.0000 <Sy>= 0.0000 <Sz>= 2.5000 <S**2>= 8.7620 S= 2.5020
 SCF Done:  E(UB3LYP) =  -3034.41433453     A.U. after    1 cycles
            NFock=  1  Conv=0.45D-08     -V/T= 2.0024
 <Sx>= 0.0000 <Sy>= 0.0000 <Sz>= 2.5000 <S**2>= 8.7620 S= 2.5020
 <L.S>= 0.000000000000E+00
 Annihilation of the first spin contaminant:
 S**2 before annihilation     8.7620,   after     8.7500
 1\1\GINC-HOLY7C18604\SP\UB3LYP\Jul-CC-pVDZ\C8H16Cl3Fe1O1(6)\EKWAN\11-F
 eb-2020\0\\#t pop=none jul-cc-pvdz guess=read ub3lyp empiricaldispersi
 on=gd3bj\\theory_abbreviation b3lyp_d3bj\\0,6\O,0,-0.246062,-0.292019,
 -0.833979\C,0,-1.079138,-1.226776,-0.657348\C,0,-2.956944,-0.178315,0.
 516144\C,0,-2.595599,0.953831,-0.13401\C,0,-3.09732,1.26961,-1.513436\
 Fe,0,1.460997,0.143668,0.003878\Cl,0,2.057491,2.020521,-0.929321\C,0,-
 1.682059,1.989522,0.443539\Cl,0,2.668371,-1.608406,-0.513729\Cl,0,1.12
 7886,0.303792,2.173558\H,0,-3.6871,-0.820156,0.024859\H,0,-2.220849,2.
 941496,0.541425\H,0,-1.274255,1.724614,1.418054\H,0,-0.845941,2.180248
 ,-0.241385\H,0,-3.608909,2.2406,-1.50517\H,0,-2.259374,1.369539,-2.216
 255\H,0,-3.79954,0.521728,-1.890356\C,0,-2.753118,-0.440282,1.987815\H
 ,0,-3.532206,0.075291,2.56491\H,0,-2.83984,-1.504594,2.221883\H,0,-1.7
 86379,-0.09027,2.357258\C,0,-0.863747,-2.228167,0.43949\H,0,-1.745107,
 -2.845115,0.617792\H,0,-0.050022,-2.877714,0.083853\H,0,-0.523933,-1.7
 61965,1.36373\C,0,-1.858219,-1.68265,-1.860447\H,0,-1.208203,-2.406584
 ,-2.372871\H,0,-2.784403,-2.193754,-1.594513\H,0,-2.048224,-0.863651,-
 2.551333\\Version=ES64L-G16RevA.03\HF=-3034.4143345\S2=8.76198\S2-1=0.
 \S2A=8.750044\RMSD=4.479e-09\PG=C01 [X(C8H16Cl3Fe1O1)]\\@


 ALL THINGS ARE POSSIBLE EXCEPT SKIING THROUGH A REVOLVING DOOR.
 Job cpu time:       0 days  0 hours  4 minutes 15.5 seconds.
 Elapsed time:       0 days  0 hours  1 minutes  4.4 seconds.
 File lengths (MBytes):  RWF=    170 Int=      0 D2E=      0 Chk=     13 Scr=      1
 Normal termination of Gaussian 16 at Tue Feb 11 23:52:51 2020.
 Initial command:
 /n/sw/g16_nehalem/g16/l1.exe "/scratch/Gau-227302.inp" -scrdir="/scratch/"
 Entering Link 1 = /n/sw/g16_nehalem/g16/l1.exe PID=    229880.
  
 Copyright (c) 1988,1990,1992,1993,1995,1998,2003,2009,2016,
            Gaussian, Inc.  All Rights Reserved.
  
 This is part of the Gaussian(R) 16 program.  It is based on
 the Gaussian(R) 09 system (copyright 2009, Gaussian, Inc.),
 the Gaussian(R) 03 system (copyright 2003, Gaussian, Inc.),
 the Gaussian(R) 98 system (copyright 1998, Gaussian, Inc.),
 the Gaussian(R) 94 system (copyright 1995, Gaussian, Inc.),
 the Gaussian 92(TM) system (copyright 1992, Gaussian, Inc.),
 the Gaussian 90(TM) system (copyright 1990, Gaussian, Inc.),
 the Gaussian 88(TM) system (copyright 1988, Gaussian, Inc.),
 the Gaussian 86(TM) system (copyright 1986, Carnegie Mellon
 University), and the Gaussian 82(TM) system (copyright 1983,
 Carnegie Mellon University). Gaussian is a federally registered
 trademark of Gaussian, Inc.
  
 This software contains proprietary and confidential information,
 including trade secrets, belonging to Gaussian, Inc.
  
 This software is provided under written license and may be
 used, copied, transmitted, or stored only in accord with that
 written license.
  
 The following legend is applicable only to US Government
 contracts under FAR:
  
                    RESTRICTED RIGHTS LEGEND
  
 Use, reproduction and disclosure by the US Government is
 subject to restrictions as set forth in subparagraphs (a)
 and (c) of the Commercial Computer Software - Restricted
 Rights clause in FAR 52.227-19.
  
 Gaussian, Inc.
 340 Quinnipiac St., Bldg. 40, Wallingford CT 06492
  
  
 ---------------------------------------------------------------
 Warning -- This program may not be used in any manner that
 competes with the business of Gaussian, Inc. or will provide
 assistance to any competitor of Gaussian, Inc.  The licensee
 of this program is prohibited from giving any competitor of
 Gaussian, Inc. access to this program.  By using this program,
 the user acknowledges that Gaussian, Inc. is engaged in the
 business of creating and licensing software in the field of
 computational chemistry and represents and warrants to the
 licensee that it is not a competitor of Gaussian, Inc. and that
 it will not use this program in any manner prohibited above.
 ---------------------------------------------------------------
  

 Cite this work as:
 Gaussian 16, Revision A.03,
 M. J. Frisch, G. W. Trucks, H. B. Schlegel, G. E. Scuseria, 
 M. A. Robb, J. R. Cheeseman, G. Scalmani, V. Barone, 
 G. A. Petersson, H. Nakatsuji, X. Li, M. Caricato, A. V. Marenich, 
 J. Bloino, B. G. Janesko, R. Gomperts, B. Mennucci, H. P. Hratchian, 
 J. V. Ortiz, A. F. Izmaylov, J. L. Sonnenberg, D. Williams-Young, 
 F. Ding, F. Lipparini, F. Egidi, J. Goings, B. Peng, A. Petrone, 
 T. Henderson, D. Ranasinghe, V. G. Zakrzewski, J. Gao, N. Rega, 
 G. Zheng, W. Liang, M. Hada, M. Ehara, K. Toyota, R. Fukuda, 
 J. Hasegawa, M. Ishida, T. Nakajima, Y. Honda, O. Kitao, H. Nakai, 
 T. Vreven, K. Throssell, J. A. Montgomery, Jr., J. E. Peralta, 
 F. Ogliaro, M. J. Bearpark, J. J. Heyd, E. N. Brothers, K. N. Kudin, 
 V. N. Staroverov, T. A. Keith, R. Kobayashi, J. Normand, 
 K. Raghavachari, A. P. Rendell, J. C. Burant, S. S. Iyengar, 
 J. Tomasi, M. Cossi, J. M. Millam, M. Klene, C. Adamo, R. Cammi, 
 J. W. Ochterski, R. L. Martin, K. Morokuma, O. Farkas, 
 J. B. Foresman, and D. J. Fox, Gaussian, Inc., Wallingford CT, 2016.
 
 ******************************************
 Gaussian 16:  ES64L-G16RevA.03 25-Dec-2016
                11-Feb-2020 
 ******************************************
 %chk=checkpoint.chk
 %mem=3GB
 %nprocshared=4
 Will use up to    4 processors via shared memory.
 ----------------------------------------
 #t pop=none jul-cc-pvdz guess=read ub97d
 ----------------------------------------
 ------------------------
 theory_abbreviation b97d
 ------------------------
 Symbolic Z-matrix:
 Charge =  0 Multiplicity = 6
 O                    -0.24606  -0.29202  -0.83398 
 C                    -1.07914  -1.22678  -0.65735 
 C                    -2.95694  -0.17832   0.51614 
 C                    -2.5956    0.95383  -0.13401 
 C                    -3.09732   1.26961  -1.51344 
 Fe                    1.461     0.14367   0.00388 
 Cl                    2.05749   2.02052  -0.92932 
 C                    -1.68206   1.98952   0.44354 
 Cl                    2.66837  -1.60841  -0.51373 
 Cl                    1.12789   0.30379   2.17356 
 H                    -3.6871   -0.82016   0.02486 
 H                    -2.22085   2.9415    0.54143 
 H                    -1.27426   1.72461   1.41805 
 H                    -0.84594   2.18025  -0.24139 
 H                    -3.60891   2.2406   -1.50517 
 H                    -2.25937   1.36954  -2.21626 
 H                    -3.79954   0.52173  -1.89036 
 C                    -2.75312  -0.44028   1.98782 
 H                    -3.53221   0.07529   2.56491 
 H                    -2.83984  -1.50459   2.22188 
 H                    -1.78638  -0.09027   2.35726 
 C                    -0.86375  -2.22817   0.43949 
 H                    -1.74511  -2.84512   0.61779 
 H                    -0.05002  -2.87771   0.08385 
 H                    -0.52393  -1.76197   1.36373 
 C                    -1.85822  -1.68265  -1.86045 
 H                    -1.2082   -2.40658  -2.37287 
 H                    -2.7844   -2.19375  -1.59451 
 H                    -2.04822  -0.86365  -2.55133 
 
                    Distance matrix (angstroms):
                    1          2          3          4          5
     1  O    0.000000
     2  C    1.264510   0.000000
     3  C    3.030617   2.450002   0.000000
     4  C    2.749986   2.707136   1.354631   0.000000
     5  C    3.321147   3.322332   2.497076   1.501418   0.000000
     6  Fe   1.950866   2.961017   4.459181   4.139003   4.934394
     7  Cl   3.265469   4.522980   5.662933   4.839586   5.241864
     8  C    2.983215   3.452541   2.515973   1.496922   2.520117
     9  Cl   3.213931   3.769628   5.894910   5.866739   6.521164
    10  Cl   3.359762   3.902259   4.434556   4.428517   5.690263
    11  H    3.585704   2.726208   1.089242   2.088934   2.661074
    12  H    4.030774   4.484981   3.205573   2.132478   2.790315
    13  H    3.193062   3.613318   2.695556   2.179211   3.481986
    14  H    2.612112   3.440235   3.254689   2.139376   2.741548
    15  H    4.263027   4.375070   3.218993   2.136036   1.097549
    16  H    2.953792   3.250231   3.216902   2.149792   1.098223
    17  H    3.795434   3.460948   2.644101   2.172772   1.092936
    18  C    3.777543   3.227641   1.508638   2.543719   3.911645
    19  H    4.741952   4.253924   2.143055   2.988852   4.271818
    20  H    4.187638   3.386329   2.163856   3.413757   4.659948
    21  H    3.549264   3.298437   2.183501   2.819823   4.306984
    22  C    2.398318   1.500743   2.930741   3.667877   4.586634
    23  H    3.297434   2.165299   2.930990   3.964913   4.827170
    24  H    2.750757   2.081839   3.990467   4.605232   5.388660
    25  H    2.658548   2.163200   3.024218   3.729688   4.908243
    26  C    2.363587   1.504073   3.019670   3.236564   3.220501
    27  H    2.786627   2.086055   4.045947   4.269632   4.221587
    28  H    3.261623   2.172845   2.923463   3.475055   3.478416
    29  H    2.554184   2.158279   3.271830   3.073485   2.593961
                    6          7          8          9         10
     6  Fe   0.000000
     7  Cl   2.179276   0.000000
     8  C    3.671414   3.983709   0.000000
     9  Cl   2.189848   3.703377   5.726054   0.000000
    10  Cl   2.200935   3.665949   3.705461   3.640207   0.000000
    11  H    5.237585   6.479215   3.477035   6.426774   5.391128
    12  H    4.655404   4.616869   1.098240   6.761614   4.564577
    13  H    3.461342   4.086351   1.089110   5.512269   2.891332
    14  H    3.087033   2.988091   1.097538   5.174791   3.639922
    15  H    5.690193   5.699836   2.751955   7.429808   6.302499
    16  H    4.502545   4.551406   2.791447   6.004117   5.646220
    17  H    5.603954   6.121665   3.476379   6.947406   6.390807
    18  C    4.694227   6.140618   3.071792   6.083977   3.956051
    19  H    5.612097   6.873011   3.404047   7.124606   4.682075
    20  H    5.112095   6.807376   4.088008   6.150995   4.360670
    21  H    4.017285   5.480180   2.828204   5.512903   2.946518
    22  C    3.349596   5.334663   4.296342   3.710605   3.658471
    23  H    4.425926   6.366139   4.838187   4.721078   4.537633
    24  H    3.379101   5.427784   5.146154   3.059070   3.984509
    25  H    3.069297   5.121429   4.032575   3.706648   2.766167
    26  C    4.222362   5.469301   4.338690   4.723259   5.397775
    27  H    4.390598   5.687517   5.242371   4.372794   5.785626
    28  H    5.103118   6.453412   4.782114   5.589586   5.978470
    29  H    4.456279   5.273165   4.152581   5.191605   5.811643
                   11         12         13         14         15
    11  H    0.000000
    12  H    4.070228   0.000000
    13  H    3.773416   1.773505   0.000000
    14  H    4.140712   1.755751   1.773356   0.000000
    15  H    3.422766   2.570315   3.776518   3.038879   0.000000
    16  H    3.443219   3.174481   3.782161   2.560303   1.756597
    17  H    2.341227   3.776387   4.332387   3.767432   1.771787
    18  C    2.206768   3.716420   2.682991   3.933679   4.485583
    19  H    2.697717   3.745568   3.022232   4.418388   4.610856
    20  H    2.452187   4.793204   3.677633   4.860183   5.339370
    21  H    3.096055   3.560564   2.106699   3.576677   4.865483
    22  C    3.182096   5.345796   4.092747   4.460721   5.593523
    23  H    2.867641   5.806637   4.663105   5.176964   5.817665
    24  H    4.179158   6.227766   4.945732   5.130521   6.433336
    25  H    3.561630   5.067372   3.566815   4.268621   5.811040
    26  C    2.764612   5.223334   4.764350   4.309066   4.310804
    27  H    3.796155   6.174183   5.607341   5.070847   5.302133
    28  H    2.307379   5.590225   5.168144   4.971970   4.511240
    29  H    3.053616   4.906536   4.801477   4.005829   3.628577
                   16         17         18         19         20
    16  H    0.000000
    17  H    1.788045   0.000000
    18  C    4.603633   4.130457   0.000000
    19  H    5.114168   4.485551   1.098104   0.000000
    20  H    5.319272   4.683750   1.093192   1.758714   0.000000
    21  H    4.824084   4.740209   1.092511   1.765911   1.768734
    22  C    4.684468   4.648547   3.027138   4.116309   2.757794
[...]
     29          1           0       -2.048224   -0.863651   -2.551333
 ---------------------------------------------------------------------
 Rotational constants (GHZ):           0.5732500           0.3297791           0.3103694
   427 basis functions,  1056 primitive gaussians,   461 cartesian basis functions
    77 alpha electrons       72 beta electrons
       nuclear repulsion energy      1633.5441917972 Hartrees.
 NAtoms=   29 NActive=   29 NUniq=   29 SFac= 1.00D+00 NAtFMM=   60 NAOKFM=F Big=F
 Nuclear repulsion after empirical dispersion term =     1633.5417235880 Hartrees.
 Initial guess from the checkpoint file:  "checkpoint.chk"
 B after Tr=     0.000000    0.000000    0.000000
         Rot=    1.000000    0.000000    0.000000    0.000000 Ang=   0.00 deg.
 Initial guess <Sx>= 0.0000 <Sy>= 0.0000 <Sz>= 2.5000 <S**2>= 8.7617 S= 2.5019
 SCF Done:  E(UM06L) =  -3034.21377482     A.U. after   17 cycles
            NFock= 17  Conv=0.69D-08     -V/T= 2.0020
 <Sx>= 0.0000 <Sy>= 0.0000 <Sz>= 2.5000 <S**2>= 8.7616 S= 2.5019
 <L.S>= 0.000000000000E+00
 Annihilation of the first spin contaminant:
 S**2 before annihilation     8.7616,   after     8.7500
 1\1\GINC-HOLY7C18604\SP\UM06L\Jul-CC-pVDZ\C8H16Cl3Fe1O1(6)\EKWAN\12-Fe
 b-2020\0\\#t pop=none jul-cc-pvdz guess=read um06l empiricaldispersion
 =gd3\\theory_abbreviation m06l_d3\\0,6\O,0,-0.246062,-0.292019,-0.8339
 79\C,0,-1.079138,-1.226776,-0.657348\C,0,-2.956944,-0.178315,0.516144\
 C,0,-2.595599,0.953831,-0.13401\C,0,-3.09732,1.26961,-1.513436\Fe,0,1.
 460997,0.143668,0.003878\Cl,0,2.057491,2.020521,-0.929321\C,0,-1.68205
 9,1.989522,0.443539\Cl,0,2.668371,-1.608406,-0.513729\Cl,0,1.127886,0.
 303792,2.173558\H,0,-3.6871,-0.820156,0.024859\H,0,-2.220849,2.941496,
 0.541425\H,0,-1.274255,1.724614,1.418054\H,0,-0.845941,2.180248,-0.241
 385\H,0,-3.608909,2.2406,-1.50517\H,0,-2.259374,1.369539,-2.216255\H,0
 ,-3.79954,0.521728,-1.890356\C,0,-2.753118,-0.440282,1.987815\H,0,-3.5
 32206,0.075291,2.56491\H,0,-2.83984,-1.504594,2.221883\H,0,-1.786379,-
 0.09027,2.357258\C,0,-0.863747,-2.228167,0.43949\H,0,-1.745107,-2.8451
 15,0.617792\H,0,-0.050022,-2.877714,0.083853\H,0,-0.523933,-1.761965,1
 .36373\C,0,-1.858219,-1.68265,-1.860447\H,0,-1.208203,-2.406584,-2.372
 871\H,0,-2.784403,-2.193754,-1.594513\H,0,-2.048224,-0.863651,-2.55133
 3\\Version=ES64L-G16RevA.03\HF=-3034.2137748\S2=8.76162\S2-1=0.\S2A=8.
 750043\RMSD=6.921e-09\PG=C01 [X(C8H16Cl3Fe1O1)]\\@


 It takes a long time to grow an old friend.
                            -- John Leonard
 Job cpu time:       0 days  1 hours 11 minutes 28.9 seconds.
 Elapsed time:       0 days  0 hours 17 minutes 55.7 seconds.
 File lengths (MBytes):  RWF=    174 Int=      0 D2E=      0 Chk=     13 Scr=      1
 Normal termination of Gaussian 16 at Wed Feb 12 08:16:18 2020.
 Initial command:
 /n/sw/g16_nehalem/g16/l1.exe "/scratch/Gau-227302.inp" -scrdir="/scratch/"
 Entering Link 1 = /n/sw/g16_nehalem/g16/l1.exe PID=    273095.
  
 Copyright (c) 1988,1990,1992,1993,1995,1998,2003,2009,2016,
            Gaussian, Inc.  All Rights Reserved.
  
 This is part of the Gaussian(R) 16 program.  It is based on
 the Gaussian(R) 09 system (copyright 2009, Gaussian, Inc.),
 the Gaussian(R) 03 system (copyright 2003, Gaussian, Inc.),
 the Gaussian(R) 98 system (copyright 1998, Gaussian, Inc.),
 the Gaussian(R) 94 system (copyright 1995, Gaussian, Inc.),
 the Gaussian 92(TM) system (copyright 1992, Gaussian, Inc.),
 the Gaussian 90(TM) system (copyright 1990, Gaussian, Inc.),
 the Gaussian 88(TM) system (copyright 1988, Gaussian, Inc.),
 the Gaussian 86(TM) system (copyright 1986, Carnegie Mellon
 University), and the Gaussian 82(TM) system (copyright 1983,
 Carnegie Mellon University). Gaussian is a federally registered
 trademark of Gaussian, Inc.
  
 This software contains proprietary and confidential information,
 including trade secrets, belonging to Gaussian, Inc.
  
 This software is provided under written license and may be
 used, copied, transmitted, or stored only in accord with that
 written license.
  
 The following legend is applicable only to US Government
 contracts under FAR:
  
                    RESTRICTED RIGHTS LEGEND
  
 Use, reproduction and disclosure by the US Government is
 subject to restrictions as set forth in subparagraphs (a)
 and (c) of the Commercial Computer Software - Restricted
 Rights clause in FAR 52.227-19.
  
 Gaussian, Inc.
 340 Quinnipiac St., Bldg. 40, Wallingford CT 06492
  
  
 ---------------------------------------------------------------
 Warning -- This program may not be used in any manner that
 competes with the business of Gaussian, Inc. or will provide
 assistance to any competitor of Gaussian, Inc.  The licensee
 of this program is prohibited from giving any competitor of
 Gaussian, Inc. access to this program.  By using this program,
 the user acknowledges that Gaussian, Inc. is engaged in the
 business of creating and licensing software in the field of
 computational chemistry and represents and warrants to the
 licensee that it is not a competitor of Gaussian, Inc. and that
 it will not use this program in any manner prohibited above.
 ---------------------------------------------------------------
  

 Cite this work as:
 Gaussian 16, Revision A.03,
 M. J. Frisch, G. W. Trucks, H. B. Schlegel, G. E. Scuseria, 
 M. A. Robb, J. R. Cheeseman, G. Scalmani, V. Barone, 
 G. A. Petersson, H. Nakatsuji, X. Li, M. Caricato, A. V. Marenich, 
 J. Bloino, B. G. Janesko, R. Gomperts, B. Mennucci, H. P. Hratchian, 
 J. V. Ortiz, A. F. Izmaylov, J. L. Sonnenberg, D. Williams-Young, 
 F. Ding, F. Lipparini, F. Egidi, J. Goings, B. Peng, A. Petrone, 
 T. Henderson, D. Ranasinghe, V. G. Zakrzewski, J. Gao, N. Rega, 
 G. Zheng, W. Liang, M. Hada, M. Ehara, K. Toyota, R. Fukuda, 
 J. Hasegawa, M. Ishida, T. Nakajima, Y. Honda, O. Kitao, H. Nakai, 
 T. Vreven, K. Throssell, J. A. Montgomery, Jr., J. E. Peralta, 
 F. Ogliaro, M. J. Bearpark, J. J. Heyd, E. N. Brothers, K. N. Kudin, 
 V. N. Staroverov, T. A. Keith, R. Kobayashi, J. Normand, 
 K. Raghavachari, A. P. Rendell, J. C. Burant, S. S. Iyengar, 
 J. Tomasi, M. Cossi, J. M. Millam, M. Klene, C. Adamo, R. Cammi, 
 J. W. Ochterski, R. L. Martin, K. Morokuma, O. Farkas, 
 J. B. Foresman, and D. J. Fox, Gaussian, Inc., Wallingford CT, 2016.
 
 ******************************************
 Gaussian 16:  ES64L-G16RevA.03 25-Dec-2016
                12-Feb-2020 
 ******************************************
 %chk=checkpoint.chk
 %mem=3GB
 %nprocshared=4
 Will use up to    4 processors via shared memory.
 -------------------------------------------------------------------
 #t pop=none jul-cc-pvdz guess=read ub97d3 empiricaldispersion=gd3bj
 -------------------------------------------------------------------
 ------------------------------
 theory_abbreviation b97d3_d3bj
 ------------------------------
 Symbolic Z-matrix:
 Charge =  0 Multiplicity = 6
 O                    -0.24606  -0.29202  -0.83398 
 C                    -1.07914  -1.22678  -0.65735 
 C                    -2.95694  -0.17832   0.51614 
 C                    -2.5956    0.95383  -0.13401 
 C                    -3.09732   1.26961  -1.51344 
 Fe                    1.461     0.14367   0.00388 
 Cl                    2.05749   2.02052  -0.92932 
 C                    -1.68206   1.98952   0.44354 
 Cl                    2.66837  -1.60841  -0.51373 
 Cl                    1.12789   0.30379   2.17356 
 H                    -3.6871   -0.82016   0.02486 
 H                    -2.22085   2.9415    0.54143 
 H                    -1.27426   1.72461   1.41805 
 H                    -0.84594   2.18025  -0.24139 
 H                    -3.60891   2.2406   -1.50517 
 H                    -2.25937   1.36954  -2.21626 
 H                    -3.79954   0.52173  -1.89036 
 C                    -2.75312  -0.44028   1.98782 
 H                    -3.53221   0.07529   2.56491 
 H                    -2.83984  -1.50459   2.22188 
 H                    -1.78638  -0.09027   2.35726 
 C                    -0.86375  -2.22817   0.43949 
 H                    -1.74511  -2.84512   0.61779 
 H                    -0.05002  -2.87771   0.08385 
 H                    -0.52393  -1.76197   1.36373 
 C                    -1.85822  -1.68265  -1.86045 
 H                    -1.2082   -2.40658  -2.37287 
 H                    -2.7844   -2.19375  -1.59451 
 H                    -2.04822  -0.86365  -2.55133 
 
                    Distance matrix (angstroms):
                    1          2          3          4          5
     1  O    0.000000
     2  C    1.264510   0.000000
     3  C    3.030617   2.450002   0.000000
     4  C    2.749986   2.707136   1.354631   0.000000
     5  C    3.321147   3.322332   2.497076   1.501418   0.000000
     6  Fe   1.950866   2.961017   4.459181   4.139003   4.934394
     7  Cl   3.265469   4.522980   5.662933   4.839586   5.241864
     8  C    2.983215   3.452541   2.515973   1.496922   2.520117
     9  Cl   3.213931   3.769628   5.894910   5.866739   6.521164
    10  Cl   3.359762   3.902259   4.434556   4.428517   5.690263
    11  H    3.585704   2.726208   1.089242   2.088934   2.661074
    12  H    4.030774   4.484981   3.205573   2.132478   2.790315
    13  H    3.193062   3.613318   2.695556   2.179211   3.481986
    14  H    2.612112   3.440235   3.254689   2.139376   2.741548
    15  H    4.263027   4.375070   3.218993   2.136036   1.097549
    16  H    2.953792   3.250231   3.216902   2.149792   1.098223
    17  H    3.795434   3.460948   2.644101   2.172772   1.092936
    18  C    3.777543   3.227641   1.508638   2.543719   3.911645
    19  H    4.741952   4.253924   2.143055   2.988852   4.271818
    20  H    4.187638   3.386329   2.163856   3.413757   4.659948
    21  H    3.549264   3.298437   2.183501   2.819823   4.306984
    22  C    2.398318   1.500743   2.930741   3.667877   4.586634
    23  H    3.297434   2.165299   2.930990   3.964913   4.827170
    24  H    2.750757   2.081839   3.990467   4.605232   5.388660
    25  H    2.658548   2.163200   3.024218   3.729688   4.908243
    26  C    2.363587   1.504073   3.019670   3.236564   3.220501
    27  H    2.786627   2.086055   4.045947   4.269632   4.221587
    28  H    3.261623   2.172845   2.923463   3.475055   3.478416
    29  H    2.554184   2.158279   3.271830   3.073485   2.593961
                    6          7          8          9         10
     6  Fe   0.000000
     7  Cl   2.179276   0.000000
     8  C    3.671414   3.983709   0.000000
     9  Cl   2.189848   3.703377   5.726054   0.000000
    10  Cl   2.200935   3.665949   3.705461   3.640207   0.000000
    11  H    5.237585   6.479215   3.477035   6.426774   5.391128
    12  H    4.655404   4.616869   1.098240   6.761614   4.564577
    13  H    3.461342   4.086351   1.089110   5.512269   2.891332
    14  H    3.087033   2.988091   1.097538   5.174791   3.639922
    15  H    5.690193   5.699836   2.751955   7.429808   6.302499
    16  H    4.502545   4.551406   2.791447   6.004117   5.646220
    17  H    5.603954   6.121665   3.476379   6.947406   6.390807
    18  C    4.694227   6.140618   3.071792   6.083977   3.956051
    19  H    5.612097   6.873011   3.404047   7.124606   4.682075
    20  H    5.112095   6.807376   4.088008   6.150995   4.360670
    21  H    4.017285   5.480180   2.828204   5.512903   2.946518
    22  C    3.349596   5.334663   4.296342   3.710605   3.658471
    23  H    4.425926   6.366139   4.838187   4.721078   4.537633
    24  H    3.379101   5.427784   5.146154   3.059070   3.984509
    25  H    3.069297   5.121429   4.032575   3.706648   2.766167
    26  C    4.222362   5.469301   4.338690   4.723259   5.397775
    27  H    4.390598   5.687517   5.242371   4.372794   5.785626
    28  H    5.103118   6.453412   4.782114   5.589586   5.978470
    29  H    4.456279   5.273165   4.152581   5.191605   5.811643
                   11         12         13         14         15
    11  H    0.000000
    12  H    4.070228   0.000000
    13  H    3.773416   1.773505   0.000000
    14  H    4.140712   1.755751   1.773356   0.000000
    15  H    3.422766   2.570315   3.776518   3.038879   0.000000
    16  H    3.443219   3.174481   3.782161   2.560303   1.756597
    17  H    2.341227   3.776387   4.332387   3.767432   1.771787
    18  C    2.206768   3.716420   2.682991   3.933679   4.485583
    19  H    2.697717   3.745568   3.022232   4.418388   4.610856
    20  H    2.452187   4.793204   3.677633   4.860183   5.339370
    21  H    3.096055   3.560564   2.106699   3.576677   4.865483
    22  C    3.182096   5.345796   4.092747   4.460721   5.593523
    23  H    2.867641   5.806637   4.663105   5.176964   5.817665
    24  H    4.179158   6.227766   4.945732   5.130521   6.433336
    25  H    3.561630   5.067372   3.566815   4.268621   5.811040
    26  C    2.764612   5.223334   4.764350   4.309066   4.310804
    27  H    3.796155   6.174183   5.607341   5.070847   5.302133
    28  H    2.307379   5.590225   5.168144   4.971970   4.511240
    29  H    3.053616   4.906536   4.801477   4.005829   3.628577
                   16         17         18         19         20
    16  H    0.000000
    17  H    1.788045   0.000000
    18  C    4.603633   4.130457   0.000000
    19  H    5.114168   4.485551   1.098104   0.000000
    20  H    5.319272   4.683750   1.093192   1.758714   0.000000
    21  H    4.824084   4.740209   1.092511   1.765911   1.768734
    22  C    4.684468   4.648547   3.027138   4.116309   2.757794
    23  H    5.104861   4.674092   2.945551   3.938751   2.359776
    24  H    5.311393   5.432549   4.107660   5.196296   3.773555
    25  H    5.063039   5.151110   2.665632   3.723983   2.483162
    26  C    3.098932   2.937500   4.141672   5.047413   4.202464
    27  H    3.922830   3.939906   5.026797   5.995196   4.958587
    28  H    3.655034   2.914081   3.988573   4.796725   3.878517
    29  H    2.268039   2.328792   4.613023   5.409229   4.880682
                   21         22         23         24         25
    21  H    0.000000
    22  C    3.016569   0.000000
    23  H    3.258315   1.090510   0.000000
    24  H    3.994139   1.100244   1.777489   0.000000
    25  H    2.318498   1.089512   1.794688   1.762831   0.000000
    26  C    4.508866   2.564425   2.739669   2.911710   3.490262
    27  H    5.298464   2.838989   3.069958   2.756599   3.853044
    28  H    4.586632   2.797726   2.529565   3.280481   3.747982
    29  H    4.976037   3.494268   3.749858   3.872140   4.296295
                   26         27         28         29
    26  C    0.000000
    27  H    1.099627   0.000000
    28  H    1.090763   1.770747   0.000000
    29  H    1.088203   1.765822   1.796285   0.000000
 Framework group  C1[X(C8H16Cl3FeO)]
 Deg. of freedom    81
                         Standard orientation:                         
 ---------------------------------------------------------------------
 Center     Atomic      Atomic             Coordinates (Angstroms)
 Number     Number       Type             X           Y           Z
 ---------------------------------------------------------------------
      1          8           0       -0.246062   -0.292019   -0.833979
      2          6           0       -1.079138   -1.226776   -0.657348
      3          6           0       -2.956944   -0.178315    0.516144
      4          6           0       -2.595599    0.953831   -0.134010
      5          6           0       -3.097320    1.269610   -1.513436
      6         26           0        1.460997    0.143668    0.003878
      7         17           0        2.057491    2.020521   -0.929321
      8          6           0       -1.682059    1.989522    0.443539
      9         17           0        2.668371   -1.608406   -0.513729
     10         17           0        1.127886    0.303792    2.173558
     11          1           0       -3.687100   -0.820156    0.024859
     12          1           0       -2.220849    2.941496    0.541425
     13          1           0       -1.274255    1.724614    1.418054
     14          1           0       -0.845941    2.180248   -0.241385
     15          1           0       -3.608909    2.240600   -1.505170
     16          1           0       -2.259374    1.369539   -2.216255
     17          1           0       -3.799540    0.521728   -1.890356
     18          6           0       -2.753118   -0.440282    1.987815
     19          1           0       -3.532206    0.075291    2.564910
     20          1           0       -2.839840   -1.504594    2.221883
     21          1           0       -1.786379   -0.090270    2.357258
     22          6           0       -0.863747   -2.228167    0.439490
     23          1           0       -1.745107   -2.845115    0.617792
     24          1           0       -0.050022   -2.877714    0.083853
     25          1           0       -0.523933   -1.761965    1.363730
     26          6           0       -1.858219   -1.682650   -1.860447
     27          1           0       -1.208203   -2.406584   -2.372871
     28          1           0       -2.784403   -2.193754   -1.594513
     29          1           0       -2.048224   -0.863651   -2.551333
 ---------------------------------------------------------------------
 Rotational constants (GHZ):           0.5732500           0.3297791           0.3103694
   427 basis functions,  1056 primitive gaussians,   461 cartesian basis functions
    77 alpha electrons       72 beta electrons
       nuclear repulsion energy      1633.5441917972 Hartrees.
 NAtoms=   29 NActive=   29 NUniq=   29 SFac= 1.00D+00 NAtFMM=   60 NAOKFM=F Big=F
 Nuclear repulsion after empirical dispersion term =     1633.4427545587 Hartrees.
 Initial guess from the checkpoint file:  "checkpoint.chk"
 B after Tr=     0.000000    0.000000    0.000000
         Rot=    1.000000    0.000000    0.000000    0.000000 Ang=   0.00 deg.
 Initial guess <Sx>= 0.0000 <Sy>= 0.0000 <Sz>= 2.5000 <S**2>= 8.7616 S= 2.5019
 SCF Done:  E(UB97D3) =  -3034.63436779     A.U. after   16 cycles
            NFock= 16  Conv=0.83D-08     -V/T= 2.0019
 <Sx>= 0.0000 <Sy>= 0.0000 <Sz>= 2.5000 <S**2>= 8.7597 S= 2.5016
 <L.S>= 0.000000000000E+00
 Annihilation of the first spin contaminant:
 S**2 before annihilation     8.7597,   after     8.7500
 1\1\GINC-HOLY7C18604\SP\UB97D3\Jul-CC-pVDZ\C8H16Cl3Fe1O1(6)\EKWAN\12-F
 eb-2020\0\\#t pop=none jul-cc-pvdz guess=read ub97d3 empiricaldispersi
 on=gd3bj\\theory_abbreviation b97d3_d3bj\\0,6\O,0,-0.246062,-0.292019,
 -0.833979\C,0,-1.079138,-1.226776,-0.657348\C,0,-2.956944,-0.178315,0.
 516144\C,0,-2.595599,0.953831,-0.13401\C,0,-3.09732,1.26961,-1.513436\
 Fe,0,1.460997,0.143668,0.003878\Cl,0,2.057491,2.020521,-0.929321\C,0,-
 1.682059,1.989522,0.443539\Cl,0,2.668371,-1.608406,-0.513729\Cl,0,1.12
 7886,0.303792,2.173558\H,0,-3.6871,-0.820156,0.024859\H,0,-2.220849,2.
 941496,0.541425\H,0,-1.274255,1.724614,1.418054\H,0,-0.845941,2.180248
 ,-0.241385\H,0,-3.608909,2.2406,-1.50517\H,0,-2.259374,1.369539,-2.216
 255\H,0,-3.79954,0.521728,-1.890356\C,0,-2.753118,-0.440282,1.987815\H
 ,0,-3.532206,0.075291,2.56491\H,0,-2.83984,-1.504594,2.221883\H,0,-1.7
 86379,-0.09027,2.357258\C,0,-0.863747,-2.228167,0.43949\H,0,-1.745107,
 -2.845115,0.617792\H,0,-0.050022,-2.877714,0.083853\H,0,-0.523933,-1.7
 61965,1.36373\C,0,-1.858219,-1.68265,-1.860447\H,0,-1.208203,-2.406584
 ,-2.372871\H,0,-2.784403,-2.193754,-1.594513\H,0,-2.048224,-0.863651,-
 2.551333\\Version=ES64L-G16RevA.03\HF=-3034.6343678\S2=8.759724\S2-1=0
 .\S2A=8.75003\RMSD=8.253e-09\PG=C01 [X(C8H16Cl3Fe1O1)]\\@


 GOORD'S AXIOM:  A MEETING IS AN EVENT AT WHICH
 THE MINUTES ARE KEPT AND THE HOURS ARE LOST.
 Job cpu time:       0 days  0 hours 48 minutes 53.1 seconds.
 Elapsed time:       0 days  0 hours 12 minutes 15.7 seconds.
 File lengths (MBytes):  RWF=    174 Int=      0 D2E=      0 Chk=     13 Scr=      1
 Normal termination of Gaussian 16 at Wed Feb 12 08:28:43 2020.
