 Entering Gaussian System, Link 0=g16
 Input=simple-grid-170-260-b3lyp_d3bj-631gd-gas-singlepoint-DFT-juldz2-gas.gjf
 Output=simple-grid-170-260-b3lyp_d3bj-631gd-gas-singlepoint-DFT-juldz2-gas.out
 Initial command:
 /n/sw/g16_nehalem/g16/l1.exe "/scratch/Gau-92879.inp" -scrdir="/scratch/"
 Entering Link 1 = /n/sw/g16_nehalem/g16/l1.exe PID=     92884.
  
 Copyright (c) 1988,1990,1992,1993,1995,1998,2003,2009,2016,
            Gaussian, Inc.  All Rights Reserved.
  
 This is part of the Gaussian(R) 16 program.  It is based on
 the Gaussian(R) 09 system (copyright 2009, Gaussian, Inc.),
 the Gaussian(R) 03 system (copyright 2003, Gaussian, Inc.),
 the Gaussian(R) 98 system (copyright 1998, Gaussian, Inc.),
 the Gaussian(R) 94 system (copyright 1995, Gaussian, Inc.),
 the Gaussian 92(TM) system (copyright 1992, Gaussian, Inc.),
 the Gaussian 90(TM) system (copyright 1990, Gaussian, Inc.),
 the Gaussian 88(TM) system (copyright 1988, Gaussian, Inc.),
 the Gaussian 86(TM) system (copyright 1986, Carnegie Mellon
 University), and the Gaussian 82(TM) system (copyright 1983,
 Carnegie Mellon University). Gaussian is a federally registered
 trademark of Gaussian, Inc.
  
 This software contains proprietary and confidential information,
 including trade secrets, belonging to Gaussian, Inc.
  
 This software is provided under written license and may be
 used, copied, transmitted, or stored only in accord with that
 written license.
  
 The following legend is applicable only to US Government
 contracts under FAR:
  
                    RESTRICTED RIGHTS LEGEND
  
 Use, reproduction and disclosure by the US Government is
 subject to restrictions as set forth in subparagraphs (a)
 and (c) of the Commercial Computer Software - Restricted
 Rights clause in FAR 52.227-19.
  
 Gaussian, Inc.
 340 Quinnipiac St., Bldg. 40, Wallingford CT 06492
  
  
 ---------------------------------------------------------------
 Warning -- This program may not be used in any manner that
 competes with the business of Gaussian, Inc. or will provide
 assistance to any competitor of Gaussian, Inc.  The licensee
 of this program is prohibited from giving any competitor of
 Gaussian, Inc. access to this program.  By using this program,
 the user acknowledges that Gaussian, Inc. is engaged in the
 business of creating and licensing software in the field of
 computational chemistry and represents and warrants to the
 licensee that it is not a competitor of Gaussian, Inc. and that
 it will not use this program in any manner prohibited above.
 ---------------------------------------------------------------
  

 Cite this work as:
 Gaussian 16, Revision A.03,
 M. J. Frisch, G. W. Trucks, H. B. Schlegel, G. E. Scuseria, 
 M. A. Robb, J. R. Cheeseman, G. Scalmani, V. Barone, 
 G. A. Petersson, H. Nakatsuji, X. Li, M. Caricato, A. V. Marenich, 
 J. Bloino, B. G. Janesko, R. Gomperts, B. Mennucci, H. P. Hratchian, 
 J. V. Ortiz, A. F. Izmaylov, J. L. Sonnenberg, D. Williams-Young, 
 F. Ding, F. Lipparini, F. Egidi, J. Goings, B. Peng, A. Petrone, 
 T. Henderson, D. Ranasinghe, V. G. Zakrzewski, J. Gao, N. Rega, 
 G. Zheng, W. Liang, M. Hada, M. Ehara, K. Toyota, R. Fukuda, 
 J. Hasegawa, M. Ishida, T. Nakajima, Y. Honda, O. Kitao, H. Nakai, 
 T. Vreven, K. Throssell, J. A. Montgomery, Jr., J. E. Peralta, 
 F. Ogliaro, M. J. Bearpark, J. J. Heyd, E. N. Brothers, K. N. Kudin, 
 V. N. Staroverov, T. A. Keith, R. Kobayashi, J. Normand, 
 K. Raghavachari, A. P. Rendell, J. C. Burant, S. S. Iyengar, 
 J. Tomasi, M. Cossi, J. M. Millam, M. Klene, C. Adamo, R. Cammi, 
 J. W. Ochterski, R. L. Martin, K. Morokuma, O. Farkas, 
 J. B. Foresman, and D. J. Fox, Gaussian, Inc., Wallingford CT, 2016.
 
 ******************************************
 Gaussian 16:  ES64L-G16RevA.03 25-Dec-2016
                11-Feb-2020 
 ******************************************
 %chk=checkpoint.chk
 %mem=3GB
 %nprocshared=4
 Will use up to    4 processors via shared memory.
 --------------------------------
 #t pop=none jul-cc-pvdz upbe1pbe
 --------------------------------
 ------------------------
 theory_abbreviation pbe0
 ------------------------
 Symbolic Z-matrix:
 Charge =  0 Multiplicity = 6
 O                    -0.35583  -0.12147  -0.46005 
 C                    -1.25651  -1.11646  -0.31025 
 C                    -2.53048  -0.468     0.6098 
 C                    -2.76318   0.77455  -0.05778 
 C                    -3.71835   0.86607  -1.19039 
 Fe                    1.44217   0.16861  -0.07285 
 Cl                    1.66648   2.26307  -0.75831 
 C                    -2.0063    1.97191   0.27713 
 Cl                    2.607    -1.35635  -1.1483 
 Cl                    1.65602   0.02315   2.13298 
 H                    -3.34761  -1.17279   0.4346 
 H                    -2.38755   2.88391  -0.1846 
 H                    -1.82091   2.09861   1.34581 
 H                    -1.00284   1.74286  -0.15664 
 H                    -4.5354    1.53314  -0.87507 
 H                    -3.24942   1.35715  -2.0529 
 H                    -4.14407  -0.09318  -1.4839 
 C                    -2.13475  -0.37486   2.08708 
 H                    -2.8419    0.26076   2.6302 
 H                    -2.16138  -1.3646    2.54545 
 H                    -1.12774   0.0291    2.21408 
 C                    -0.72976  -2.31642   0.49162 
 H                    -1.51714  -3.05068   0.68859 
 H                     0.04476  -2.78881  -0.12191 
 H                    -0.26678  -2.00929   1.42907 
 C                    -1.77354  -1.58789  -1.67588 
 H                    -0.95137  -2.11667  -2.16711 
 H                    -2.62253  -2.27423  -1.58797 
 H                    -2.04225  -0.7486   -2.3194 
 
                    Distance matrix (angstroms):
                    1          2          3          4          5
     1  O    0.000000
     2  C    1.350432   0.000000
     3  C    2.448218   1.699999   0.000000
     4  C    2.600001   2.430990   1.429594   0.000000
     5  C    3.579824   3.281117   2.536031   1.484426   0.000000
     6  Fe   1.861957   2.998438   4.080841   4.248811   5.326003
     7  Cl   3.140817   4.490640   5.190854   4.725291   5.579849
     8  C    2.765806   3.231902   2.517654   1.455579   2.511494
     9  Cl   3.282832   3.960627   5.502162   5.879525   6.704547
    10  Cl   3.285152   3.968730   4.481968   4.989322   6.374878
    11  H    3.294911   2.220515   1.093222   2.091919   2.633434
    12  H    3.638136   4.159083   3.447720   2.146295   2.618077
    13  H    3.215019   3.660295   2.762735   2.147349   3.398789
    14  H    1.996598   2.874655   2.794458   2.011514   3.035023
    15  H    4.514281   4.253295   3.198295   2.093840   1.100899
    16  H    3.618889   3.623164   3.307272   2.134563   1.097717
    17  H    3.924259   3.280636   2.669785   2.166475   1.089743
    18  C    3.117147   2.658650   1.532193   2.513261   3.845709
    19  H    3.984506   3.613368   2.170272   2.737776   3.966292
    20  H    3.720004   3.005888   2.164915   3.422707   4.621311
    21  H    2.787381   2.775088   2.188268   2.896851   4.359154
    22  C    2.421428   1.536345   2.583256   3.740416   4.678572
    23  H    3.353843   2.192440   2.775480   4.091702   4.869987
    24  H    2.718364   2.127326   3.543081   4.537196   5.353573
    25  H    2.672187   2.191331   2.858522   4.023996   5.200252
    26  C    2.374564   1.534453   2.655461   3.029646   3.168576
    27  H    2.692494   2.131071   3.594848   4.011366   4.184122
    28  H    3.323324   2.199776   2.846247   3.414130   3.349679
    29  H    2.587370   2.188475   2.982843   2.820401   2.586724
                    6          7          8          9         10
     6  Fe   0.000000
     7  Cl   2.215157   0.000000
     8  C    3.907211   3.827036   0.000000
     9  Cl   2.199752   3.759903   5.864438   0.000000
    10  Cl   2.220937   3.657442   4.544709   3.684307   0.000000
    11  H    4.999891   6.194298   3.422434   6.164144   5.417662
    12  H    4.695965   4.141227   1.091001   6.622237   5.468593
    13  H    4.047863   4.076302   1.092022   6.145218   4.125068
    14  H    2.909189   2.785307   1.116928   4.859986   3.907592
    15  H    6.183593   6.245778   2.813614   7.709581   7.047129
    16  H    5.229175   5.163600   2.711512   6.517598   6.585169
    17  H    5.767640   6.311964   3.454832   6.876420   6.836395
    18  C    4.213669   5.431780   2.966435   5.823669   3.811877
    19  H    5.066385   5.984708   3.027080   6.825144   4.531550
    20  H    4.710823   6.223131   4.037527   6.031692   4.082710
    21  H    3.442958   4.651169   2.880655   5.212802   2.784940
    22  C    3.348328   5.317521   4.479429   3.839928   3.722839
    23  H    4.438594   6.361198   5.063093   4.822179   4.647959
    24  H    3.271311   5.343821   5.199082   3.109737   3.948128
    25  H    3.149529   5.174475   4.494760   3.915063   2.885035
    26  C    3.999480   5.244581   4.067011   4.418273   5.372591
    27  H    3.916304   5.293389   4.878893   3.778629   5.465158
    28  H    4.978436   6.298494   4.678459   5.327643   6.117946
    29  H    4.246109   5.026117   3.760906   4.832841   5.839213
                   11         12         13         14         15
    11  H    0.000000
    12  H    4.214490   0.000000
    13  H    3.723337   1.811053   0.000000
    14  H    3.787944   1.794486   1.747323   0.000000
    15  H    3.232356   2.629559   3.552540   3.610963   0.000000
    16  H    3.549354   2.562101   3.760539   2.965078   1.752707
    17  H    2.341056   3.692776   4.267120   3.872977   1.780091
    18  C    2.199641   3.980448   2.601163   3.286364   4.263554
    19  H    2.670486   3.874326   2.463693   3.653108   4.095584
    20  H    2.428915   5.055107   3.680884   4.277825   5.072750
    21  H    3.088522   3.935824   2.348887   2.927948   4.839128
    22  C    2.857321   5.499902   4.627390   4.119775   5.582992
    23  H    2.634692   6.061299   5.199941   4.894576   5.706688
    24  H    3.798607   6.172498   5.433396   4.651308   6.342264
    25  H    3.343691   5.571805   4.392854   4.139434   6.006581
    26  C    2.665357   4.753727   4.766885   3.741120   4.243813
    27  H    3.660842   5.567650   5.555654   4.352079   5.275957
    28  H    2.414472   5.350797   5.326480   4.561695   4.320108
    29  H    3.077083   4.227499   4.646441   3.459087   3.675354
                   16         17         18         19         20
    16  H    0.000000
    17  H    1.796558   0.000000
    18  C    4.624043   4.107139   0.000000
    19  H    4.826964   4.329753   1.095018   0.000000
    20  H    5.453127   4.667250   1.091054   1.764111   0.000000
    21  H    4.946961   4.773709   1.092423   1.779095   1.766531
    22  C    5.130148   4.528021   2.879080   3.959356   2.678377
    23  H    5.472253   4.513011   3.081749   4.060844   2.589560
    24  H    5.636431   5.164080   3.931540   5.020636   3.743026
    25  H    5.687992   5.214430   2.567814   3.636914   2.291611
    26  C    3.315667   2.808985   3.970110   4.806377   4.244989
    27  H    4.166719   3.841173   4.746825   5.678067   4.923203
    28  H    3.714311   2.661370   4.165508   4.926178   4.257370
    29  H    2.441823   2.354844   4.423267   5.114375   4.905144
                   21         22         23         24         25
    21  H    0.000000
    22  C    2.937125   0.000000
    23  H    3.458868   1.094482   0.000000
    24  H    3.843462   1.095198   1.779050   0.000000
    25  H    2.347883   1.089717   1.787787   1.763582   0.000000
    26  C    4.261873   2.513627   2.792173   2.676429   3.476874
    27  H    4.881623   2.675416   3.057364   2.372103   3.662329
    28  H    4.689914   2.812300   2.647163   3.086835   3.836958
    29  H    4.689737   3.475994   3.824045   3.653357   4.335051
                   26         27         28         29
    26  C    0.000000
    27  H    1.094021   0.000000
    28  H    1.095245   1.775671   0.000000
    29  H    1.091204   1.756367   1.788649   0.000000
 Framework group  C1[X(C8H16Cl3FeO)]
 Deg. of freedom    81
                         Standard orientation:                         
 ---------------------------------------------------------------------
 Center     Atomic      Atomic             Coordinates (Angstroms)
 Number     Number       Type             X           Y           Z
 ---------------------------------------------------------------------
      1          8           0       -0.355831   -0.121468   -0.460051
      2          6           0       -1.256507   -1.116459   -0.310245
      3          6           0       -2.530481   -0.467999    0.609802
      4          6           0       -2.763183    0.774547   -0.057782
      5          6           0       -3.718348    0.866067   -1.190391
      6         26           0        1.442172    0.168612   -0.072852
      7         17           0        1.666482    2.263071   -0.758307
      8          6           0       -2.006297    1.971907    0.277125
      9         17           0        2.607001   -1.356349   -1.148295
     10         17           0        1.656016    0.023147    2.132975
     11          1           0       -3.347613   -1.172792    0.434597
     12          1           0       -2.387550    2.883907   -0.184596
     13          1           0       -1.820907    2.098614    1.345810
     14          1           0       -1.002845    1.742859   -0.156638
     15          1           0       -4.535397    1.533138   -0.875073
     16          1           0       -3.249421    1.357154   -2.052901
     17          1           0       -4.144067   -0.093180   -1.483903
     18          6           0       -2.134748   -0.374861    2.087075
     19          1           0       -2.841900    0.260762    2.630200
     20          1           0       -2.161384   -1.364600    2.545449
     21          1           0       -1.127736    0.029100    2.214082
     22          6           0       -0.729761   -2.316418    0.491623
     23          1           0       -1.517137   -3.050675    0.688592
     24          1           0        0.044763   -2.788805   -0.121909
     25          1           0       -0.266775   -2.009294    1.429067
     26          6           0       -1.773544   -1.587891   -1.675884
     27          1           0       -0.951366   -2.116669   -2.167106
     28          1           0       -2.622527   -2.274229   -1.587966
     29          1           0       -2.042246   -0.748601   -2.319403
 ---------------------------------------------------------------------
 Rotational constants (GHZ):           0.5868042           0.3312776           0.3123340
   427 basis functions,  1056 primitive gaussians,   461 cartesian basis functions
    77 alpha electrons       72 beta electrons
       nuclear repulsion energy      1646.9554887808 Hartrees.
 NAtoms=   29 NActive=   29 NUniq=   29 SFac= 1.00D+00 NAtFMM=   60 NAOKFM=F Big=F
 ExpMin= 1.40D-02 ExpMax= 4.32D+06 ExpMxC= 4.91D+03 IAcc=3 IRadAn=         5 AccDes= 0.00D+00
 Harris functional with IExCor= 1009 and IRadAn=       5 diagonalized for initial guess.
 HarFok:  IExCor= 1009 AccDes= 0.00D+00 IRadAn=         5 IDoV= 1 UseB2=F ITyADJ=14
 ICtDFT=  3500011 ScaDFX=  1.000000  1.000000  1.000000  1.000000
 FoFCou: FMM=F IPFlag=           0 FMFlag=      100000 FMFlg1=           0
         NFxFlg=           0 DoJE=T BraDBF=F KetDBF=T FulRan=T
         wScrn=  0.000000 ICntrl=       500 IOpCl=  0 I1Cent=   200000004 NGrid=           0
         NMat0=    1 NMatS0=      1 NMatT0=    0 NMatD0=    1 NMtDS0=    0 NMtDT0=    0
 Petite list used in FoFCou.
 Initial guess <Sx>= 0.0000 <Sy>= 0.0000 <Sz>= 2.5000 <S**2>= 8.7500 S= 2.5000
 EnCoef did     5 forward-backward iterations
 EnCoef did     6 forward-backward iterations
 Restarting incremental Fock formation.
 SCF Done:  E(UPBE1PBE) =  -3033.10800785     A.U. after   21 cycles
            NFock= 21  Conv=0.65D-08     -V/T= 2.0021
 <Sx>= 0.0000 <Sy>= 0.0000 <Sz>= 2.5000 <S**2>= 8.7623 S= 2.5021
 <L.S>= 0.000000000000E+00
 Annihilation of the first spin contaminant:
 S**2 before annihilation     8.7623,   after     8.7500
 1\1\GINC-HOLY7C04508\SP\UPBE1PBE\Jul-CC-pVDZ\C8H16Cl3Fe1O1(6)\EKWAN\11
 -Feb-2020\0\\#t pop=none jul-cc-pvdz upbe1pbe\\theory_abbreviation pbe
 0\\0,6\O,0,-0.355831,-0.121468,-0.460051\C,0,-1.256507,-1.116459,-0.31
 0245\C,0,-2.530481,-0.467999,0.609802\C,0,-2.763183,0.774547,-0.057782
 \C,0,-3.718348,0.866067,-1.190391\Fe,0,1.442172,0.168612,-0.072852\Cl,
 0,1.666482,2.263071,-0.758307\C,0,-2.006297,1.971907,0.277125\Cl,0,2.6
 07001,-1.356349,-1.148295\Cl,0,1.656016,0.023147,2.132975\H,0,-3.34761
 3,-1.172792,0.434597\H,0,-2.38755,2.883907,-0.184596\H,0,-1.820907,2.0
 98614,1.34581\H,0,-1.002845,1.742859,-0.156638\H,0,-4.535397,1.533138,
 -0.875073\H,0,-3.249421,1.357154,-2.052901\H,0,-4.144067,-0.09318,-1.4
 83903\C,0,-2.134748,-0.374861,2.087075\H,0,-2.8419,0.260762,2.6302\H,0
 ,-2.161384,-1.3646,2.545449\H,0,-1.127736,0.0291,2.214082\C,0,-0.72976
 1,-2.316418,0.491623\H,0,-1.517137,-3.050675,0.688592\H,0,0.044763,-2.
 788805,-0.121909\H,0,-0.266775,-2.009294,1.429067\C,0,-1.773544,-1.587
 891,-1.675884\H,0,-0.951366,-2.116669,-2.167106\H,0,-2.622527,-2.27422
 9,-1.587966\H,0,-2.042246,-0.748601,-2.319403\\Version=ES64L-G16RevA.0
 3\HF=-3033.1080079\S2=8.762317\S2-1=0.\S2A=8.750047\RMSD=6.464e-09\PG=
 C01 [X(C8H16Cl3Fe1O1)]\\@


 IT IS THE BEHAVIOR AND DISTRIBUTION OF THE ELECTRONS 
 AROUND THE NUCLEUS THAT GIVES THE FUNDAMENTAL 
 CHARACTER OF AN ATOM:  IT MUST BE THE SAME FOR MOLECULES.

                               -- C. A. COULSON, 1951
 Job cpu time:       0 days  1 hours 28 minutes 24.8 seconds.
 Elapsed time:       0 days  0 hours 22 minutes 10.3 seconds.
 File lengths (MBytes):  RWF=    173 Int=      0 D2E=      0 Chk=     13 Scr=      1
 Normal termination of Gaussian 16 at Tue Feb 11 13:57:18 2020.
 Initial command:
 /n/sw/g16_nehalem/g16/l1.exe "/scratch/Gau-92879.inp" -scrdir="/scratch/"
 Entering Link 1 = /n/sw/g16_nehalem/g16/l1.exe PID=     94885.
  
 Copyright (c) 1988,1990,1992,1993,1995,1998,2003,2009,2016,
            Gaussian, Inc.  All Rights Reserved.
  
 This is part of the Gaussian(R) 16 program.  It is based on
 the Gaussian(R) 09 system (copyright 2009, Gaussian, Inc.),
 the Gaussian(R) 03 system (copyright 2003, Gaussian, Inc.),
 the Gaussian(R) 98 system (copyright 1998, Gaussian, Inc.),
 the Gaussian(R) 94 system (copyright 1995, Gaussian, Inc.),
 the Gaussian 92(TM) system (copyright 1992, Gaussian, Inc.),
 the Gaussian 90(TM) system (copyright 1990, Gaussian, Inc.),
 the Gaussian 88(TM) system (copyright 1988, Gaussian, Inc.),
 the Gaussian 86(TM) system (copyright 1986, Carnegie Mellon
 University), and the Gaussian 82(TM) system (copyright 1983,
 Carnegie Mellon University). Gaussian is a federally registered
 trademark of Gaussian, Inc.
  
 This software contains proprietary and confidential information,
 including trade secrets, belonging to Gaussian, Inc.
  
 This software is provided under written license and may be
 used, copied, transmitted, or stored only in accord with that
 written license.
  
 The following legend is applicable only to US Government
 contracts under FAR:
  
                    RESTRICTED RIGHTS LEGEND
  
 Use, reproduction and disclosure by the US Government is
 subject to restrictions as set forth in subparagraphs (a)
 and (c) of the Commercial Computer Software - Restricted
 Rights clause in FAR 52.227-19.
  
 Gaussian, Inc.
 340 Quinnipiac St., Bldg. 40, Wallingford CT 06492
  
  
 ---------------------------------------------------------------
 Warning -- This program may not be used in any manner that
 competes with the business of Gaussian, Inc. or will provide
 assistance to any competitor of Gaussian, Inc.  The licensee
 of this program is prohibited from giving any competitor of
 Gaussian, Inc. access to this program.  By using this program,
 the user acknowledges that Gaussian, Inc. is engaged in the
 business of creating and licensing software in the field of
 computational chemistry and represents and warrants to the
 licensee that it is not a competitor of Gaussian, Inc. and that
 it will not use this program in any manner prohibited above.
 ---------------------------------------------------------------
  

 Cite this work as:
 Gaussian 16, Revision A.03,
 M. J. Frisch, G. W. Trucks, H. B. Schlegel, G. E. Scuseria, 
 M. A. Robb, J. R. Cheeseman, G. Scalmani, V. Barone, 
 G. A. Petersson, H. Nakatsuji, X. Li, M. Caricato, A. V. Marenich, 
 J. Bloino, B. G. Janesko, R. Gomperts, B. Mennucci, H. P. Hratchian, 
 J. V. Ortiz, A. F. Izmaylov, J. L. Sonnenberg, D. Williams-Young, 
 F. Ding, F. Lipparini, F. Egidi, J. Goings, B. Peng, A. Petrone, 
 T. Henderson, D. Ranasinghe, V. G. Zakrzewski, J. Gao, N. Rega, 
 G. Zheng, W. Liang, M. Hada, M. Ehara, K. Toyota, R. Fukuda, 
 J. Hasegawa, M. Ishida, T. Nakajima, Y. Honda, O. Kitao, H. Nakai, 
 T. Vreven, K. Throssell, J. A. Montgomery, Jr., J. E. Peralta, 
 F. Ogliaro, M. J. Bearpark, J. J. Heyd, E. N. Brothers, K. N. Kudin, 
 V. N. Staroverov, T. A. Keith, R. Kobayashi, J. Normand, 
 K. Raghavachari, A. P. Rendell, J. C. Burant, S. S. Iyengar, 
 J. Tomasi, M. Cossi, J. M. Millam, M. Klene, C. Adamo, R. Cammi, 
 J. W. Ochterski, R. L. Martin, K. Morokuma, O. Farkas, 
 J. B. Foresman, and D. J. Fox, Gaussian, Inc., Wallingford CT, 2016.
 
 ******************************************
 Gaussian 16:  ES64L-G16RevA.03 25-Dec-2016
                11-Feb-2020 
 ******************************************
 %chk=checkpoint.chk
 %mem=3GB
 %nprocshared=4
 Will use up to    4 processors via shared memory.
 ---------------------------------------------------------------------
 #t pop=none jul-cc-pvdz guess=read upbe1pbe empiricaldispersion=gd3bj
 ---------------------------------------------------------------------
 -----------------------------
 theory_abbreviation pbe0_d3bj
 -----------------------------
 Symbolic Z-matrix:
 Charge =  0 Multiplicity = 6
 O                    -0.35583  -0.12147  -0.46005 
 C                    -1.25651  -1.11646  -0.31025 
 C                    -2.53048  -0.468     0.6098 
 C                    -2.76318   0.77455  -0.05778 
 C                    -3.71835   0.86607  -1.19039 
 Fe                    1.44217   0.16861  -0.07285 
 Cl                    1.66648   2.26307  -0.75831 
 C                    -2.0063    1.97191   0.27713 
 Cl                    2.607    -1.35635  -1.1483 
 Cl                    1.65602   0.02315   2.13298 
 H                    -3.34761  -1.17279   0.4346 
 H                    -2.38755   2.88391  -0.1846 
 H                    -1.82091   2.09861   1.34581 
 H                    -1.00284   1.74286  -0.15664 
 H                    -4.5354    1.53314  -0.87507 
 H                    -3.24942   1.35715  -2.0529 
 H                    -4.14407  -0.09318  -1.4839 
 C                    -2.13475  -0.37486   2.08708 
 H                    -2.8419    0.26076   2.6302 
 H                    -2.16138  -1.3646    2.54545 
 H                    -1.12774   0.0291    2.21408 
 C                    -0.72976  -2.31642   0.49162 
 H                    -1.51714  -3.05068   0.68859 
 H                     0.04476  -2.78881  -0.12191 
 H                    -0.26678  -2.00929   1.42907 
 C                    -1.77354  -1.58789  -1.67588 
 H                    -0.95137  -2.11667  -2.16711 
 H                    -2.62253  -2.27423  -1.58797 
 H                    -2.04225  -0.7486   -2.3194 
 
                    Distance matrix (angstroms):
                    1          2          3          4          5
     1  O    0.000000
     2  C    1.350432   0.000000
     3  C    2.448218   1.699999   0.000000
     4  C    2.600001   2.430990   1.429594   0.000000
     5  C    3.579824   3.281117   2.536031   1.484426   0.000000
     6  Fe   1.861957   2.998438   4.080841   4.248811   5.326003
     7  Cl   3.140817   4.490640   5.190854   4.725291   5.579849
     8  C    2.765806   3.231902   2.517654   1.455579   2.511494
     9  Cl   3.282832   3.960627   5.502162   5.879525   6.704547
    10  Cl   3.285152   3.968730   4.481968   4.989322   6.374878
    11  H    3.294911   2.220515   1.093222   2.091919   2.633434
    12  H    3.638136   4.159083   3.447720   2.146295   2.618077
    13  H    3.215019   3.660295   2.762735   2.147349   3.398789
    14  H    1.996598   2.874655   2.794458   2.011514   3.035023
    15  H    4.514281   4.253295   3.198295   2.093840   1.100899
    16  H    3.618889   3.623164   3.307272   2.134563   1.097717
    17  H    3.924259   3.280636   2.669785   2.166475   1.089743
    18  C    3.117147   2.658650   1.532193   2.513261   3.845709
    19  H    3.984506   3.613368   2.170272   2.737776   3.966292
    20  H    3.720004   3.005888   2.164915   3.422707   4.621311
    21  H    2.787381   2.775088   2.188268   2.896851   4.359154
    22  C    2.421428   1.536345   2.583256   3.740416   4.678572
    23  H    3.353843   2.192440   2.775480   4.091702   4.869987
    24  H    2.718364   2.127326   3.543081   4.537196   5.353573
    25  H    2.672187   2.191331   2.858522   4.023996   5.200252
    26  C    2.374564   1.534453   2.655461   3.029646   3.168576
    27  H    2.692494   2.131071   3.594848   4.011366   4.184122
    28  H    3.323324   2.199776   2.846247   3.414130   3.349679
    29  H    2.587370   2.188475   2.982843   2.820401   2.586724
                    6          7          8          9         10
     6  Fe   0.000000
     7  Cl   2.215157   0.000000
     8  C    3.907211   3.827036   0.000000
     9  Cl   2.199752   3.759903   5.864438   0.000000
    10  Cl   2.220937   3.657442   4.544709   3.684307   0.000000
    11  H    4.999891   6.194298   3.422434   6.164144   5.417662
    12  H    4.695965   4.141227   1.091001   6.622237   5.468593
    13  H    4.047863   4.076302   1.092022   6.145218   4.125068
    14  H    2.909189   2.785307   1.116928   4.859986   3.907592
    15  H    6.183593   6.245778   2.813614   7.709581   7.047129
    16  H    5.229175   5.163600   2.711512   6.517598   6.585169
    17  H    5.767640   6.311964   3.454832   6.876420   6.836395
    18  C    4.213669   5.431780   2.966435   5.823669   3.811877
    19  H    5.066385   5.984708   3.027080   6.825144   4.531550
    20  H    4.710823   6.223131   4.037527   6.031692   4.082710
    21  H    3.442958   4.651169   2.880655   5.212802   2.784940
    22  C    3.348328   5.317521   4.479429   3.839928   3.722839
    23  H    4.438594   6.361198   5.063093   4.822179   4.647959
    24  H    3.271311   5.343821   5.199082   3.109737   3.948128
    25  H    3.149529   5.174475   4.494760   3.915063   2.885035
    26  C    3.999480   5.244581   4.067011   4.418273   5.372591
    27  H    3.916304   5.293389   4.878893   3.778629   5.465158
    28  H    4.978436   6.298494   4.678459   5.327643   6.117946
    29  H    4.246109   5.026117   3.760906   4.832841   5.839213
                   11         12         13         14         15
    11  H    0.000000
    12  H    4.214490   0.000000
    13  H    3.723337   1.811053   0.000000
    14  H    3.787944   1.794486   1.747323   0.000000
    15  H    3.232356   2.629559   3.552540   3.610963   0.000000
    16  H    3.549354   2.562101   3.760539   2.965078   1.752707
    17  H    2.341056   3.692776   4.267120   3.872977   1.780091
    18  C    2.199641   3.980448   2.601163   3.286364   4.263554
    19  H    2.670486   3.874326   2.463693   3.653108   4.095584
    20  H    2.428915   5.055107   3.680884   4.277825   5.072750
    21  H    3.088522   3.935824   2.348887   2.927948   4.839128
    22  C    2.857321   5.499902   4.627390   4.119775   5.582992
    23  H    2.634692   6.061299   5.199941   4.894576   5.706688
    24  H    3.798607   6.172498   5.433396   4.651308   6.342264
    25  H    3.343691   5.571805   4.392854   4.139434   6.006581
    26  C    2.665357   4.753727   4.766885   3.741120   4.243813
    27  H    3.660842   5.567650   5.555654   4.352079   5.275957
    28  H    2.414472   5.350797   5.326480   4.561695   4.320108
    29  H    3.077083   4.227499   4.646441   3.459087   3.675354
                   16         17         18         19         20
    16  H    0.000000
    17  H    1.796558   0.000000
    18  C    4.624043   4.107139   0.000000
    19  H    4.826964   4.329753   1.095018   0.000000
    20  H    5.453127   4.667250   1.091054   1.764111   0.000000
    21  H    4.946961   4.773709   1.092423   1.779095   1.766531
    22  C    5.130148   4.528021   2.879080   3.959356   2.678377
    23  H    5.472253   4.513011   3.081749   4.060844   2.589560
    24  H    5.636431   5.164080   3.931540   5.020636   3.743026
    25  H    5.687992   5.214430   2.567814   3.636914   2.291611
    26  C    3.315667   2.808985   3.970110   4.806377   4.244989
    27  H    4.166719   3.841173   4.746825   5.678067   4.923203
    28  H    3.714311   2.661370   4.165508   4.926178   4.257370
    29  H    2.441823   2.354844   4.423267   5.114375   4.905144
                   21         22         23         24         25
    21  H    0.000000
    22  C    2.937125   0.000000
    23  H    3.458868   1.094482   0.000000
    24  H    3.843462   1.095198   1.779050   0.000000
    25  H    2.347883   1.089717   1.787787   1.763582   0.000000
    26  C    4.261873   2.513627   2.792173   2.676429   3.476874
    27  H    4.881623   2.675416   3.057364   2.372103   3.662329
    28  H    4.689914   2.812300   2.647163   3.086835   3.836958
    29  H    4.689737   3.475994   3.824045   3.653357   4.335051
                   26         27         28         29
    26  C    0.000000
    27  H    1.094021   0.000000
    28  H    1.095245   1.775671   0.000000
    29  H    1.091204   1.756367   1.788649   0.000000
 Framework group  C1[X(C8H16Cl3FeO)]
 Deg. of freedom    81
                         Standard orientation:                         
 ---------------------------------------------------------------------
 Center     Atomic      Atomic             Coordinates (Angstroms)
 Number     Number       Type             X           Y           Z
 ---------------------------------------------------------------------
      1          8           0       -0.355831   -0.121468   -0.460051
      2          6           0       -1.256507   -1.116459   -0.310245
      3          6           0       -2.530481   -0.467999    0.609802
      4          6           0       -2.763183    0.774547   -0.057782
      5          6           0       -3.718348    0.866067   -1.190391
      6         26           0        1.442172    0.168612   -0.072852
      7         17           0        1.666482    2.263071   -0.758307
      8          6           0       -2.006297    1.971907    0.277125
      9         17           0        2.607001   -1.356349   -1.148295
     10         17           0        1.656016    0.023147    2.132975
     11          1           0       -3.347613   -1.172792    0.434597
     12          1           0       -2.387550    2.883907   -0.184596
     13          1           0       -1.820907    2.098614    1.345810
     14          1           0       -1.002845    1.742859   -0.156638
     15          1           0       -4.535397    1.533138   -0.875073
     16          1           0       -3.249421    1.357154   -2.052901
     17          1           0       -4.144067   -0.093180   -1.483903
     18          6           0       -2.134748   -0.374861    2.087075
     19          1           0       -2.841900    0.260762    2.630200
     20          1           0       -2.161384   -1.364600    2.545449
     21          1           0       -1.127736    0.029100    2.214082
     22          6           0       -0.729761   -2.316418    0.491623
     23          1           0       -1.517137   -3.050675    0.688592
     24          1           0        0.044763   -2.788805   -0.121909
     25          1           0       -0.266775   -2.009294    1.429067
     26          6           0       -1.773544   -1.587891   -1.675884
     27          1           0       -0.951366   -2.116669   -2.167106
     28          1           0       -2.622527   -2.274229   -1.587966
     29          1           0       -2.042246   -0.748601   -2.319403
 ---------------------------------------------------------------------
 Rotational constants (GHZ):           0.5868042           0.3312776           0.3123340
   427 basis functions,  1056 primitive gaussians,   461 cartesian basis functions
    77 alpha electrons       72 beta electrons
       nuclear repulsion energy      1646.9554887808 Hartrees.
 NAtoms=   29 NActive=   29 NUniq=   29 SFac= 1.00D+00 NAtFMM=   60 NAOKFM=F Big=F
 Nuclear repulsion after empirical dispersion term =     1646.9189273788 Hartrees.
 Initial guess from the checkpoint file:  "checkpoint.chk"
 B after Tr=     0.000000    0.000000    0.000000
         Rot=    1.000000    0.000000    0.000000    0.000000 Ang=   0.00 deg.
 Initial guess <Sx>= 0.0000 <Sy>= 0.0000 <Sz>= 2.5000 <S**2>= 8.7623 S= 2.5021
 SCF Done:  E(UPBE1PBE) =  -3033.14456926     A.U. after    1 cycles
            NFock=  1  Conv=0.26D-08     -V/T= 2.0021
 <Sx>= 0.0000 <Sy>= 0.0000 <Sz>= 2.5000 <S**2>= 8.7623 S= 2.5021
 <L.S>= 0.000000000000E+00
 Annihilation of the first spin contaminant:
 S**2 before annihilation     8.7623,   after     8.7500
 1\1\GINC-HOLY7C04508\SP\UPBE1PBE\Jul-CC-pVDZ\C8H16Cl3Fe1O1(6)\EKWAN\11
 -Feb-2020\0\\#t pop=none jul-cc-pvdz guess=read upbe1pbe empiricaldisp
 ersion=gd3bj\\theory_abbreviation pbe0_d3bj\\0,6\O,0,-0.355831,-0.1214
 68,-0.460051\C,0,-1.256507,-1.116459,-0.310245\C,0,-2.530481,-0.467999
 ,0.609802\C,0,-2.763183,0.774547,-0.057782\C,0,-3.718348,0.866067,-1.1
 90391\Fe,0,1.442172,0.168612,-0.072852\Cl,0,1.666482,2.263071,-0.75830
 7\C,0,-2.006297,1.971907,0.277125\Cl,0,2.607001,-1.356349,-1.148295\Cl
 ,0,1.656016,0.023147,2.132975\H,0,-3.347613,-1.172792,0.434597\H,0,-2.
 38755,2.883907,-0.184596\H,0,-1.820907,2.098614,1.34581\H,0,-1.002845,
 1.742859,-0.156638\H,0,-4.535397,1.533138,-0.875073\H,0,-3.249421,1.35
 7154,-2.052901\H,0,-4.144067,-0.09318,-1.483903\C,0,-2.134748,-0.37486
 1,2.087075\H,0,-2.8419,0.260762,2.6302\H,0,-2.161384,-1.3646,2.545449\
 H,0,-1.127736,0.0291,2.214082\C,0,-0.729761,-2.316418,0.491623\H,0,-1.
 517137,-3.050675,0.688592\H,0,0.044763,-2.788805,-0.121909\H,0,-0.2667
 75,-2.009294,1.429067\C,0,-1.773544,-1.587891,-1.675884\H,0,-0.951366,
 -2.116669,-2.167106\H,0,-2.622527,-2.274229,-1.587966\H,0,-2.042246,-0
 .748601,-2.319403\\Version=ES64L-G16RevA.03\HF=-3033.1445693\S2=8.7623
 17\S2-1=0.\S2A=8.750047\RMSD=2.635e-09\PG=C01 [X(C8H16Cl3Fe1O1)]\\@


 EDUCATION DOESN'T COST 
           ... IT PAYS!

 -- POSTMARK, UNIV. OF MISSISSIPPI, DEC 78
 Job cpu time:       0 days  0 hours  4 minutes 33.5 seconds.
 Elapsed time:       0 days  0 hours  1 minutes  9.6 seconds.
 File lengths (MBytes):  RWF=    170 Int=      0 D2E=      0 Chk=     13 Scr=      1
 Normal termination of Gaussian 16 at Tue Feb 11 13:58:28 2020.
 Initial command:
 /n/sw/g16_nehalem/g16/l1.exe "/scratch/Gau-92879.inp" -scrdir="/scratch/"
 Entering Link 1 = /n/sw/g16_nehalem/g16/l1.exe PID=     95073.
  
 Copyright (c) 1988,1990,1992,1993,1995,1998,2003,2009,2016,
            Gaussian, Inc.  All Rights Reserved.
  
 This is part of the Gaussian(R) 16 program.  It is based on
 the Gaussian(R) 09 system (copyright 2009, Gaussian, Inc.),
 the Gaussian(R) 03 system (copyright 2003, Gaussian, Inc.),
 the Gaussian(R) 98 system (copyright 1998, Gaussian, Inc.),
 the Gaussian(R) 94 system (copyright 1995, Gaussian, Inc.),
 the Gaussian 92(TM) system (copyright 1992, Gaussian, Inc.),
 the Gaussian 90(TM) system (copyright 1990, Gaussian, Inc.),
 the Gaussian 88(TM) system (copyright 1988, Gaussian, Inc.),
 the Gaussian 86(TM) system (copyright 1986, Carnegie Mellon
 University), and the Gaussian 82(TM) system (copyright 1983,
 Carnegie Mellon University). Gaussian is a federally registered
 trademark of Gaussian, Inc.
  
 This software contains proprietary and confidential information,
 including trade secrets, belonging to Gaussian, Inc.
  
 This software is provided under written license and may be
 used, copied, transmitted, or stored only in accord with that
 written license.
  
 The following legend is applicable only to US Government
 contracts under FAR:
  
                    RESTRICTED RIGHTS LEGEND
  
 Use, reproduction and disclosure by the US Government is
 subject to restrictions as set forth in subparagraphs (a)
 and (c) of the Commercial Computer Software - Restricted
 Rights clause in FAR 52.227-19.
  
 Gaussian, Inc.
 340 Quinnipiac St., Bldg. 40, Wallingford CT 06492
  
  
 ---------------------------------------------------------------
 Warning -- This program may not be used in any manner that
 competes with the business of Gaussian, Inc. or will provide
 assistance to any competitor of Gaussian, Inc.  The licensee
 of this program is prohibited from giving any competitor of
 Gaussian, Inc. access to this program.  By using this program,
 the user acknowledges that Gaussian, Inc. is engaged in the
 business of creating and licensing software in the field of
 computational chemistry and represents and warrants to the
 licensee that it is not a competitor of Gaussian, Inc. and that
 it will not use this program in any manner prohibited above.
 ---------------------------------------------------------------
  

 Cite this work as:
 Gaussian 16, Revision A.03,
 M. J. Frisch, G. W. Trucks, H. B. Schlegel, G. E. Scuseria, 
 M. A. Robb, J. R. Cheeseman, G. Scalmani, V. Barone, 
 G. A. Petersson, H. Nakatsuji, X. Li, M. Caricato, A. V. Marenich, 
 J. Bloino, B. G. Janesko, R. Gomperts, B. Mennucci, H. P. Hratchian, 
 J. V. Ortiz, A. F. Izmaylov, J. L. Sonnenberg, D. Williams-Young, 
 F. Ding, F. Lipparini, F. Egidi, J. Goings, B. Peng, A. Petrone, 
 T. Henderson, D. Ranasinghe, V. G. Zakrzewski, J. Gao, N. Rega, 
 G. Zheng, W. Liang, M. Hada, M. Ehara, K. Toyota, R. Fukuda, 
 J. Hasegawa, M. Ishida, T. Nakajima, Y. Honda, O. Kitao, H. Nakai, 
 T. Vreven, K. Throssell, J. A. Montgomery, Jr., J. E. Peralta, 
 F. Ogliaro, M. J. Bearpark, J. J. Heyd, E. N. Brothers, K. N. Kudin, 
 V. N. Staroverov, T. A. Keith, R. Kobayashi, J. Normand, 
 K. Raghavachari, A. P. Rendell, J. C. Burant, S. S. Iyengar, 
 J. Tomasi, M. Cossi, J. M. Millam, M. Klene, C. Adamo, R. Cammi, 
 J. W. Ochterski, R. L. Martin, K. Morokuma, O. Farkas, 
 J. B. Foresman, and D. J. Fox, Gaussian, Inc., Wallingford CT, 2016.
 
 ******************************************
 Gaussian 16:  ES64L-G16RevA.03 25-Dec-2016
                11-Feb-2020 
 ******************************************
 %chk=checkpoint.chk
 %mem=3GB
 %nprocshared=4
 Will use up to    4 processors via shared memory.
 -----------------------------------------
 #t pop=none jul-cc-pvdz guess=read ub3lyp
 -----------------------------------------
 -------------------------
 theory_abbreviation b3lyp
 -------------------------
 Symbolic Z-matrix:
 Charge =  0 Multiplicity = 6
 O                    -0.35583  -0.12147  -0.46005 
 C                    -1.25651  -1.11646  -0.31025 
 C                    -2.53048  -0.468     0.6098 
 C                    -2.76318   0.77455  -0.05778 
 C                    -3.71835   0.86607  -1.19039 
 Fe                    1.44217   0.16861  -0.07285 
 Cl                    1.66648   2.26307  -0.75831 
 C                    -2.0063    1.97191   0.27713 
 Cl                    2.607    -1.35635  -1.1483 
 Cl                    1.65602   0.02315   2.13298 
 H                    -3.34761  -1.17279   0.4346 
 H                    -2.38755   2.88391  -0.1846 
 H                    -1.82091   2.09861   1.34581 
 H                    -1.00284   1.74286  -0.15664 
 H                    -4.5354    1.53314  -0.87507 
 H                    -3.24942   1.35715  -2.0529 
 H                    -4.14407  -0.09318  -1.4839 
 C                    -2.13475  -0.37486   2.08708 
 H                    -2.8419    0.26076   2.6302 
 H                    -2.16138  -1.3646    2.54545 
 H                    -1.12774   0.0291    2.21408 
 C                    -0.72976  -2.31642   0.49162 
 H                    -1.51714  -3.05068   0.68859 
 H                     0.04476  -2.78881  -0.12191 
 H                    -0.26678  -2.00929   1.42907 
 C                    -1.77354  -1.58789  -1.67588 
 H                    -0.95137  -2.11667  -2.16711 
 H                    -2.62253  -2.27423  -1.58797 
 H                    -2.04225  -0.7486   -2.3194 
 
                    Distance matrix (angstroms):
                    1          2          3          4          5
     1  O    0.000000
     2  C    1.350432   0.000000
     3  C    2.448218   1.699999   0.000000
     4  C    2.600001   2.430990   1.429594   0.000000
     5  C    3.579824   3.281117   2.536031   1.484426   0.000000
     6  Fe   1.861957   2.998438   4.080841   4.248811   5.326003
     7  Cl   3.140817   4.490640   5.190854   4.725291   5.579849
     8  C    2.765806   3.231902   2.517654   1.455579   2.511494
     9  Cl   3.282832   3.960627   5.502162   5.879525   6.704547
    10  Cl   3.285152   3.968730   4.481968   4.989322   6.374878
    11  H    3.294911   2.220515   1.093222   2.091919   2.633434
    12  H    3.638136   4.159083   3.447720   2.146295   2.618077
    13  H    3.215019   3.660295   2.762735   2.147349   3.398789
    14  H    1.996598   2.874655   2.794458   2.011514   3.035023
    15  H    4.514281   4.253295   3.198295   2.093840   1.100899
    16  H    3.618889   3.623164   3.307272   2.134563   1.097717
    17  H    3.924259   3.280636   2.669785   2.166475   1.089743
    18  C    3.117147   2.658650   1.532193   2.513261   3.845709
    19  H    3.984506   3.613368   2.170272   2.737776   3.966292
    20  H    3.720004   3.005888   2.164915   3.422707   4.621311
    21  H    2.787381   2.775088   2.188268   2.896851   4.359154
    22  C    2.421428   1.536345   2.583256   3.740416   4.678572
    23  H    3.353843   2.192440   2.775480   4.091702   4.869987
    24  H    2.718364   2.127326   3.543081   4.537196   5.353573
    25  H    2.672187   2.191331   2.858522   4.023996   5.200252
    26  C    2.374564   1.534453   2.655461   3.029646   3.168576
    27  H    2.692494   2.131071   3.594848   4.011366   4.184122
    28  H    3.323324   2.199776   2.846247   3.414130   3.349679
    29  H    2.587370   2.188475   2.982843   2.820401   2.586724
                    6          7          8          9         10
     6  Fe   0.000000
     7  Cl   2.215157   0.000000
     8  C    3.907211   3.827036   0.000000
     9  Cl   2.199752   3.759903   5.864438   0.000000
    10  Cl   2.220937   3.657442   4.544709   3.684307   0.000000
    11  H    4.999891   6.194298   3.422434   6.164144   5.417662
    12  H    4.695965   4.141227   1.091001   6.622237   5.468593
    13  H    4.047863   4.076302   1.092022   6.145218   4.125068
    14  H    2.909189   2.785307   1.116928   4.859986   3.907592
    15  H    6.183593   6.245778   2.813614   7.709581   7.047129
    16  H    5.229175   5.163600   2.711512   6.517598   6.585169
    17  H    5.767640   6.311964   3.454832   6.876420   6.836395
    18  C    4.213669   5.431780   2.966435   5.823669   3.811877
    19  H    5.066385   5.984708   3.027080   6.825144   4.531550
    20  H    4.710823   6.223131   4.037527   6.031692   4.082710
    21  H    3.442958   4.651169   2.880655   5.212802   2.784940
    22  C    3.348328   5.317521   4.479429   3.839928   3.722839
    23  H    4.438594   6.361198   5.063093   4.822179   4.647959
    24  H    3.271311   5.343821   5.199082   3.109737   3.948128
    25  H    3.149529   5.174475   4.494760   3.915063   2.885035
    26  C    3.999480   5.244581   4.067011   4.418273   5.372591
    27  H    3.916304   5.293389   4.878893   3.778629   5.465158
    28  H    4.978436   6.298494   4.678459   5.327643   6.117946
    29  H    4.246109   5.026117   3.760906   4.832841   5.839213
                   11         12         13         14         15
    11  H    0.000000
    12  H    4.214490   0.000000
    13  H    3.723337   1.811053   0.000000
    14  H    3.787944   1.794486   1.747323   0.000000
    15  H    3.232356   2.629559   3.552540   3.610963   0.000000
    16  H    3.549354   2.562101   3.760539   2.965078   1.752707
    17  H    2.341056   3.692776   4.267120   3.872977   1.780091
    18  C    2.199641   3.980448   2.601163   3.286364   4.263554
    19  H    2.670486   3.874326   2.463693   3.653108   4.095584
    20  H    2.428915   5.055107   3.680884   4.277825   5.072750
    21  H    3.088522   3.935824   2.348887   2.927948   4.839128
    22  C    2.857321   5.499902   4.627390   4.119775   5.582992
    23  H    2.634692   6.061299   5.199941   4.894576   5.706688
    24  H    3.798607   6.172498   5.433396   4.651308   6.342264
    25  H    3.343691   5.571805   4.392854   4.139434   6.006581
    26  C    2.665357   4.753727   4.766885   3.741120   4.243813
    27  H    3.660842   5.567650   5.555654   4.352079   5.275957
    28  H    2.414472   5.350797   5.326480   4.561695   4.320108
    29  H    3.077083   4.227499   4.646441   3.459087   3.675354
                   16         17         18         19         20
    16  H    0.000000
    17  H    1.796558   0.000000
    18  C    4.624043   4.107139   0.000000
    19  H    4.826964   4.329753   1.095018   0.000000
    20  H    5.453127   4.667250   1.091054   1.764111   0.000000
    21  H    4.946961   4.773709   1.092423   1.779095   1.766531
    22  C    5.130148   4.528021   2.879080   3.959356   2.678377
    23  H    5.472253   4.513011   3.081749   4.060844   2.589560
    24  H    5.636431   5.164080   3.931540   5.020636   3.743026
    25  H    5.687992   5.214430   2.567814   3.636914   2.291611
    26  C    3.315667   2.808985   3.970110   4.806377   4.244989
    27  H    4.166719   3.841173   4.746825   5.678067   4.923203
    28  H    3.714311   2.661370   4.165508   4.926178   4.257370
    29  H    2.441823   2.354844   4.423267   5.114375   4.905144
                   21         22         23         24         25
    21  H    0.000000
    22  C    2.937125   0.000000
    23  H    3.458868   1.094482   0.000000
    24  H    3.843462   1.095198   1.779050   0.000000
    25  H    2.347883   1.089717   1.787787   1.763582   0.000000
    26  C    4.261873   2.513627   2.792173   2.676429   3.476874
    27  H    4.881623   2.675416   3.057364   2.372103   3.662329
    28  H    4.689914   2.812300   2.647163   3.086835   3.836958
    29  H    4.689737   3.475994   3.824045   3.653357   4.335051
                   26         27         28         29
    26  C    0.000000
    27  H    1.094021   0.000000
    28  H    1.095245   1.775671   0.000000
    29  H    1.091204   1.756367   1.788649   0.000000
 Framework group  C1[X(C8H16Cl3FeO)]
 Deg. of freedom    81
                         Standard orientation:                         
 ---------------------------------------------------------------------
 Center     Atomic      Atomic             Coordinates (Angstroms)
 Number     Number       Type             X           Y           Z
 ---------------------------------------------------------------------
      1          8           0       -0.355831   -0.121468   -0.460051
      2          6           0       -1.256507   -1.116459   -0.310245
      3          6           0       -2.530481   -0.467999    0.609802
      4          6           0       -2.763183    0.774547   -0.057782
      5          6           0       -3.718348    0.866067   -1.190391
      6         26           0        1.442172    0.168612   -0.072852
      7         17           0        1.666482    2.263071   -0.758307
      8          6           0       -2.006297    1.971907    0.277125
      9         17           0        2.607001   -1.356349   -1.148295
     10         17           0        1.656016    0.023147    2.132975
     11          1           0       -3.347613   -1.172792    0.434597
     12          1           0       -2.387550    2.883907   -0.184596
     13          1           0       -1.820907    2.098614    1.345810
     14          1           0       -1.002845    1.742859   -0.156638
     15          1           0       -4.535397    1.533138   -0.875073
     16          1           0       -3.249421    1.357154   -2.052901
     17          1           0       -4.144067   -0.093180   -1.483903
     18          6           0       -2.134748   -0.374861    2.087075
     19          1           0       -2.841900    0.260762    2.630200
     20          1           0       -2.161384   -1.364600    2.545449
     21          1           0       -1.127736    0.029100    2.214082
     22          6           0       -0.729761   -2.316418    0.491623
     23          1           0       -1.517137   -3.050675    0.688592
     24          1           0        0.044763   -2.788805   -0.121909
     25          1           0       -0.266775   -2.009294    1.429067
     26          6           0       -1.773544   -1.587891   -1.675884
     27          1           0       -0.951366   -2.116669   -2.167106
     28          1           0       -2.622527   -2.274229   -1.587966
     29          1           0       -2.042246   -0.748601   -2.319403
 ---------------------------------------------------------------------
 Rotational constants (GHZ):           0.5868042           0.3312776           0.3123340
   427 basis functions,  1056 primitive gaussians,   461 cartesian basis functions
    77 alpha electrons       72 beta electrons
       nuclear repulsion energy      1646.9554887808 Hartrees.
 NAtoms=   29 NActive=   29 NUniq=   29 SFac= 1.00D+00 NAtFMM=   60 NAOKFM=F Big=F
 Initial guess from the checkpoint file:  "checkpoint.chk"
 B after Tr=     0.000000    0.000000    0.000000
         Rot=    1.000000    0.000000    0.000000    0.000000 Ang=   0.00 deg.
 Initial guess <Sx>= 0.0000 <Sy>= 0.0000 <Sz>= 2.5000 <S**2>= 8.7623 S= 2.5021
 SCF Done:  E(UB3LYP) =  -3034.31924816     A.U. after   15 cycles
            NFock= 15  Conv=0.65D-08     -V/T= 2.0024
 <Sx>= 0.0000 <Sy>= 0.0000 <Sz>= 2.5000 <S**2>= 8.7617 S= 2.5019
 <L.S>= 0.000000000000E+00
 Annihilation of the first spin contaminant:
 S**2 before annihilation     8.7617,   after     8.7500
 1\1\GINC-HOLY7C04508\SP\UB3LYP\Jul-CC-pVDZ\C8H16Cl3Fe1O1(6)\EKWAN\11-F
 eb-2020\0\\#t pop=none jul-cc-pvdz guess=read ub3lyp\\theory_abbreviat
 ion b3lyp\\0,6\O,0,-0.355831,-0.121468,-0.460051\C,0,-1.256507,-1.1164
 59,-0.310245\C,0,-2.530481,-0.467999,0.609802\C,0,-2.763183,0.774547,-
 0.057782\C,0,-3.718348,0.866067,-1.190391\Fe,0,1.442172,0.168612,-0.07
 2852\Cl,0,1.666482,2.263071,-0.758307\C,0,-2.006297,1.971907,0.277125\
 Cl,0,2.607001,-1.356349,-1.148295\Cl,0,1.656016,0.023147,2.132975\H,0,
 -3.347613,-1.172792,0.434597\H,0,-2.38755,2.883907,-0.184596\H,0,-1.82
 0907,2.098614,1.34581\H,0,-1.002845,1.742859,-0.156638\H,0,-4.535397,1
 .533138,-0.875073\H,0,-3.249421,1.357154,-2.052901\H,0,-4.144067,-0.09
 318,-1.483903\C,0,-2.134748,-0.374861,2.087075\H,0,-2.8419,0.260762,2.
 6302\H,0,-2.161384,-1.3646,2.545449\H,0,-1.127736,0.0291,2.214082\C,0,
 -0.729761,-2.316418,0.491623\H,0,-1.517137,-3.050675,0.688592\H,0,0.04
 4763,-2.788805,-0.121909\H,0,-0.266775,-2.009294,1.429067\C,0,-1.77354
 4,-1.587891,-1.675884\H,0,-0.951366,-2.116669,-2.167106\H,0,-2.622527,
 -2.274229,-1.587966\H,0,-2.042246,-0.748601,-2.319403\\Version=ES64L-G
 16RevA.03\HF=-3034.3192482\S2=8.761669\S2-1=0.\S2A=8.750043\RMSD=6.456
 e-09\PG=C01 [X(C8H16Cl3Fe1O1)]\\@


 ACTORS ARE SO FORTUNATE.  THEY CAN CHOOSE WHETHER
 THEY WILL APPEAR IN A TRAGEDY OR IN COMEDY,
 WHETHER THEY WILL SUFFER OF MAKE MERRY,
 LAUGH OR SHED TEARS.  BUT IN REAL LIFE IT IS DIFFERENT.
 MOST MEN AND WOMEN ARE FORCED TO PERFORM
 PARTS FOR WHICH THEY HAVE NO QUALIFICATIONS.
 THE WORLD IS A STAGE, BUT THE PLAY IS BADLY CAST.

                                   -- OSCAR WILDE
 Job cpu time:       0 days  1 hours  1 minutes 12.1 seconds.
 Elapsed time:       0 days  0 hours 15 minutes 21.0 seconds.
 File lengths (MBytes):  RWF=    174 Int=      0 D2E=      0 Chk=     13 Scr=      1
 Normal termination of Gaussian 16 at Tue Feb 11 14:13:50 2020.
 Initial command:
 /n/sw/g16_nehalem/g16/l1.exe "/scratch/Gau-92879.inp" -scrdir="/scratch/"
 Entering Link 1 = /n/sw/g16_nehalem/g16/l1.exe PID=     96331.
  
 Copyright (c) 1988,1990,1992,1993,1995,1998,2003,2009,2016,
            Gaussian, Inc.  All Rights Reserved.
  
 This is part of the Gaussian(R) 16 program.  It is based on
 the Gaussian(R) 09 system (copyright 2009, Gaussian, Inc.),
 the Gaussian(R) 03 system (copyright 2003, Gaussian, Inc.),
 the Gaussian(R) 98 system (copyright 1998, Gaussian, Inc.),
 the Gaussian(R) 94 system (copyright 1995, Gaussian, Inc.),
 the Gaussian 92(TM) system (copyright 1992, Gaussian, Inc.),
 the Gaussian 90(TM) system (copyright 1990, Gaussian, Inc.),
 the Gaussian 88(TM) system (copyright 1988, Gaussian, Inc.),
 the Gaussian 86(TM) system (copyright 1986, Carnegie Mellon
 University), and the Gaussian 82(TM) system (copyright 1983,
 Carnegie Mellon University). Gaussian is a federally registered
 trademark of Gaussian, Inc.
  
 This software contains proprietary and confidential information,
 including trade secrets, belonging to Gaussian, Inc.
  
 This software is provided under written license and may be
 used, copied, transmitted, or stored only in accord with that
 written license.
  
 The following legend is applicable only to US Government
 contracts under FAR:
  
                    RESTRICTED RIGHTS LEGEND
  
 Use, reproduction and disclosure by the US Government is
 subject to restrictions as set forth in subparagraphs (a)
 and (c) of the Commercial Computer Software - Restricted
 Rights clause in FAR 52.227-19.
  
 Gaussian, Inc.
 340 Quinnipiac St., Bldg. 40, Wallingford CT 06492
  
  
 ---------------------------------------------------------------
 Warning -- This program may not be used in any manner that
 competes with the business of Gaussian, Inc. or will provide
 assistance to any competitor of Gaussian, Inc.  The licensee
 of this program is prohibited from giving any competitor of
 Gaussian, Inc. access to this program.  By using this program,
 the user acknowledges that Gaussian, Inc. is engaged in the
 business of creating and licensing software in the field of
 computational chemistry and represents and warrants to the
 licensee that it is not a competitor of Gaussian, Inc. and that
 it will not use this program in any manner prohibited above.
 ---------------------------------------------------------------
  

 Cite this work as:
 Gaussian 16, Revision A.03,
 M. J. Frisch, G. W. Trucks, H. B. Schlegel, G. E. Scuseria, 
 M. A. Robb, J. R. Cheeseman, G. Scalmani, V. Barone, 
 G. A. Petersson, H. Nakatsuji, X. Li, M. Caricato, A. V. Marenich, 
 J. Bloino, B. G. Janesko, R. Gomperts, B. Mennucci, H. P. Hratchian, 
 J. V. Ortiz, A. F. Izmaylov, J. L. Sonnenberg, D. Williams-Young, 
 F. Ding, F. Lipparini, F. Egidi, J. Goings, B. Peng, A. Petrone, 
 T. Henderson, D. Ranasinghe, V. G. Zakrzewski, J. Gao, N. Rega, 
 G. Zheng, W. Liang, M. Hada, M. Ehara, K. Toyota, R. Fukuda, 
 J. Hasegawa, M. Ishida, T. Nakajima, Y. Honda, O. Kitao, H. Nakai, 
 T. Vreven, K. Throssell, J. A. Montgomery, Jr., J. E. Peralta, 
 F. Ogliaro, M. J. Bearpark, J. J. Heyd, E. N. Brothers, K. N. Kudin, 
 V. N. Staroverov, T. A. Keith, R. Kobayashi, J. Normand, 
 K. Raghavachari, A. P. Rendell, J. C. Burant, S. S. Iyengar, 
 J. Tomasi, M. Cossi, J. M. Millam, M. Klene, C. Adamo, R. Cammi, 
 J. W. Ochterski, R. L. Martin, K. Morokuma, O. Farkas, 
 J. B. Foresman, and D. J. Fox, Gaussian, Inc., Wallingford CT, 2016.
 
 ******************************************
 Gaussian 16:  ES64L-G16RevA.03 25-Dec-2016
                11-Feb-2020 
 ******************************************
 %chk=checkpoint.chk
 %mem=3GB
 %nprocshared=4
 Will use up to    4 processors via shared memory.
 -------------------------------------------------------------------
 #t pop=none jul-cc-pvdz guess=read ub3lyp empiricaldispersion=gd3bj
 -------------------------------------------------------------------
 ------------------------------
 theory_abbreviation b3lyp_d3bj
 ------------------------------
 Symbolic Z-matrix:
 Charge =  0 Multiplicity = 6
 O                    -0.35583  -0.12147  -0.46005 
 C                    -1.25651  -1.11646  -0.31025 
 C                    -2.53048  -0.468     0.6098 
 C                    -2.76318   0.77455  -0.05778 
 C                    -3.71835   0.86607  -1.19039 
 Fe                    1.44217   0.16861  -0.07285 
 Cl                    1.66648   2.26307  -0.75831 
 C                    -2.0063    1.97191   0.27713 
 Cl                    2.607    -1.35635  -1.1483 
 Cl                    1.65602   0.02315   2.13298 
 H                    -3.34761  -1.17279   0.4346 
 H                    -2.38755   2.88391  -0.1846 
 H                    -1.82091   2.09861   1.34581 
 H                    -1.00284   1.74286  -0.15664 
 H                    -4.5354    1.53314  -0.87507 
 H                    -3.24942   1.35715  -2.0529 
 H                    -4.14407  -0.09318  -1.4839 
 C                    -2.13475  -0.37486   2.08708 
 H                    -2.8419    0.26076   2.6302 
 H                    -2.16138  -1.3646    2.54545 
 H                    -1.12774   0.0291    2.21408 
 C                    -0.72976  -2.31642   0.49162 
 H                    -1.51714  -3.05068   0.68859 
 H                     0.04476  -2.78881  -0.12191 
 H                    -0.26678  -2.00929   1.42907 
 C                    -1.77354  -1.58789  -1.67588 
 H                    -0.95137  -2.11667  -2.16711 
 H                    -2.62253  -2.27423  -1.58797 
 H                    -2.04225  -0.7486   -2.3194 
 
                    Distance matrix (angstroms):
                    1          2          3          4          5
     1  O    0.000000
     2  C    1.350432   0.000000
     3  C    2.448218   1.699999   0.000000
     4  C    2.600001   2.430990   1.429594   0.000000
     5  C    3.579824   3.281117   2.536031   1.484426   0.000000
     6  Fe   1.861957   2.998438   4.080841   4.248811   5.326003
     7  Cl   3.140817   4.490640   5.190854   4.725291   5.579849
     8  C    2.765806   3.231902   2.517654   1.455579   2.511494
     9  Cl   3.282832   3.960627   5.502162   5.879525   6.704547
    10  Cl   3.285152   3.968730   4.481968   4.989322   6.374878
    11  H    3.294911   2.220515   1.093222   2.091919   2.633434
    12  H    3.638136   4.159083   3.447720   2.146295   2.618077
    13  H    3.215019   3.660295   2.762735   2.147349   3.398789
    14  H    1.996598   2.874655   2.794458   2.011514   3.035023
    15  H    4.514281   4.253295   3.198295   2.093840   1.100899
    16  H    3.618889   3.623164   3.307272   2.134563   1.097717
    17  H    3.924259   3.280636   2.669785   2.166475   1.089743
    18  C    3.117147   2.658650   1.532193   2.513261   3.845709
    19  H    3.984506   3.613368   2.170272   2.737776   3.966292
    20  H    3.720004   3.005888   2.164915   3.422707   4.621311
    21  H    2.787381   2.775088   2.188268   2.896851   4.359154
    22  C    2.421428   1.536345   2.583256   3.740416   4.678572
    23  H    3.353843   2.192440   2.775480   4.091702   4.869987
    24  H    2.718364   2.127326   3.543081   4.537196   5.353573
    25  H    2.672187   2.191331   2.858522   4.023996   5.200252
    26  C    2.374564   1.534453   2.655461   3.029646   3.168576
    27  H    2.692494   2.131071   3.594848   4.011366   4.184122
    28  H    3.323324   2.199776   2.846247   3.414130   3.349679
    29  H    2.587370   2.188475   2.982843   2.820401   2.586724
                    6          7          8          9         10
     6  Fe   0.000000
     7  Cl   2.215157   0.000000
     8  C    3.907211   3.827036   0.000000
     9  Cl   2.199752   3.759903   5.864438   0.000000
    10  Cl   2.220937   3.657442   4.544709   3.684307   0.000000
    11  H    4.999891   6.194298   3.422434   6.164144   5.417662
    12  H    4.695965   4.141227   1.091001   6.622237   5.468593
    13  H    4.047863   4.076302   1.092022   6.145218   4.125068
    14  H    2.909189   2.785307   1.116928   4.859986   3.907592
    15  H    6.183593   6.245778   2.813614   7.709581   7.047129
    16  H    5.229175   5.163600   2.711512   6.517598   6.585169
    17  H    5.767640   6.311964   3.454832   6.876420   6.836395
    18  C    4.213669   5.431780   2.966435   5.823669   3.811877
    19  H    5.066385   5.984708   3.027080   6.825144   4.531550
    20  H    4.710823   6.223131   4.037527   6.031692   4.082710
    21  H    3.442958   4.651169   2.880655   5.212802   2.784940
    22  C    3.348328   5.317521   4.479429   3.839928   3.722839
    23  H    4.438594   6.361198   5.063093   4.822179   4.647959
    24  H    3.271311   5.343821   5.199082   3.109737   3.948128
    25  H    3.149529   5.174475   4.494760   3.915063   2.885035
    26  C    3.999480   5.244581   4.067011   4.418273   5.372591
    27  H    3.916304   5.293389   4.878893   3.778629   5.465158
    28  H    4.978436   6.298494   4.678459   5.327643   6.117946
    29  H    4.246109   5.026117   3.760906   4.832841   5.839213
                   11         12         13         14         15
    11  H    0.000000
    12  H    4.214490   0.000000
    13  H    3.723337   1.811053   0.000000
    14  H    3.787944   1.794486   1.747323   0.000000
    15  H    3.232356   2.629559   3.552540   3.610963   0.000000
    16  H    3.549354   2.562101   3.760539   2.965078   1.752707
    17  H    2.341056   3.692776   4.267120   3.872977   1.780091
    18  C    2.199641   3.980448   2.601163   3.286364   4.263554
    19  H    2.670486   3.874326   2.463693   3.653108   4.095584
    20  H    2.428915   5.055107   3.680884   4.277825   5.072750
    21  H    3.088522   3.935824   2.348887   2.927948   4.839128
    22  C    2.857321   5.499902   4.627390   4.119775   5.582992
    23  H    2.634692   6.061299   5.199941   4.894576   5.706688
    24  H    3.798607   6.172498   5.433396   4.651308   6.342264
    25  H    3.343691   5.571805   4.392854   4.139434   6.006581
    26  C    2.665357   4.753727   4.766885   3.741120   4.243813
    27  H    3.660842   5.567650   5.555654   4.352079   5.275957
    28  H    2.414472   5.350797   5.326480   4.561695   4.320108
    29  H    3.077083   4.227499   4.646441   3.459087   3.675354
                   16         17         18         19         20
    16  H    0.000000
    17  H    1.796558   0.000000
    18  C    4.624043   4.107139   0.000000
    19  H    4.826964   4.329753   1.095018   0.000000
    20  H    5.453127   4.667250   1.091054   1.764111   0.000000
    21  H    4.946961   4.773709   1.092423   1.779095   1.766531
    22  C    5.130148   4.528021   2.879080   3.959356   2.678377
    23  H    5.472253   4.513011   3.081749   4.060844   2.589560
    24  H    5.636431   5.164080   3.931540   5.020636   3.743026
    25  H    5.687992   5.214430   2.567814   3.636914   2.291611
    26  C    3.315667   2.808985   3.970110   4.806377   4.244989
    27  H    4.166719   3.841173   4.746825   5.678067   4.923203
    28  H    3.714311   2.661370   4.165508   4.926178   4.257370
    29  H    2.441823   2.354844   4.423267   5.114375   4.905144
                   21         22         23         24         25
    21  H    0.000000
    22  C    2.937125   0.000000
    23  H    3.458868   1.094482   0.000000
    24  H    3.843462   1.095198   1.779050   0.000000
    25  H    2.347883   1.089717   1.787787   1.763582   0.000000
    26  C    4.261873   2.513627   2.792173   2.676429   3.476874
    27  H    4.881623   2.675416   3.057364   2.372103   3.662329
    28  H    4.689914   2.812300   2.647163   3.086835   3.836958
    29  H    4.689737   3.475994   3.824045   3.653357   4.335051
                   26         27         28         29
    26  C    0.000000
    27  H    1.094021   0.000000
    28  H    1.095245   1.775671   0.000000
    29  H    1.091204   1.756367   1.788649   0.000000
 Framework group  C1[X(C8H16Cl3FeO)]
 Deg. of freedom    81
                         Standard orientation:                         
 ---------------------------------------------------------------------
 Center     Atomic      Atomic             Coordinates (Angstroms)
 Number     Number       Type             X           Y           Z
 ---------------------------------------------------------------------
      1          8           0       -0.355831   -0.121468   -0.460051
      2          6           0       -1.256507   -1.116459   -0.310245
      3          6           0       -2.530481   -0.467999    0.609802
      4          6           0       -2.763183    0.774547   -0.057782
      5          6           0       -3.718348    0.866067   -1.190391
      6         26           0        1.442172    0.168612   -0.072852
      7         17           0        1.666482    2.263071   -0.758307
      8          6           0       -2.006297    1.971907    0.277125
      9         17           0        2.607001   -1.356349   -1.148295
     10         17           0        1.656016    0.023147    2.132975
     11          1           0       -3.347613   -1.172792    0.434597
     12          1           0       -2.387550    2.883907   -0.184596
     13          1           0       -1.820907    2.098614    1.345810
     14          1           0       -1.002845    1.742859   -0.156638
     15          1           0       -4.535397    1.533138   -0.875073
     16          1           0       -3.249421    1.357154   -2.052901
     17          1           0       -4.144067   -0.093180   -1.483903
     18          6           0       -2.134748   -0.374861    2.087075
     19          1           0       -2.841900    0.260762    2.630200
     20          1           0       -2.161384   -1.364600    2.545449
     21          1           0       -1.127736    0.029100    2.214082
     22          6           0       -0.729761   -2.316418    0.491623
     23          1           0       -1.517137   -3.050675    0.688592
     24          1           0        0.044763   -2.788805   -0.121909
     25          1           0       -0.266775   -2.009294    1.429067
     26          6           0       -1.773544   -1.587891   -1.675884
     27          1           0       -0.951366   -2.116669   -2.167106
     28          1           0       -2.622527   -2.274229   -1.587966
     29          1           0       -2.042246   -0.748601   -2.319403
 ---------------------------------------------------------------------
 Rotational constants (GHZ):           0.5868042           0.3312776           0.3123340
   427 basis functions,  1056 primitive gaussians,   461 cartesian basis functions
    77 alpha electrons       72 beta electrons
       nuclear repulsion energy      1646.9554887808 Hartrees.
 NAtoms=   29 NActive=   29 NUniq=   29 SFac= 1.00D+00 NAtFMM=   60 NAOKFM=F Big=F
 Nuclear repulsion after empirical dispersion term =     1646.8872645789 Hartrees.
 Initial guess from the checkpoint file:  "checkpoint.chk"
 B after Tr=     0.000000    0.000000    0.000000
         Rot=    1.000000    0.000000    0.000000    0.000000 Ang=   0.00 deg.
 Initial guess <Sx>= 0.0000 <Sy>= 0.0000 <Sz>= 2.5000 <S**2>= 8.7617 S= 2.5019
 SCF Done:  E(UB3LYP) =  -3034.38747236     A.U. after    1 cycles
            NFock=  1  Conv=0.18D-08     -V/T= 2.0024
 <Sx>= 0.0000 <Sy>= 0.0000 <Sz>= 2.5000 <S**2>= 8.7617 S= 2.5019
 <L.S>= 0.000000000000E+00
 Annihilation of the first spin contaminant:
 S**2 before annihilation     8.7617,   after     8.7500
 1\1\GINC-HOLY7C04508\SP\UB3LYP\Jul-CC-pVDZ\C8H16Cl3Fe1O1(6)\EKWAN\11-F
 eb-2020\0\\#t pop=none jul-cc-pvdz guess=read ub3lyp empiricaldispersi
 on=gd3bj\\theory_abbreviation b3lyp_d3bj\\0,6\O,0,-0.355831,-0.121468,
 -0.460051\C,0,-1.256507,-1.116459,-0.310245\C,0,-2.530481,-0.467999,0.
 609802\C,0,-2.763183,0.774547,-0.057782\C,0,-3.718348,0.866067,-1.1903
 91\Fe,0,1.442172,0.168612,-0.072852\Cl,0,1.666482,2.263071,-0.758307\C
 ,0,-2.006297,1.971907,0.277125\Cl,0,2.607001,-1.356349,-1.148295\Cl,0,
 1.656016,0.023147,2.132975\H,0,-3.347613,-1.172792,0.434597\H,0,-2.387
 55,2.883907,-0.184596\H,0,-1.820907,2.098614,1.34581\H,0,-1.002845,1.7
 42859,-0.156638\H,0,-4.535397,1.533138,-0.875073\H,0,-3.249421,1.35715
 4,-2.052901\H,0,-4.144067,-0.09318,-1.483903\C,0,-2.134748,-0.374861,2
 .087075\H,0,-2.8419,0.260762,2.6302\H,0,-2.161384,-1.3646,2.545449\H,0
 ,-1.127736,0.0291,2.214082\C,0,-0.729761,-2.316418,0.491623\H,0,-1.517
 137,-3.050675,0.688592\H,0,0.044763,-2.788805,-0.121909\H,0,-0.266775,
 -2.009294,1.429067\C,0,-1.773544,-1.587891,-1.675884\H,0,-0.951366,-2.
 116669,-2.167106\H,0,-2.622527,-2.274229,-1.587966\H,0,-2.042246,-0.74
 8601,-2.319403\\Version=ES64L-G16RevA.03\HF=-3034.3874724\S2=8.761669\
 S2-1=0.\S2A=8.750043\RMSD=1.779e-09\PG=C01 [X(C8H16Cl3Fe1O1)]\\@


 The cat could very well be man's best friend
 but would never stoop to admitting it.
                               -- Doug Larson
 Job cpu time:       0 days  0 hours  4 minutes 36.6 seconds.
 Elapsed time:       0 days  0 hours  1 minutes 10.6 seconds.
 File lengths (MBytes):  RWF=    170 Int=      0 D2E=      0 Chk=     13 Scr=      1
 Normal termination of Gaussian 16 at Tue Feb 11 14:15:01 2020.
 Initial command:
 /n/sw/g16_nehalem/g16/l1.exe "/scratch/Gau-92879.inp" -scrdir="/scratch/"
 Entering Link 1 = /n/sw/g16_nehalem/g16/l1.exe PID=     96584.
  
 Copyright (c) 1988,1990,1992,1993,1995,1998,2003,2009,2016,
            Gaussian, Inc.  All Rights Reserved.
  
 This is part of the Gaussian(R) 16 program.  It is based on
 the Gaussian(R) 09 system (copyright 2009, Gaussian, Inc.),
 the Gaussian(R) 03 system (copyright 2003, Gaussian, Inc.),
 the Gaussian(R) 98 system (copyright 1998, Gaussian, Inc.),
 the Gaussian(R) 94 system (copyright 1995, Gaussian, Inc.),
 the Gaussian 92(TM) system (copyright 1992, Gaussian, Inc.),
 the Gaussian 90(TM) system (copyright 1990, Gaussian, Inc.),
 the Gaussian 88(TM) system (copyright 1988, Gaussian, Inc.),
 the Gaussian 86(TM) system (copyright 1986, Carnegie Mellon
 University), and the Gaussian 82(TM) system (copyright 1983,
 Carnegie Mellon University). Gaussian is a federally registered
 trademark of Gaussian, Inc.
  
 This software contains proprietary and confidential information,
 including trade secrets, belonging to Gaussian, Inc.
  
 This software is provided under written license and may be
 used, copied, transmitted, or stored only in accord with that
 written license.
  
 The following legend is applicable only to US Government
 contracts under FAR:
  
                    RESTRICTED RIGHTS LEGEND
  
 Use, reproduction and disclosure by the US Government is
 subject to restrictions as set forth in subparagraphs (a)
 and (c) of the Commercial Computer Software - Restricted
 Rights clause in FAR 52.227-19.
  
 Gaussian, Inc.
 340 Quinnipiac St., Bldg. 40, Wallingford CT 06492
  
  
 ---------------------------------------------------------------
 Warning -- This program may not be used in any manner that
 competes with the business of Gaussian, Inc. or will provide
 assistance to any competitor of Gaussian, Inc.  The licensee
 of this program is prohibited from giving any competitor of
 Gaussian, Inc. access to this program.  By using this program,
 the user acknowledges that Gaussian, Inc. is engaged in the
 business of creating and licensing software in the field of
 computational chemistry and represents and warrants to the
 licensee that it is not a competitor of Gaussian, Inc. and that
 it will not use this program in any manner prohibited above.
 ---------------------------------------------------------------
  

 Cite this work as:
 Gaussian 16, Revision A.03,
 M. J. Frisch, G. W. Trucks, H. B. Schlegel, G. E. Scuseria, 
 M. A. Robb, J. R. Cheeseman, G. Scalmani, V. Barone, 
 G. A. Petersson, H. Nakatsuji, X. Li, M. Caricato, A. V. Marenich, 
 J. Bloino, B. G. Janesko, R. Gomperts, B. Mennucci, H. P. Hratchian, 
 J. V. Ortiz, A. F. Izmaylov, J. L. Sonnenberg, D. Williams-Young, 
 F. Ding, F. Lipparini, F. Egidi, J. Goings, B. Peng, A. Petrone, 
 T. Henderson, D. Ranasinghe, V. G. Zakrzewski, J. Gao, N. Rega, 
 G. Zheng, W. Liang, M. Hada, M. Ehara, K. Toyota, R. Fukuda, 
 J. Hasegawa, M. Ishida, T. Nakajima, Y. Honda, O. Kitao, H. Nakai, 
 T. Vreven, K. Throssell, J. A. Montgomery, Jr., J. E. Peralta, 
 F. Ogliaro, M. J. Bearpark, J. J. Heyd, E. N. Brothers, K. N. Kudin, 
 V. N. Staroverov, T. A. Keith, R. Kobayashi, J. Normand, 
 K. Raghavachari, A. P. Rendell, J. C. Burant, S. S. Iyengar, 
 J. Tomasi, M. Cossi, J. M. Millam, M. Klene, C. Adamo, R. Cammi, 
 J. W. Ochterski, R. L. Martin, K. Morokuma, O. Farkas, 
 J. B. Foresman, and D. J. Fox, Gaussian, Inc., Wallingford CT, 2016.
 
 ******************************************
 Gaussian 16:  ES64L-G16RevA.03 25-Dec-2016
                11-Feb-2020 
 ******************************************
 %chk=checkpoint.chk
 %mem=3GB
 %nprocshared=4
 Will use up to    4 processors via shared memory.
 ----------------------------------------
 #t pop=none jul-cc-pvdz guess=read ub97d
 ----------------------------------------
 ------------------------
 theory_abbreviation b97d
 ------------------------
 Symbolic Z-matrix:
 Charge =  0 Multiplicity = 6
 O                    -0.35583  -0.12147  -0.46005 
 C                    -1.25651  -1.11646  -0.31025 
 C                    -2.53048  -0.468     0.6098 
 C                    -2.76318   0.77455  -0.05778 
 C                    -3.71835   0.86607  -1.19039 
 Fe                    1.44217   0.16861  -0.07285 
 Cl                    1.66648   2.26307  -0.75831 
 C                    -2.0063    1.97191   0.27713 
 Cl                    2.607    -1.35635  -1.1483 
 Cl                    1.65602   0.02315   2.13298 
 H                    -3.34761  -1.17279   0.4346 
 H                    -2.38755   2.88391  -0.1846 
 H                    -1.82091   2.09861   1.34581 
 H                    -1.00284   1.74286  -0.15664 
 H                    -4.5354    1.53314  -0.87507 
 H                    -3.24942   1.35715  -2.0529 
 H                    -4.14407  -0.09318  -1.4839 
 C                    -2.13475  -0.37486   2.08708 
 H                    -2.8419    0.26076   2.6302 
 H                    -2.16138  -1.3646    2.54545 
 H                    -1.12774   0.0291    2.21408 
 C                    -0.72976  -2.31642   0.49162 
 H                    -1.51714  -3.05068   0.68859 
 H                     0.04476  -2.78881  -0.12191 
 H                    -0.26678  -2.00929   1.42907 
 C                    -1.77354  -1.58789  -1.67588 
 H                    -0.95137  -2.11667  -2.16711 
 H                    -2.62253  -2.27423  -1.58797 
 H                    -2.04225  -0.7486   -2.3194 
 
                    Distance matrix (angstroms):
                    1          2          3          4          5
     1  O    0.000000
     2  C    1.350432   0.000000
     3  C    2.448218   1.699999   0.000000
     4  C    2.600001   2.430990   1.429594   0.000000
     5  C    3.579824   3.281117   2.536031   1.484426   0.000000
     6  Fe   1.861957   2.998438   4.080841   4.248811   5.326003
     7  Cl   3.140817   4.490640   5.190854   4.725291   5.579849
     8  C    2.765806   3.231902   2.517654   1.455579   2.511494
     9  Cl   3.282832   3.960627   5.502162   5.879525   6.704547
    10  Cl   3.285152   3.968730   4.481968   4.989322   6.374878
    11  H    3.294911   2.220515   1.093222   2.091919   2.633434
    12  H    3.638136   4.159083   3.447720   2.146295   2.618077
    13  H    3.215019   3.660295   2.762735   2.147349   3.398789
    14  H    1.996598   2.874655   2.794458   2.011514   3.035023
    15  H    4.514281   4.253295   3.198295   2.093840   1.100899
    16  H    3.618889   3.623164   3.307272   2.134563   1.097717
    17  H    3.924259   3.280636   2.669785   2.166475   1.089743
    18  C    3.117147   2.658650   1.532193   2.513261   3.845709
    19  H    3.984506   3.613368   2.170272   2.737776   3.966292
    20  H    3.720004   3.005888   2.164915   3.422707   4.621311
    21  H    2.787381   2.775088   2.188268   2.896851   4.359154
    22  C    2.421428   1.536345   2.583256   3.740416   4.678572
    23  H    3.353843   2.192440   2.775480   4.091702   4.869987
    24  H    2.718364   2.127326   3.543081   4.537196   5.353573
    25  H    2.672187   2.191331   2.858522   4.023996   5.200252
    26  C    2.374564   1.534453   2.655461   3.029646   3.168576
    27  H    2.692494   2.131071   3.594848   4.011366   4.184122
    28  H    3.323324   2.199776   2.846247   3.414130   3.349679
    29  H    2.587370   2.188475   2.982843   2.820401   2.586724
                    6          7          8          9         10
     6  Fe   0.000000
     7  Cl   2.215157   0.000000
     8  C    3.907211   3.827036   0.000000
     9  Cl   2.199752   3.759903   5.864438   0.000000
    10  Cl   2.220937   3.657442   4.544709   3.684307   0.000000
    11  H    4.999891   6.194298   3.422434   6.164144   5.417662
    12  H    4.695965   4.141227   1.091001   6.622237   5.468593
    13  H    4.047863   4.076302   1.092022   6.145218   4.125068
    14  H    2.909189   2.785307   1.116928   4.859986   3.907592
    15  H    6.183593   6.245778   2.813614   7.709581   7.047129
    16  H    5.229175   5.163600   2.711512   6.517598   6.585169
    17  H    5.767640   6.311964   3.454832   6.876420   6.836395
    18  C    4.213669   5.431780   2.966435   5.823669   3.811877
    19  H    5.066385   5.984708   3.027080   6.825144   4.531550
    20  H    4.710823   6.223131   4.037527   6.031692   4.082710
    21  H    3.442958   4.651169   2.880655   5.212802   2.784940
    22  C    3.348328   5.317521   4.479429   3.839928   3.722839
    23  H    4.438594   6.361198   5.063093   4.822179   4.647959
    24  H    3.271311   5.343821   5.199082   3.109737   3.948128
    25  H    3.149529   5.174475   4.494760   3.915063   2.885035
    26  C    3.999480   5.244581   4.067011   4.418273   5.372591
    27  H    3.916304   5.293389   4.878893   3.778629   5.465158
    28  H    4.978436   6.298494   4.678459   5.327643   6.117946
    29  H    4.246109   5.026117   3.760906   4.832841   5.839213
                   11         12         13         14         15
    11  H    0.000000
    12  H    4.214490   0.000000
    13  H    3.723337   1.811053   0.000000
    14  H    3.787944   1.794486   1.747323   0.000000
    15  H    3.232356   2.629559   3.552540   3.610963   0.000000
    16  H    3.549354   2.562101   3.760539   2.965078   1.752707
    17  H    2.341056   3.692776   4.267120   3.872977   1.780091
    18  C    2.199641   3.980448   2.601163   3.286364   4.263554
    19  H    2.670486   3.874326   2.463693   3.653108   4.095584
    20  H    2.428915   5.055107   3.680884   4.277825   5.072750
    21  H    3.088522   3.935824   2.348887   2.927948   4.839128
    22  C    2.857321   5.499902   4.627390   4.119775   5.582992
    23  H    2.634692   6.061299   5.199941   4.894576   5.706688
    24  H    3.798607   6.172498   5.433396   4.651308   6.342264
    25  H    3.343691   5.571805   4.392854   4.139434   6.006581
    26  C    2.665357   4.753727   4.766885   3.741120   4.243813
    27  H    3.660842   5.567650   5.555654   4.352079   5.275957
    28  H    2.414472   5.350797   5.326480   4.561695   4.320108
    29  H    3.077083   4.227499   4.646441   3.459087   3.675354
                   16         17         18         19         20
    16  H    0.000000
    17  H    1.796558   0.000000
    18  C    4.624043   4.107139   0.000000
    19  H    4.826964   4.329753   1.095018   0.000000
    20  H    5.453127   4.667250   1.091054   1.764111   0.000000
[...]
 ---------------------------------------------------------------------
 Rotational constants (GHZ):           0.5868042           0.3312776           0.3123340
   427 basis functions,  1056 primitive gaussians,   461 cartesian basis functions
    77 alpha electrons       72 beta electrons
       nuclear repulsion energy      1646.9554887808 Hartrees.
 NAtoms=   29 NActive=   29 NUniq=   29 SFac= 1.00D+00 NAtFMM=   60 NAOKFM=F Big=F
 Nuclear repulsion after empirical dispersion term =     1646.9530723805 Hartrees.
 Initial guess from the checkpoint file:  "checkpoint.chk"
 B after Tr=     0.000000    0.000000    0.000000
         Rot=    1.000000    0.000000    0.000000    0.000000 Ang=   0.00 deg.
 Initial guess <Sx>= 0.0000 <Sy>= 0.0000 <Sz>= 2.5000 <S**2>= 8.7614 S= 2.5019
 SCF Done:  E(UM06L) =  -3034.18614572     A.U. after   17 cycles
            NFock= 17  Conv=0.65D-08     -V/T= 2.0020
 <Sx>= 0.0000 <Sy>= 0.0000 <Sz>= 2.5000 <S**2>= 8.7621 S= 2.5020
 <L.S>= 0.000000000000E+00
 Annihilation of the first spin contaminant:
 S**2 before annihilation     8.7621,   after     8.7500
 1\1\GINC-HOLY7C04508\SP\UM06L\Jul-CC-pVDZ\C8H16Cl3Fe1O1(6)\EKWAN\11-Fe
 b-2020\0\\#t pop=none jul-cc-pvdz guess=read um06l empiricaldispersion
 =gd3\\theory_abbreviation m06l_d3\\0,6\O,0,-0.355831,-0.121468,-0.4600
 51\C,0,-1.256507,-1.116459,-0.310245\C,0,-2.530481,-0.467999,0.609802\
 C,0,-2.763183,0.774547,-0.057782\C,0,-3.718348,0.866067,-1.190391\Fe,0
 ,1.442172,0.168612,-0.072852\Cl,0,1.666482,2.263071,-0.758307\C,0,-2.0
 06297,1.971907,0.277125\Cl,0,2.607001,-1.356349,-1.148295\Cl,0,1.65601
 6,0.023147,2.132975\H,0,-3.347613,-1.172792,0.434597\H,0,-2.38755,2.88
 3907,-0.184596\H,0,-1.820907,2.098614,1.34581\H,0,-1.002845,1.742859,-
 0.156638\H,0,-4.535397,1.533138,-0.875073\H,0,-3.249421,1.357154,-2.05
 2901\H,0,-4.144067,-0.09318,-1.483903\C,0,-2.134748,-0.374861,2.087075
 \H,0,-2.8419,0.260762,2.6302\H,0,-2.161384,-1.3646,2.545449\H,0,-1.127
 736,0.0291,2.214082\C,0,-0.729761,-2.316418,0.491623\H,0,-1.517137,-3.
 050675,0.688592\H,0,0.044763,-2.788805,-0.121909\H,0,-0.266775,-2.0092
 94,1.429067\C,0,-1.773544,-1.587891,-1.675884\H,0,-0.951366,-2.116669,
 -2.167106\H,0,-2.622527,-2.274229,-1.587966\H,0,-2.042246,-0.748601,-2
 .319403\\Version=ES64L-G16RevA.03\HF=-3034.1861457\S2=8.762057\S2-1=0.
 \S2A=8.750047\RMSD=6.458e-09\PG=C01 [X(C8H16Cl3Fe1O1)]\\@


 Make no judgements where you have no compassion.
                               -- Anne McCaffrey
 Job cpu time:       0 days  1 hours 14 minutes 36.5 seconds.
 Elapsed time:       0 days  0 hours 18 minutes 42.2 seconds.
 File lengths (MBytes):  RWF=    174 Int=      0 D2E=      0 Chk=     13 Scr=      1
 Normal termination of Gaussian 16 at Tue Feb 11 23:30:14 2020.
 Initial command:
 /n/sw/g16_nehalem/g16/l1.exe "/scratch/Gau-92879.inp" -scrdir="/scratch/"
 Entering Link 1 = /n/sw/g16_nehalem/g16/l1.exe PID=    150590.
  
 Copyright (c) 1988,1990,1992,1993,1995,1998,2003,2009,2016,
            Gaussian, Inc.  All Rights Reserved.
  
 This is part of the Gaussian(R) 16 program.  It is based on
 the Gaussian(R) 09 system (copyright 2009, Gaussian, Inc.),
 the Gaussian(R) 03 system (copyright 2003, Gaussian, Inc.),
 the Gaussian(R) 98 system (copyright 1998, Gaussian, Inc.),
 the Gaussian(R) 94 system (copyright 1995, Gaussian, Inc.),
 the Gaussian 92(TM) system (copyright 1992, Gaussian, Inc.),
 the Gaussian 90(TM) system (copyright 1990, Gaussian, Inc.),
 the Gaussian 88(TM) system (copyright 1988, Gaussian, Inc.),
 the Gaussian 86(TM) system (copyright 1986, Carnegie Mellon
 University), and the Gaussian 82(TM) system (copyright 1983,
 Carnegie Mellon University). Gaussian is a federally registered
 trademark of Gaussian, Inc.
  
 This software contains proprietary and confidential information,
 including trade secrets, belonging to Gaussian, Inc.
  
 This software is provided under written license and may be
 used, copied, transmitted, or stored only in accord with that
 written license.
  
 The following legend is applicable only to US Government
 contracts under FAR:
  
                    RESTRICTED RIGHTS LEGEND
  
 Use, reproduction and disclosure by the US Government is
 subject to restrictions as set forth in subparagraphs (a)
 and (c) of the Commercial Computer Software - Restricted
 Rights clause in FAR 52.227-19.
  
 Gaussian, Inc.
 340 Quinnipiac St., Bldg. 40, Wallingford CT 06492
  
  
 ---------------------------------------------------------------
 Warning -- This program may not be used in any manner that
 competes with the business of Gaussian, Inc. or will provide
 assistance to any competitor of Gaussian, Inc.  The licensee
 of this program is prohibited from giving any competitor of
 Gaussian, Inc. access to this program.  By using this program,
 the user acknowledges that Gaussian, Inc. is engaged in the
 business of creating and licensing software in the field of
 computational chemistry and represents and warrants to the
 licensee that it is not a competitor of Gaussian, Inc. and that
 it will not use this program in any manner prohibited above.
 ---------------------------------------------------------------
  

 Cite this work as:
 Gaussian 16, Revision A.03,
 M. J. Frisch, G. W. Trucks, H. B. Schlegel, G. E. Scuseria, 
 M. A. Robb, J. R. Cheeseman, G. Scalmani, V. Barone, 
 G. A. Petersson, H. Nakatsuji, X. Li, M. Caricato, A. V. Marenich, 
 J. Bloino, B. G. Janesko, R. Gomperts, B. Mennucci, H. P. Hratchian, 
 J. V. Ortiz, A. F. Izmaylov, J. L. Sonnenberg, D. Williams-Young, 
 F. Ding, F. Lipparini, F. Egidi, J. Goings, B. Peng, A. Petrone, 
 T. Henderson, D. Ranasinghe, V. G. Zakrzewski, J. Gao, N. Rega, 
 G. Zheng, W. Liang, M. Hada, M. Ehara, K. Toyota, R. Fukuda, 
 J. Hasegawa, M. Ishida, T. Nakajima, Y. Honda, O. Kitao, H. Nakai, 
 T. Vreven, K. Throssell, J. A. Montgomery, Jr., J. E. Peralta, 
 F. Ogliaro, M. J. Bearpark, J. J. Heyd, E. N. Brothers, K. N. Kudin, 
 V. N. Staroverov, T. A. Keith, R. Kobayashi, J. Normand, 
 K. Raghavachari, A. P. Rendell, J. C. Burant, S. S. Iyengar, 
 J. Tomasi, M. Cossi, J. M. Millam, M. Klene, C. Adamo, R. Cammi, 
 J. W. Ochterski, R. L. Martin, K. Morokuma, O. Farkas, 
 J. B. Foresman, and D. J. Fox, Gaussian, Inc., Wallingford CT, 2016.
 
 ******************************************
 Gaussian 16:  ES64L-G16RevA.03 25-Dec-2016
                11-Feb-2020 
 ******************************************
 %chk=checkpoint.chk
 %mem=3GB
 %nprocshared=4
 Will use up to    4 processors via shared memory.
 -------------------------------------------------------------------
 #t pop=none jul-cc-pvdz guess=read ub97d3 empiricaldispersion=gd3bj
 -------------------------------------------------------------------
 ------------------------------
 theory_abbreviation b97d3_d3bj
 ------------------------------
 Symbolic Z-matrix:
 Charge =  0 Multiplicity = 6
 O                    -0.35583  -0.12147  -0.46005 
 C                    -1.25651  -1.11646  -0.31025 
 C                    -2.53048  -0.468     0.6098 
 C                    -2.76318   0.77455  -0.05778 
 C                    -3.71835   0.86607  -1.19039 
 Fe                    1.44217   0.16861  -0.07285 
 Cl                    1.66648   2.26307  -0.75831 
 C                    -2.0063    1.97191   0.27713 
 Cl                    2.607    -1.35635  -1.1483 
 Cl                    1.65602   0.02315   2.13298 
 H                    -3.34761  -1.17279   0.4346 
 H                    -2.38755   2.88391  -0.1846 
 H                    -1.82091   2.09861   1.34581 
 H                    -1.00284   1.74286  -0.15664 
 H                    -4.5354    1.53314  -0.87507 
 H                    -3.24942   1.35715  -2.0529 
 H                    -4.14407  -0.09318  -1.4839 
 C                    -2.13475  -0.37486   2.08708 
 H                    -2.8419    0.26076   2.6302 
 H                    -2.16138  -1.3646    2.54545 
 H                    -1.12774   0.0291    2.21408 
 C                    -0.72976  -2.31642   0.49162 
 H                    -1.51714  -3.05068   0.68859 
 H                     0.04476  -2.78881  -0.12191 
 H                    -0.26678  -2.00929   1.42907 
 C                    -1.77354  -1.58789  -1.67588 
 H                    -0.95137  -2.11667  -2.16711 
 H                    -2.62253  -2.27423  -1.58797 
 H                    -2.04225  -0.7486   -2.3194 
 
                    Distance matrix (angstroms):
                    1          2          3          4          5
     1  O    0.000000
     2  C    1.350432   0.000000
     3  C    2.448218   1.699999   0.000000
     4  C    2.600001   2.430990   1.429594   0.000000
     5  C    3.579824   3.281117   2.536031   1.484426   0.000000
     6  Fe   1.861957   2.998438   4.080841   4.248811   5.326003
     7  Cl   3.140817   4.490640   5.190854   4.725291   5.579849
     8  C    2.765806   3.231902   2.517654   1.455579   2.511494
     9  Cl   3.282832   3.960627   5.502162   5.879525   6.704547
    10  Cl   3.285152   3.968730   4.481968   4.989322   6.374878
    11  H    3.294911   2.220515   1.093222   2.091919   2.633434
    12  H    3.638136   4.159083   3.447720   2.146295   2.618077
    13  H    3.215019   3.660295   2.762735   2.147349   3.398789
    14  H    1.996598   2.874655   2.794458   2.011514   3.035023
    15  H    4.514281   4.253295   3.198295   2.093840   1.100899
    16  H    3.618889   3.623164   3.307272   2.134563   1.097717
    17  H    3.924259   3.280636   2.669785   2.166475   1.089743
    18  C    3.117147   2.658650   1.532193   2.513261   3.845709
    19  H    3.984506   3.613368   2.170272   2.737776   3.966292
    20  H    3.720004   3.005888   2.164915   3.422707   4.621311
    21  H    2.787381   2.775088   2.188268   2.896851   4.359154
    22  C    2.421428   1.536345   2.583256   3.740416   4.678572
    23  H    3.353843   2.192440   2.775480   4.091702   4.869987
    24  H    2.718364   2.127326   3.543081   4.537196   5.353573
    25  H    2.672187   2.191331   2.858522   4.023996   5.200252
    26  C    2.374564   1.534453   2.655461   3.029646   3.168576
    27  H    2.692494   2.131071   3.594848   4.011366   4.184122
    28  H    3.323324   2.199776   2.846247   3.414130   3.349679
    29  H    2.587370   2.188475   2.982843   2.820401   2.586724
                    6          7          8          9         10
     6  Fe   0.000000
     7  Cl   2.215157   0.000000
     8  C    3.907211   3.827036   0.000000
     9  Cl   2.199752   3.759903   5.864438   0.000000
    10  Cl   2.220937   3.657442   4.544709   3.684307   0.000000
    11  H    4.999891   6.194298   3.422434   6.164144   5.417662
    12  H    4.695965   4.141227   1.091001   6.622237   5.468593
    13  H    4.047863   4.076302   1.092022   6.145218   4.125068
    14  H    2.909189   2.785307   1.116928   4.859986   3.907592
    15  H    6.183593   6.245778   2.813614   7.709581   7.047129
    16  H    5.229175   5.163600   2.711512   6.517598   6.585169
    17  H    5.767640   6.311964   3.454832   6.876420   6.836395
    18  C    4.213669   5.431780   2.966435   5.823669   3.811877
    19  H    5.066385   5.984708   3.027080   6.825144   4.531550
    20  H    4.710823   6.223131   4.037527   6.031692   4.082710
    21  H    3.442958   4.651169   2.880655   5.212802   2.784940
    22  C    3.348328   5.317521   4.479429   3.839928   3.722839
    23  H    4.438594   6.361198   5.063093   4.822179   4.647959
    24  H    3.271311   5.343821   5.199082   3.109737   3.948128
    25  H    3.149529   5.174475   4.494760   3.915063   2.885035
    26  C    3.999480   5.244581   4.067011   4.418273   5.372591
    27  H    3.916304   5.293389   4.878893   3.778629   5.465158
    28  H    4.978436   6.298494   4.678459   5.327643   6.117946
    29  H    4.246109   5.026117   3.760906   4.832841   5.839213
                   11         12         13         14         15
    11  H    0.000000
    12  H    4.214490   0.000000
    13  H    3.723337   1.811053   0.000000
    14  H    3.787944   1.794486   1.747323   0.000000
    15  H    3.232356   2.629559   3.552540   3.610963   0.000000
    16  H    3.549354   2.562101   3.760539   2.965078   1.752707
    17  H    2.341056   3.692776   4.267120   3.872977   1.780091
    18  C    2.199641   3.980448   2.601163   3.286364   4.263554
    19  H    2.670486   3.874326   2.463693   3.653108   4.095584
    20  H    2.428915   5.055107   3.680884   4.277825   5.072750
    21  H    3.088522   3.935824   2.348887   2.927948   4.839128
    22  C    2.857321   5.499902   4.627390   4.119775   5.582992
    23  H    2.634692   6.061299   5.199941   4.894576   5.706688
    24  H    3.798607   6.172498   5.433396   4.651308   6.342264
    25  H    3.343691   5.571805   4.392854   4.139434   6.006581
    26  C    2.665357   4.753727   4.766885   3.741120   4.243813
    27  H    3.660842   5.567650   5.555654   4.352079   5.275957
    28  H    2.414472   5.350797   5.326480   4.561695   4.320108
    29  H    3.077083   4.227499   4.646441   3.459087   3.675354
                   16         17         18         19         20
    16  H    0.000000
    17  H    1.796558   0.000000
    18  C    4.624043   4.107139   0.000000
    19  H    4.826964   4.329753   1.095018   0.000000
    20  H    5.453127   4.667250   1.091054   1.764111   0.000000
    21  H    4.946961   4.773709   1.092423   1.779095   1.766531
    22  C    5.130148   4.528021   2.879080   3.959356   2.678377
    23  H    5.472253   4.513011   3.081749   4.060844   2.589560
    24  H    5.636431   5.164080   3.931540   5.020636   3.743026
    25  H    5.687992   5.214430   2.567814   3.636914   2.291611
    26  C    3.315667   2.808985   3.970110   4.806377   4.244989
    27  H    4.166719   3.841173   4.746825   5.678067   4.923203
    28  H    3.714311   2.661370   4.165508   4.926178   4.257370
    29  H    2.441823   2.354844   4.423267   5.114375   4.905144
                   21         22         23         24         25
    21  H    0.000000
    22  C    2.937125   0.000000
    23  H    3.458868   1.094482   0.000000
    24  H    3.843462   1.095198   1.779050   0.000000
    25  H    2.347883   1.089717   1.787787   1.763582   0.000000
    26  C    4.261873   2.513627   2.792173   2.676429   3.476874
    27  H    4.881623   2.675416   3.057364   2.372103   3.662329
    28  H    4.689914   2.812300   2.647163   3.086835   3.836958
    29  H    4.689737   3.475994   3.824045   3.653357   4.335051
                   26         27         28         29
    26  C    0.000000
    27  H    1.094021   0.000000
    28  H    1.095245   1.775671   0.000000
    29  H    1.091204   1.756367   1.788649   0.000000
 Framework group  C1[X(C8H16Cl3FeO)]
 Deg. of freedom    81
                         Standard orientation:                         
 ---------------------------------------------------------------------
 Center     Atomic      Atomic             Coordinates (Angstroms)
 Number     Number       Type             X           Y           Z
 ---------------------------------------------------------------------
      1          8           0       -0.355831   -0.121468   -0.460051
      2          6           0       -1.256507   -1.116459   -0.310245
      3          6           0       -2.530481   -0.467999    0.609802
      4          6           0       -2.763183    0.774547   -0.057782
      5          6           0       -3.718348    0.866067   -1.190391
      6         26           0        1.442172    0.168612   -0.072852
      7         17           0        1.666482    2.263071   -0.758307
      8          6           0       -2.006297    1.971907    0.277125
      9         17           0        2.607001   -1.356349   -1.148295
     10         17           0        1.656016    0.023147    2.132975
     11          1           0       -3.347613   -1.172792    0.434597
     12          1           0       -2.387550    2.883907   -0.184596
     13          1           0       -1.820907    2.098614    1.345810
     14          1           0       -1.002845    1.742859   -0.156638
     15          1           0       -4.535397    1.533138   -0.875073
     16          1           0       -3.249421    1.357154   -2.052901
     17          1           0       -4.144067   -0.093180   -1.483903
     18          6           0       -2.134748   -0.374861    2.087075
     19          1           0       -2.841900    0.260762    2.630200
     20          1           0       -2.161384   -1.364600    2.545449
     21          1           0       -1.127736    0.029100    2.214082
     22          6           0       -0.729761   -2.316418    0.491623
     23          1           0       -1.517137   -3.050675    0.688592
     24          1           0        0.044763   -2.788805   -0.121909
     25          1           0       -0.266775   -2.009294    1.429067
     26          6           0       -1.773544   -1.587891   -1.675884
     27          1           0       -0.951366   -2.116669   -2.167106
     28          1           0       -2.622527   -2.274229   -1.587966
     29          1           0       -2.042246   -0.748601   -2.319403
 ---------------------------------------------------------------------
 Rotational constants (GHZ):           0.5868042           0.3312776           0.3123340
   427 basis functions,  1056 primitive gaussians,   461 cartesian basis functions
    77 alpha electrons       72 beta electrons
       nuclear repulsion energy      1646.9554887808 Hartrees.
 NAtoms=   29 NActive=   29 NUniq=   29 SFac= 1.00D+00 NAtFMM=   60 NAOKFM=F Big=F
 Nuclear repulsion after empirical dispersion term =     1646.8545737395 Hartrees.
 Initial guess from the checkpoint file:  "checkpoint.chk"
 B after Tr=     0.000000    0.000000    0.000000
         Rot=    1.000000    0.000000    0.000000    0.000000 Ang=   0.00 deg.
 Initial guess <Sx>= 0.0000 <Sy>= 0.0000 <Sz>= 2.5000 <S**2>= 8.7621 S= 2.5020
 EnCoef did     3 forward-backward iterations
 SCF Done:  E(UB97D3) =  -3034.60557611     A.U. after   16 cycles
            NFock= 16  Conv=0.38D-08     -V/T= 2.0019
 <Sx>= 0.0000 <Sy>= 0.0000 <Sz>= 2.5000 <S**2>= 8.7606 S= 2.5018
 <L.S>= 0.000000000000E+00
 Annihilation of the first spin contaminant:
 S**2 before annihilation     8.7606,   after     8.7500
 1\1\GINC-HOLY7C04508\SP\UB97D3\Jul-CC-pVDZ\C8H16Cl3Fe1O1(6)\EKWAN\11-F
 eb-2020\0\\#t pop=none jul-cc-pvdz guess=read ub97d3 empiricaldispersi
 on=gd3bj\\theory_abbreviation b97d3_d3bj\\0,6\O,0,-0.355831,-0.121468,
 -0.460051\C,0,-1.256507,-1.116459,-0.310245\C,0,-2.530481,-0.467999,0.
 609802\C,0,-2.763183,0.774547,-0.057782\C,0,-3.718348,0.866067,-1.1903
 91\Fe,0,1.442172,0.168612,-0.072852\Cl,0,1.666482,2.263071,-0.758307\C
 ,0,-2.006297,1.971907,0.277125\Cl,0,2.607001,-1.356349,-1.148295\Cl,0,
 1.656016,0.023147,2.132975\H,0,-3.347613,-1.172792,0.434597\H,0,-2.387
 55,2.883907,-0.184596\H,0,-1.820907,2.098614,1.34581\H,0,-1.002845,1.7
 42859,-0.156638\H,0,-4.535397,1.533138,-0.875073\H,0,-3.249421,1.35715
 4,-2.052901\H,0,-4.144067,-0.09318,-1.483903\C,0,-2.134748,-0.374861,2
 .087075\H,0,-2.8419,0.260762,2.6302\H,0,-2.161384,-1.3646,2.545449\H,0
 ,-1.127736,0.0291,2.214082\C,0,-0.729761,-2.316418,0.491623\H,0,-1.517
 137,-3.050675,0.688592\H,0,0.044763,-2.788805,-0.121909\H,0,-0.266775,
 -2.009294,1.429067\C,0,-1.773544,-1.587891,-1.675884\H,0,-0.951366,-2.
 116669,-2.167106\H,0,-2.622527,-2.274229,-1.587966\H,0,-2.042246,-0.74
 8601,-2.319403\\Version=ES64L-G16RevA.03\HF=-3034.6055761\S2=8.760599\
 S2-1=0.\S2A=8.750035\RMSD=3.773e-09\PG=C01 [X(C8H16Cl3Fe1O1)]\\@


 IF THERE IS ONE WAY BETTER THAN ANOTHER IT IS THE WAY OF NATURE.

                          -- ARISTOTLE
 Job cpu time:       0 days  0 hours 50 minutes 47.3 seconds.
 Elapsed time:       0 days  0 hours 12 minutes 44.0 seconds.
 File lengths (MBytes):  RWF=    174 Int=      0 D2E=      0 Chk=     13 Scr=      1
 Normal termination of Gaussian 16 at Tue Feb 11 23:42:58 2020.
