 Entering Gaussian System, Link 0=g16
 Input=simple-grid-165-220-b3lyp_d3bj-631gd-gas-singlepoint-DFT-juldz2-gas.gjf
 Output=simple-grid-165-220-b3lyp_d3bj-631gd-gas-singlepoint-DFT-juldz2-gas.out
 Initial command:
 /n/sw/g16_nehalem/g16/l1.exe "/scratch/Gau-359368.inp" -scrdir="/scratch/"
 Entering Link 1 = /n/sw/g16_nehalem/g16/l1.exe PID=    359379.
  
 Copyright (c) 1988,1990,1992,1993,1995,1998,2003,2009,2016,
            Gaussian, Inc.  All Rights Reserved.
  
 This is part of the Gaussian(R) 16 program.  It is based on
 the Gaussian(R) 09 system (copyright 2009, Gaussian, Inc.),
 the Gaussian(R) 03 system (copyright 2003, Gaussian, Inc.),
 the Gaussian(R) 98 system (copyright 1998, Gaussian, Inc.),
 the Gaussian(R) 94 system (copyright 1995, Gaussian, Inc.),
 the Gaussian 92(TM) system (copyright 1992, Gaussian, Inc.),
 the Gaussian 90(TM) system (copyright 1990, Gaussian, Inc.),
 the Gaussian 88(TM) system (copyright 1988, Gaussian, Inc.),
 the Gaussian 86(TM) system (copyright 1986, Carnegie Mellon
 University), and the Gaussian 82(TM) system (copyright 1983,
 Carnegie Mellon University). Gaussian is a federally registered
 trademark of Gaussian, Inc.
  
 This software contains proprietary and confidential information,
 including trade secrets, belonging to Gaussian, Inc.
  
 This software is provided under written license and may be
 used, copied, transmitted, or stored only in accord with that
 written license.
  
 The following legend is applicable only to US Government
 contracts under FAR:
  
                    RESTRICTED RIGHTS LEGEND
  
 Use, reproduction and disclosure by the US Government is
 subject to restrictions as set forth in subparagraphs (a)
 and (c) of the Commercial Computer Software - Restricted
 Rights clause in FAR 52.227-19.
  
 Gaussian, Inc.
 340 Quinnipiac St., Bldg. 40, Wallingford CT 06492
  
  
 ---------------------------------------------------------------
 Warning -- This program may not be used in any manner that
 competes with the business of Gaussian, Inc. or will provide
 assistance to any competitor of Gaussian, Inc.  The licensee
 of this program is prohibited from giving any competitor of
 Gaussian, Inc. access to this program.  By using this program,
 the user acknowledges that Gaussian, Inc. is engaged in the
 business of creating and licensing software in the field of
 computational chemistry and represents and warrants to the
 licensee that it is not a competitor of Gaussian, Inc. and that
 it will not use this program in any manner prohibited above.
 ---------------------------------------------------------------
  

 Cite this work as:
 Gaussian 16, Revision A.03,
 M. J. Frisch, G. W. Trucks, H. B. Schlegel, G. E. Scuseria, 
 M. A. Robb, J. R. Cheeseman, G. Scalmani, V. Barone, 
 G. A. Petersson, H. Nakatsuji, X. Li, M. Caricato, A. V. Marenich, 
 J. Bloino, B. G. Janesko, R. Gomperts, B. Mennucci, H. P. Hratchian, 
 J. V. Ortiz, A. F. Izmaylov, J. L. Sonnenberg, D. Williams-Young, 
 F. Ding, F. Lipparini, F. Egidi, J. Goings, B. Peng, A. Petrone, 
 T. Henderson, D. Ranasinghe, V. G. Zakrzewski, J. Gao, N. Rega, 
 G. Zheng, W. Liang, M. Hada, M. Ehara, K. Toyota, R. Fukuda, 
 J. Hasegawa, M. Ishida, T. Nakajima, Y. Honda, O. Kitao, H. Nakai, 
 T. Vreven, K. Throssell, J. A. Montgomery, Jr., J. E. Peralta, 
 F. Ogliaro, M. J. Bearpark, J. J. Heyd, E. N. Brothers, K. N. Kudin, 
 V. N. Staroverov, T. A. Keith, R. Kobayashi, J. Normand, 
 K. Raghavachari, A. P. Rendell, J. C. Burant, S. S. Iyengar, 
 J. Tomasi, M. Cossi, J. M. Millam, M. Klene, C. Adamo, R. Cammi, 
 J. W. Ochterski, R. L. Martin, K. Morokuma, O. Farkas, 
 J. B. Foresman, and D. J. Fox, Gaussian, Inc., Wallingford CT, 2016.
 
 ******************************************
 Gaussian 16:  ES64L-G16RevA.03 25-Dec-2016
                11-Feb-2020 
 ******************************************
 %chk=checkpoint.chk
 %mem=3GB
 %nprocshared=4
 Will use up to    4 processors via shared memory.
 --------------------------------
 #t pop=none jul-cc-pvdz upbe1pbe
 --------------------------------
 ------------------------
 theory_abbreviation pbe0
 ------------------------
 Symbolic Z-matrix:
 Charge =  0 Multiplicity = 6
 O                    -0.35623  -0.26949  -0.59678 
 C                    -1.44698  -1.18459  -0.36099 
 C                    -2.72844  -0.14862  -0.27649 
 C                    -1.98688   1.16403  -0.24176 
 C                    -1.84034   1.9672   -1.47156 
 Fe                    1.37988   0.02201   0.01407 
 Cl                    1.77901   2.04264  -0.82742 
 C                    -1.60628   1.78692   1.04187 
 Cl                    2.62106  -1.63576  -0.70599 
 Cl                    1.32203   0.14718   2.23136 
 H                    -3.25731  -0.21559  -1.23179 
 H                    -2.49799   2.33015   1.39898 
 H                    -1.3383    1.05671   1.80644 
 H                    -0.79437   2.50654   0.91668 
 H                    -2.53738   2.81868  -1.39638 
 H                    -0.8274    2.38385  -1.52507 
 H                    -2.06833   1.3997   -2.37409 
 C                    -3.71744  -0.37922   0.86522 
 H                    -4.52272   0.36383   0.84488 
 H                    -4.17807  -1.36516   0.75397 
 H                    -3.24138  -0.34197   1.84756 
 C                    -1.22816  -1.97805   0.91807 
 H                    -2.05745  -2.66758   1.10445 
 H                    -0.31318  -2.56996   0.80512 
 H                    -1.09184  -1.33421   1.78889 
 C                    -1.57654  -2.09768  -1.57054 
 H                    -0.66444  -2.69618  -1.66566 
 H                    -2.43287  -2.77421  -1.46766 
 H                    -1.69328  -1.50997  -2.48597 
 
                    Distance matrix (angstroms):
                    1          2          3          4          5
     1  O    0.000000
     2  C    1.443175   0.000000
     3  C    2.396787   1.650002   0.000000
     4  C    2.200008   2.412820   1.508030   0.000000
     5  C    2.823227   3.364799   2.587204   1.476135   0.000000
     6  Fe   1.863375   3.096401   4.122112   3.564367   4.044830
     7  Cl   3.155683   4.586888   5.042044   3.911121   3.676991
     8  C    2.911457   3.289869   2.596850   1.476673   2.530737
     9  Cl   3.277634   4.107502   5.568953   5.411790   5.785459
    10  Cl   3.314893   4.020113   4.773165   4.254316   5.198527
    11  H    2.970260   2.230368   1.093982   2.120732   2.613407
    12  H    3.915141   4.068849   3.000769   2.076801   2.967191
    13  H    2.915253   3.119773   2.779191   2.151116   3.438943
    14  H    3.192001   3.960152   3.494878   2.136918   2.662446
    15  H    3.864396   4.276347   3.177345   2.091426   1.102965
    16  H    2.850250   3.804300   3.403864   2.116420   1.096584
    17  H    2.979316   3.334243   2.689416   2.146858   1.090228
    18  C    3.667049   2.703186   1.528004   2.569403   3.806537
    19  H    4.454112   3.648544   2.177041   2.872555   3.889971
    20  H    4.198988   2.955433   2.154819   3.491356   4.639248
    21  H    3.782082   2.967757   2.193644   2.864791   4.279220
    22  C    2.444218   1.521004   2.650395   3.434162   4.652963
    23  H    3.396943   2.172437   2.949983   4.061835   5.306998
    24  H    2.694318   2.136487   3.586952   4.223727   5.301068
    25  H    2.714072   2.184149   2.889614   3.341532   4.700014
    26  C    2.404092   1.521027   2.607735   3.545811   4.074637
    27  H    2.669519   2.144629   3.560891   4.321750   4.813265
    28  H    3.368163   2.173381   2.898272   4.148669   4.778297
    29  H    2.625932   2.163801   2.794032   3.503272   3.625103
                    6          7          8          9         10
     6  Fe   0.000000
     7  Cl   2.224935   0.000000
     8  C    3.617783   3.875534   0.000000
     9  Cl   2.192540   3.775501   5.713150   0.000000
    10  Cl   2.221570   3.627359   3.560702   3.673463   0.000000
    11  H    4.807511   5.534223   3.450437   6.070308   5.752860
    12  H    4.720524   4.830343   1.103536   6.809116   4.477815
    13  H    3.416377   4.198432   1.090678   5.407233   2.843438
    14  H    3.422710   3.143143   1.092121   5.608644   3.431350
    15  H    5.015536   4.422344   2.806519   6.850415   5.932322
    16  H    3.580405   2.719651   2.748114   5.359111   4.871704
    17  H    4.414916   4.196137   3.468748   5.829838   5.854359
    18  C    5.183445   6.240299   3.029910   6.650132   5.247830
    19  H    5.970570   6.732512   3.251096   7.578730   6.010851
    20  H    5.776025   7.042771   4.078309   6.959374   5.892446
    21  H    4.984994   6.168152   2.802647   6.524012   4.605569
    22  C    3.408711   5.315607   3.785924   4.191808   3.569982
    23  H    4.498677   6.374695   4.477726   5.121608   4.540228
    24  H    3.195393   5.321513   4.550876   3.430160   3.477194
    25  H    3.331476   5.146841   3.250250   4.483415   2.866544
    26  C    3.967931   5.380905   4.681417   4.310530   5.281618
    27  H    3.793323   5.397170   5.321270   3.583295   5.217038
    28  H    4.954940   6.430539   5.271137   5.236263   6.026317
    29  H    4.247519   5.237225   4.829353   4.668797   5.838778
                   11         12         13         14         15
    11  H    0.000000
    12  H    3.738762   0.000000
    13  H    3.812115   1.769912   0.000000
    14  H    4.253473   1.779341   1.785933   0.000000
    15  H    3.122851   2.837995   3.847126   2.913028   0.000000
    16  H    3.570374   3.368051   3.622324   2.445046   1.769083
    17  H    2.308177   3.909779   4.257629   3.698273   1.785896
    18  C    2.153125   3.018714   2.933958   4.107871   4.090707
    19  H    2.499912   2.876278   3.397826   4.300810   3.871836
    20  H    2.472359   4.110237   3.877815   5.144511   4.982006
    21  H    3.081986   2.809638   2.362139   3.868901   4.583493
    22  C    3.441743   4.517113   3.164024   4.505521   5.484457
    23  H    3.593045   5.025752   3.857500   5.329374   6.048435
    24  H    4.284852   5.397883   3.899511   5.100476   6.231458
    25  H    3.881378   3.944221   2.403654   3.949768   5.429735
    26  C    2.545980   5.410437   4.627192   5.291212   5.012400
    27  H    3.614489   6.165868   5.156909   5.809791   5.830442
    28  H    2.698496   5.854605   5.156913   6.021306   5.594323
    29  H    2.386329   5.521493   5.013837   5.340261   4.542787
                   16         17         18         19         20
    16  H    0.000000
    17  H    1.797025   0.000000
    18  C    4.658359   4.046876   0.000000
    19  H    4.832441   4.178374   1.095897   0.000000
    20  H    5.520512   4.677628   1.093913   1.765347   0.000000
    21  H    4.963058   4.715055   1.092255   1.773509   1.766425
    22  C    5.015540   4.790965   2.958981   4.042748   3.017366
    23  H    5.826180   5.351932   2.837152   3.915911   2.513195
    24  H    5.498584   5.380161   4.048697   5.131164   4.048639
    25  H    4.987607   5.075254   2.942613   3.942765   3.255273
    26  C    4.543942   3.622049   3.670084   4.535776   3.564813
    27  H    5.084586   4.387367   4.592875   5.527456   4.468984
    28  H    5.402447   4.286729   3.581685   4.422964   3.157022
    29  H    4.103036   2.935875   4.075081   4.755144   4.085627
                   21         22         23         24         25
    21  H    0.000000
    22  C    2.755677   0.000000
    23  H    2.713372   1.094497   0.000000
    24  H    3.824258   1.095583   1.772456   0.000000
    25  H    2.368228   1.091527   1.782898   1.761013   0.000000
    26  C    4.187796   2.515719   2.776987   2.731827   3.479018
    27  H    4.952340   2.740286   3.100783   2.498821   3.737854
    28  H    4.190489   2.788709   2.601553   3.114534   3.804872
    29  H    4.747662   3.467400   3.789961   3.722834   4.320531
                   26         27         28         29
    26  C    0.000000
    27  H    1.095064   0.000000
    28  H    1.096167   1.781189   0.000000
    29  H    1.094092   1.771577   1.783887   0.000000
 Framework group  C1[X(C8H16Cl3FeO)]
 Deg. of freedom    81
                         Standard orientation:                         
 ---------------------------------------------------------------------
 Center     Atomic      Atomic             Coordinates (Angstroms)
 Number     Number       Type             X           Y           Z
 ---------------------------------------------------------------------
      1          8           0       -0.356227   -0.269487   -0.596779
      2          6           0       -1.446982   -1.184589   -0.360994
      3          6           0       -2.728440   -0.148621   -0.276490
      4          6           0       -1.986883    1.164026   -0.241761
      5          6           0       -1.840339    1.967202   -1.471561
      6         26           0        1.379877    0.022014    0.014071
      7         17           0        1.779005    2.042639   -0.827420
      8          6           0       -1.606275    1.786915    1.041871
      9         17           0        2.621064   -1.635757   -0.705987
     10         17           0        1.322030    0.147175    2.231358
     11          1           0       -3.257312   -0.215593   -1.231794
     12          1           0       -2.497993    2.330153    1.398976
     13          1           0       -1.338296    1.056707    1.806438
     14          1           0       -0.794371    2.506544    0.916677
     15          1           0       -2.537380    2.818679   -1.396378
     16          1           0       -0.827404    2.383851   -1.525065
     17          1           0       -2.068333    1.399700   -2.374089
     18          6           0       -3.717443   -0.379215    0.865217
     19          1           0       -4.522718    0.363826    0.844881
     20          1           0       -4.178068   -1.365163    0.753970
     21          1           0       -3.241379   -0.341965    1.847559
     22          6           0       -1.228162   -1.978045    0.918068
     23          1           0       -2.057452   -2.667583    1.104454
     24          1           0       -0.313184   -2.569958    0.805124
     25          1           0       -1.091843   -1.334214    1.788889
     26          6           0       -1.576536   -2.097682   -1.570539
     27          1           0       -0.664439   -2.696177   -1.665664
     28          1           0       -2.432867   -2.774213   -1.467660
     29          1           0       -1.693275   -1.509970   -2.485965
 ---------------------------------------------------------------------
 Rotational constants (GHZ):           0.5772517           0.3593632           0.3197882
   427 basis functions,  1056 primitive gaussians,   461 cartesian basis functions
    77 alpha electrons       72 beta electrons
       nuclear repulsion energy      1657.7381944935 Hartrees.
 NAtoms=   29 NActive=   29 NUniq=   29 SFac= 1.00D+00 NAtFMM=   60 NAOKFM=F Big=F
 ExpMin= 1.40D-02 ExpMax= 4.32D+06 ExpMxC= 4.91D+03 IAcc=3 IRadAn=         5 AccDes= 0.00D+00
 Harris functional with IExCor= 1009 and IRadAn=       5 diagonalized for initial guess.
 HarFok:  IExCor= 1009 AccDes= 0.00D+00 IRadAn=         5 IDoV= 1 UseB2=F ITyADJ=14
 ICtDFT=  3500011 ScaDFX=  1.000000  1.000000  1.000000  1.000000
 FoFCou: FMM=F IPFlag=           0 FMFlag=      100000 FMFlg1=           0
         NFxFlg=           0 DoJE=T BraDBF=F KetDBF=T FulRan=T
         wScrn=  0.000000 ICntrl=       500 IOpCl=  0 I1Cent=   200000004 NGrid=           0
         NMat0=    1 NMatS0=      1 NMatT0=    0 NMatD0=    1 NMtDS0=    0 NMtDT0=    0
 Petite list used in FoFCou.
 Initial guess <Sx>= 0.0000 <Sy>= 0.0000 <Sz>= 2.5000 <S**2>= 8.7500 S= 2.5000
 EnCoef did   100 forward-backward iterations
 Restarting incremental Fock formation.
 SCF Done:  E(UPBE1PBE) =  -3033.11362090     A.U. after   21 cycles
            NFock= 21  Conv=0.38D-08     -V/T= 2.0022
 <Sx>= 0.0000 <Sy>= 0.0000 <Sz>= 2.5000 <S**2>= 8.7629 S= 2.5022
 <L.S>= 0.000000000000E+00
 Annihilation of the first spin contaminant:
 S**2 before annihilation     8.7629,   after     8.7501
 1\1\GINC-HOLY7C06101\SP\UPBE1PBE\Jul-CC-pVDZ\C8H16Cl3Fe1O1(6)\EKWAN\11
 -Feb-2020\0\\#t pop=none jul-cc-pvdz upbe1pbe\\theory_abbreviation pbe
 0\\0,6\O,0,-0.356227,-0.269487,-0.596779\C,0,-1.446982,-1.184589,-0.36
 0994\C,0,-2.72844,-0.148621,-0.27649\C,0,-1.986883,1.164026,-0.241761\
 C,0,-1.840339,1.967202,-1.471561\Fe,0,1.379877,0.022014,0.014071\Cl,0,
 1.779005,2.042639,-0.82742\C,0,-1.606275,1.786915,1.041871\Cl,0,2.6210
 64,-1.635757,-0.705987\Cl,0,1.32203,0.147175,2.231358\H,0,-3.257312,-0
 .215593,-1.231794\H,0,-2.497993,2.330153,1.398976\H,0,-1.338296,1.0567
 07,1.806438\H,0,-0.794371,2.506544,0.916677\H,0,-2.53738,2.818679,-1.3
 96378\H,0,-0.827404,2.383851,-1.525065\H,0,-2.068333,1.3997,-2.374089\
 C,0,-3.717443,-0.379215,0.865217\H,0,-4.522718,0.363826,0.844881\H,0,-
 4.178068,-1.365163,0.75397\H,0,-3.241379,-0.341965,1.847559\C,0,-1.228
 162,-1.978045,0.918068\H,0,-2.057452,-2.667583,1.104454\H,0,-0.313184,
 -2.569958,0.805124\H,0,-1.091843,-1.334214,1.788889\C,0,-1.576536,-2.0
 97682,-1.570539\H,0,-0.664439,-2.696177,-1.665664\H,0,-2.432867,-2.774
 213,-1.46766\H,0,-1.693275,-1.50997,-2.485965\\Version=ES64L-G16RevA.0
 3\HF=-3033.1136209\S2=8.762906\S2-1=0.\S2A=8.750052\RMSD=3.798e-09\PG=
 C01 [X(C8H16Cl3Fe1O1)]\\@


 WHEN YOU'VE SEEN ONE NUCLEAR WAR YOU'VE SEEN THEM ALL.
 Job cpu time:       0 days  1 hours 31 minutes 30.0 seconds.
 Elapsed time:       0 days  0 hours 22 minutes 56.9 seconds.
 File lengths (MBytes):  RWF=    173 Int=      0 D2E=      0 Chk=     13 Scr=      1
 Normal termination of Gaussian 16 at Tue Feb 11 13:57:16 2020.
 Initial command:
 /n/sw/g16_nehalem/g16/l1.exe "/scratch/Gau-359368.inp" -scrdir="/scratch/"
 Entering Link 1 = /n/sw/g16_nehalem/g16/l1.exe PID=    361312.
  
 Copyright (c) 1988,1990,1992,1993,1995,1998,2003,2009,2016,
            Gaussian, Inc.  All Rights Reserved.
  
 This is part of the Gaussian(R) 16 program.  It is based on
 the Gaussian(R) 09 system (copyright 2009, Gaussian, Inc.),
 the Gaussian(R) 03 system (copyright 2003, Gaussian, Inc.),
 the Gaussian(R) 98 system (copyright 1998, Gaussian, Inc.),
 the Gaussian(R) 94 system (copyright 1995, Gaussian, Inc.),
 the Gaussian 92(TM) system (copyright 1992, Gaussian, Inc.),
 the Gaussian 90(TM) system (copyright 1990, Gaussian, Inc.),
 the Gaussian 88(TM) system (copyright 1988, Gaussian, Inc.),
 the Gaussian 86(TM) system (copyright 1986, Carnegie Mellon
 University), and the Gaussian 82(TM) system (copyright 1983,
 Carnegie Mellon University). Gaussian is a federally registered
 trademark of Gaussian, Inc.
  
 This software contains proprietary and confidential information,
 including trade secrets, belonging to Gaussian, Inc.
  
 This software is provided under written license and may be
 used, copied, transmitted, or stored only in accord with that
 written license.
  
 The following legend is applicable only to US Government
 contracts under FAR:
  
                    RESTRICTED RIGHTS LEGEND
  
 Use, reproduction and disclosure by the US Government is
 subject to restrictions as set forth in subparagraphs (a)
 and (c) of the Commercial Computer Software - Restricted
 Rights clause in FAR 52.227-19.
  
 Gaussian, Inc.
 340 Quinnipiac St., Bldg. 40, Wallingford CT 06492
  
  
 ---------------------------------------------------------------
 Warning -- This program may not be used in any manner that
 competes with the business of Gaussian, Inc. or will provide
 assistance to any competitor of Gaussian, Inc.  The licensee
 of this program is prohibited from giving any competitor of
 Gaussian, Inc. access to this program.  By using this program,
 the user acknowledges that Gaussian, Inc. is engaged in the
 business of creating and licensing software in the field of
 computational chemistry and represents and warrants to the
 licensee that it is not a competitor of Gaussian, Inc. and that
 it will not use this program in any manner prohibited above.
 ---------------------------------------------------------------
  

 Cite this work as:
 Gaussian 16, Revision A.03,
 M. J. Frisch, G. W. Trucks, H. B. Schlegel, G. E. Scuseria, 
 M. A. Robb, J. R. Cheeseman, G. Scalmani, V. Barone, 
 G. A. Petersson, H. Nakatsuji, X. Li, M. Caricato, A. V. Marenich, 
 J. Bloino, B. G. Janesko, R. Gomperts, B. Mennucci, H. P. Hratchian, 
 J. V. Ortiz, A. F. Izmaylov, J. L. Sonnenberg, D. Williams-Young, 
 F. Ding, F. Lipparini, F. Egidi, J. Goings, B. Peng, A. Petrone, 
 T. Henderson, D. Ranasinghe, V. G. Zakrzewski, J. Gao, N. Rega, 
 G. Zheng, W. Liang, M. Hada, M. Ehara, K. Toyota, R. Fukuda, 
 J. Hasegawa, M. Ishida, T. Nakajima, Y. Honda, O. Kitao, H. Nakai, 
 T. Vreven, K. Throssell, J. A. Montgomery, Jr., J. E. Peralta, 
 F. Ogliaro, M. J. Bearpark, J. J. Heyd, E. N. Brothers, K. N. Kudin, 
 V. N. Staroverov, T. A. Keith, R. Kobayashi, J. Normand, 
 K. Raghavachari, A. P. Rendell, J. C. Burant, S. S. Iyengar, 
 J. Tomasi, M. Cossi, J. M. Millam, M. Klene, C. Adamo, R. Cammi, 
 J. W. Ochterski, R. L. Martin, K. Morokuma, O. Farkas, 
 J. B. Foresman, and D. J. Fox, Gaussian, Inc., Wallingford CT, 2016.
 
 ******************************************
 Gaussian 16:  ES64L-G16RevA.03 25-Dec-2016
                11-Feb-2020 
 ******************************************
 %chk=checkpoint.chk
 %mem=3GB
 %nprocshared=4
 Will use up to    4 processors via shared memory.
 ---------------------------------------------------------------------
 #t pop=none jul-cc-pvdz guess=read upbe1pbe empiricaldispersion=gd3bj
 ---------------------------------------------------------------------
 -----------------------------
 theory_abbreviation pbe0_d3bj
 -----------------------------
 Symbolic Z-matrix:
 Charge =  0 Multiplicity = 6
 O                    -0.35623  -0.26949  -0.59678 
 C                    -1.44698  -1.18459  -0.36099 
 C                    -2.72844  -0.14862  -0.27649 
 C                    -1.98688   1.16403  -0.24176 
 C                    -1.84034   1.9672   -1.47156 
 Fe                    1.37988   0.02201   0.01407 
 Cl                    1.77901   2.04264  -0.82742 
 C                    -1.60628   1.78692   1.04187 
 Cl                    2.62106  -1.63576  -0.70599 
 Cl                    1.32203   0.14718   2.23136 
 H                    -3.25731  -0.21559  -1.23179 
 H                    -2.49799   2.33015   1.39898 
 H                    -1.3383    1.05671   1.80644 
 H                    -0.79437   2.50654   0.91668 
 H                    -2.53738   2.81868  -1.39638 
 H                    -0.8274    2.38385  -1.52507 
 H                    -2.06833   1.3997   -2.37409 
 C                    -3.71744  -0.37922   0.86522 
 H                    -4.52272   0.36383   0.84488 
 H                    -4.17807  -1.36516   0.75397 
 H                    -3.24138  -0.34197   1.84756 
 C                    -1.22816  -1.97805   0.91807 
 H                    -2.05745  -2.66758   1.10445 
 H                    -0.31318  -2.56996   0.80512 
 H                    -1.09184  -1.33421   1.78889 
 C                    -1.57654  -2.09768  -1.57054 
 H                    -0.66444  -2.69618  -1.66566 
 H                    -2.43287  -2.77421  -1.46766 
 H                    -1.69328  -1.50997  -2.48597 
 
                    Distance matrix (angstroms):
                    1          2          3          4          5
     1  O    0.000000
     2  C    1.443175   0.000000
     3  C    2.396787   1.650002   0.000000
     4  C    2.200008   2.412820   1.508030   0.000000
     5  C    2.823227   3.364799   2.587204   1.476135   0.000000
     6  Fe   1.863375   3.096401   4.122112   3.564367   4.044830
     7  Cl   3.155683   4.586888   5.042044   3.911121   3.676991
     8  C    2.911457   3.289869   2.596850   1.476673   2.530737
     9  Cl   3.277634   4.107502   5.568953   5.411790   5.785459
    10  Cl   3.314893   4.020113   4.773165   4.254316   5.198527
    11  H    2.970260   2.230368   1.093982   2.120732   2.613407
    12  H    3.915141   4.068849   3.000769   2.076801   2.967191
    13  H    2.915253   3.119773   2.779191   2.151116   3.438943
    14  H    3.192001   3.960152   3.494878   2.136918   2.662446
    15  H    3.864396   4.276347   3.177345   2.091426   1.102965
    16  H    2.850250   3.804300   3.403864   2.116420   1.096584
    17  H    2.979316   3.334243   2.689416   2.146858   1.090228
    18  C    3.667049   2.703186   1.528004   2.569403   3.806537
    19  H    4.454112   3.648544   2.177041   2.872555   3.889971
    20  H    4.198988   2.955433   2.154819   3.491356   4.639248
    21  H    3.782082   2.967757   2.193644   2.864791   4.279220
    22  C    2.444218   1.521004   2.650395   3.434162   4.652963
    23  H    3.396943   2.172437   2.949983   4.061835   5.306998
    24  H    2.694318   2.136487   3.586952   4.223727   5.301068
    25  H    2.714072   2.184149   2.889614   3.341532   4.700014
    26  C    2.404092   1.521027   2.607735   3.545811   4.074637
    27  H    2.669519   2.144629   3.560891   4.321750   4.813265
    28  H    3.368163   2.173381   2.898272   4.148669   4.778297
    29  H    2.625932   2.163801   2.794032   3.503272   3.625103
                    6          7          8          9         10
     6  Fe   0.000000
     7  Cl   2.224935   0.000000
     8  C    3.617783   3.875534   0.000000
     9  Cl   2.192540   3.775501   5.713150   0.000000
    10  Cl   2.221570   3.627359   3.560702   3.673463   0.000000
    11  H    4.807511   5.534223   3.450437   6.070308   5.752860
    12  H    4.720524   4.830343   1.103536   6.809116   4.477815
    13  H    3.416377   4.198432   1.090678   5.407233   2.843438
    14  H    3.422710   3.143143   1.092121   5.608644   3.431350
    15  H    5.015536   4.422344   2.806519   6.850415   5.932322
    16  H    3.580405   2.719651   2.748114   5.359111   4.871704
    17  H    4.414916   4.196137   3.468748   5.829838   5.854359
    18  C    5.183445   6.240299   3.029910   6.650132   5.247830
    19  H    5.970570   6.732512   3.251096   7.578730   6.010851
    20  H    5.776025   7.042771   4.078309   6.959374   5.892446
    21  H    4.984994   6.168152   2.802647   6.524012   4.605569
    22  C    3.408711   5.315607   3.785924   4.191808   3.569982
    23  H    4.498677   6.374695   4.477726   5.121608   4.540228
    24  H    3.195393   5.321513   4.550876   3.430160   3.477194
    25  H    3.331476   5.146841   3.250250   4.483415   2.866544
    26  C    3.967931   5.380905   4.681417   4.310530   5.281618
    27  H    3.793323   5.397170   5.321270   3.583295   5.217038
    28  H    4.954940   6.430539   5.271137   5.236263   6.026317
    29  H    4.247519   5.237225   4.829353   4.668797   5.838778
                   11         12         13         14         15
    11  H    0.000000
    12  H    3.738762   0.000000
    13  H    3.812115   1.769912   0.000000
    14  H    4.253473   1.779341   1.785933   0.000000
    15  H    3.122851   2.837995   3.847126   2.913028   0.000000
    16  H    3.570374   3.368051   3.622324   2.445046   1.769083
    17  H    2.308177   3.909779   4.257629   3.698273   1.785896
    18  C    2.153125   3.018714   2.933958   4.107871   4.090707
    19  H    2.499912   2.876278   3.397826   4.300810   3.871836
    20  H    2.472359   4.110237   3.877815   5.144511   4.982006
    21  H    3.081986   2.809638   2.362139   3.868901   4.583493
    22  C    3.441743   4.517113   3.164024   4.505521   5.484457
    23  H    3.593045   5.025752   3.857500   5.329374   6.048435
    24  H    4.284852   5.397883   3.899511   5.100476   6.231458
    25  H    3.881378   3.944221   2.403654   3.949768   5.429735
    26  C    2.545980   5.410437   4.627192   5.291212   5.012400
    27  H    3.614489   6.165868   5.156909   5.809791   5.830442
    28  H    2.698496   5.854605   5.156913   6.021306   5.594323
    29  H    2.386329   5.521493   5.013837   5.340261   4.542787
                   16         17         18         19         20
    16  H    0.000000
    17  H    1.797025   0.000000
    18  C    4.658359   4.046876   0.000000
    19  H    4.832441   4.178374   1.095897   0.000000
    20  H    5.520512   4.677628   1.093913   1.765347   0.000000
    21  H    4.963058   4.715055   1.092255   1.773509   1.766425
    22  C    5.015540   4.790965   2.958981   4.042748   3.017366
    23  H    5.826180   5.351932   2.837152   3.915911   2.513195
    24  H    5.498584   5.380161   4.048697   5.131164   4.048639
    25  H    4.987607   5.075254   2.942613   3.942765   3.255273
    26  C    4.543942   3.622049   3.670084   4.535776   3.564813
    27  H    5.084586   4.387367   4.592875   5.527456   4.468984
    28  H    5.402447   4.286729   3.581685   4.422964   3.157022
    29  H    4.103036   2.935875   4.075081   4.755144   4.085627
                   21         22         23         24         25
    21  H    0.000000
    22  C    2.755677   0.000000
    23  H    2.713372   1.094497   0.000000
    24  H    3.824258   1.095583   1.772456   0.000000
    25  H    2.368228   1.091527   1.782898   1.761013   0.000000
    26  C    4.187796   2.515719   2.776987   2.731827   3.479018
    27  H    4.952340   2.740286   3.100783   2.498821   3.737854
    28  H    4.190489   2.788709   2.601553   3.114534   3.804872
    29  H    4.747662   3.467400   3.789961   3.722834   4.320531
                   26         27         28         29
    26  C    0.000000
    27  H    1.095064   0.000000
    28  H    1.096167   1.781189   0.000000
    29  H    1.094092   1.771577   1.783887   0.000000
 Framework group  C1[X(C8H16Cl3FeO)]
 Deg. of freedom    81
                         Standard orientation:                         
 ---------------------------------------------------------------------
 Center     Atomic      Atomic             Coordinates (Angstroms)
 Number     Number       Type             X           Y           Z
 ---------------------------------------------------------------------
      1          8           0       -0.356227   -0.269487   -0.596779
      2          6           0       -1.446982   -1.184589   -0.360994
      3          6           0       -2.728440   -0.148621   -0.276490
      4          6           0       -1.986883    1.164026   -0.241761
      5          6           0       -1.840339    1.967202   -1.471561
      6         26           0        1.379877    0.022014    0.014071
      7         17           0        1.779005    2.042639   -0.827420
      8          6           0       -1.606275    1.786915    1.041871
      9         17           0        2.621064   -1.635757   -0.705987
     10         17           0        1.322030    0.147175    2.231358
     11          1           0       -3.257312   -0.215593   -1.231794
     12          1           0       -2.497993    2.330153    1.398976
     13          1           0       -1.338296    1.056707    1.806438
     14          1           0       -0.794371    2.506544    0.916677
     15          1           0       -2.537380    2.818679   -1.396378
     16          1           0       -0.827404    2.383851   -1.525065
     17          1           0       -2.068333    1.399700   -2.374089
     18          6           0       -3.717443   -0.379215    0.865217
     19          1           0       -4.522718    0.363826    0.844881
     20          1           0       -4.178068   -1.365163    0.753970
     21          1           0       -3.241379   -0.341965    1.847559
     22          6           0       -1.228162   -1.978045    0.918068
     23          1           0       -2.057452   -2.667583    1.104454
     24          1           0       -0.313184   -2.569958    0.805124
     25          1           0       -1.091843   -1.334214    1.788889
     26          6           0       -1.576536   -2.097682   -1.570539
     27          1           0       -0.664439   -2.696177   -1.665664
     28          1           0       -2.432867   -2.774213   -1.467660
     29          1           0       -1.693275   -1.509970   -2.485965
 ---------------------------------------------------------------------
 Rotational constants (GHZ):           0.5772517           0.3593632           0.3197882
   427 basis functions,  1056 primitive gaussians,   461 cartesian basis functions
    77 alpha electrons       72 beta electrons
       nuclear repulsion energy      1657.7381944935 Hartrees.
 NAtoms=   29 NActive=   29 NUniq=   29 SFac= 1.00D+00 NAtFMM=   60 NAOKFM=F Big=F
 Nuclear repulsion after empirical dispersion term =     1657.7012503090 Hartrees.
 Initial guess from the checkpoint file:  "checkpoint.chk"
 B after Tr=     0.000000    0.000000    0.000000
         Rot=    1.000000    0.000000    0.000000    0.000000 Ang=   0.00 deg.
 Initial guess <Sx>= 0.0000 <Sy>= 0.0000 <Sz>= 2.5000 <S**2>= 8.7629 S= 2.5022
 SCF Done:  E(UPBE1PBE) =  -3033.15056508     A.U. after    1 cycles
            NFock=  1  Conv=0.15D-08     -V/T= 2.0022
 <Sx>= 0.0000 <Sy>= 0.0000 <Sz>= 2.5000 <S**2>= 8.7629 S= 2.5022
 <L.S>= 0.000000000000E+00
 Annihilation of the first spin contaminant:
 S**2 before annihilation     8.7629,   after     8.7501
 1\1\GINC-HOLY7C06101\SP\UPBE1PBE\Jul-CC-pVDZ\C8H16Cl3Fe1O1(6)\EKWAN\11
 -Feb-2020\0\\#t pop=none jul-cc-pvdz guess=read upbe1pbe empiricaldisp
 ersion=gd3bj\\theory_abbreviation pbe0_d3bj\\0,6\O,0,-0.356227,-0.2694
 87,-0.596779\C,0,-1.446982,-1.184589,-0.360994\C,0,-2.72844,-0.148621,
 -0.27649\C,0,-1.986883,1.164026,-0.241761\C,0,-1.840339,1.967202,-1.47
 1561\Fe,0,1.379877,0.022014,0.014071\Cl,0,1.779005,2.042639,-0.82742\C
 ,0,-1.606275,1.786915,1.041871\Cl,0,2.621064,-1.635757,-0.705987\Cl,0,
 1.32203,0.147175,2.231358\H,0,-3.257312,-0.215593,-1.231794\H,0,-2.497
 993,2.330153,1.398976\H,0,-1.338296,1.056707,1.806438\H,0,-0.794371,2.
 506544,0.916677\H,0,-2.53738,2.818679,-1.396378\H,0,-0.827404,2.383851
 ,-1.525065\H,0,-2.068333,1.3997,-2.374089\C,0,-3.717443,-0.379215,0.86
 5217\H,0,-4.522718,0.363826,0.844881\H,0,-4.178068,-1.365163,0.75397\H
 ,0,-3.241379,-0.341965,1.847559\C,0,-1.228162,-1.978045,0.918068\H,0,-
 2.057452,-2.667583,1.104454\H,0,-0.313184,-2.569958,0.805124\H,0,-1.09
 1843,-1.334214,1.788889\C,0,-1.576536,-2.097682,-1.570539\H,0,-0.66443
 9,-2.696177,-1.665664\H,0,-2.432867,-2.774213,-1.46766\H,0,-1.693275,-
 1.50997,-2.485965\\Version=ES64L-G16RevA.03\HF=-3033.1505651\S2=8.7629
 06\S2-1=0.\S2A=8.750052\RMSD=1.524e-09\PG=C01 [X(C8H16Cl3Fe1O1)]\\@


 MATERIAL COPIED FROM ONE SCHOLARLY BOOK WITHOUT CREDIT COMPRISES PLAGIARISM.
 MATERIAL COPIED FROM TWO SCHOLARLY BOOKS COMPRISES AN ESSAY.
 MATERIAL COPIED FROM THREE SCHOLARLY BOOKS COMPRISES A DISSERTATION.
 MATERIAL COPIED FROM FOUR SCHOLARLY BOOKS COMPRISES A FIFTH SCHOLARLY BOOK.

                               -- C&EN, 25 FEB 1980
 Job cpu time:       0 days  0 hours  4 minutes 38.9 seconds.
 Elapsed time:       0 days  0 hours  1 minutes 10.5 seconds.
 File lengths (MBytes):  RWF=    170 Int=      0 D2E=      0 Chk=     13 Scr=      1
 Normal termination of Gaussian 16 at Tue Feb 11 13:58:27 2020.
 Initial command:
 /n/sw/g16_nehalem/g16/l1.exe "/scratch/Gau-359368.inp" -scrdir="/scratch/"
 Entering Link 1 = /n/sw/g16_nehalem/g16/l1.exe PID=    361591.
  
 Copyright (c) 1988,1990,1992,1993,1995,1998,2003,2009,2016,
            Gaussian, Inc.  All Rights Reserved.
  
 This is part of the Gaussian(R) 16 program.  It is based on
 the Gaussian(R) 09 system (copyright 2009, Gaussian, Inc.),
 the Gaussian(R) 03 system (copyright 2003, Gaussian, Inc.),
 the Gaussian(R) 98 system (copyright 1998, Gaussian, Inc.),
 the Gaussian(R) 94 system (copyright 1995, Gaussian, Inc.),
 the Gaussian 92(TM) system (copyright 1992, Gaussian, Inc.),
 the Gaussian 90(TM) system (copyright 1990, Gaussian, Inc.),
 the Gaussian 88(TM) system (copyright 1988, Gaussian, Inc.),
 the Gaussian 86(TM) system (copyright 1986, Carnegie Mellon
 University), and the Gaussian 82(TM) system (copyright 1983,
 Carnegie Mellon University). Gaussian is a federally registered
 trademark of Gaussian, Inc.
  
 This software contains proprietary and confidential information,
 including trade secrets, belonging to Gaussian, Inc.
  
 This software is provided under written license and may be
 used, copied, transmitted, or stored only in accord with that
 written license.
  
 The following legend is applicable only to US Government
 contracts under FAR:
  
                    RESTRICTED RIGHTS LEGEND
  
 Use, reproduction and disclosure by the US Government is
 subject to restrictions as set forth in subparagraphs (a)
 and (c) of the Commercial Computer Software - Restricted
 Rights clause in FAR 52.227-19.
  
 Gaussian, Inc.
 340 Quinnipiac St., Bldg. 40, Wallingford CT 06492
  
  
 ---------------------------------------------------------------
 Warning -- This program may not be used in any manner that
 competes with the business of Gaussian, Inc. or will provide
 assistance to any competitor of Gaussian, Inc.  The licensee
 of this program is prohibited from giving any competitor of
 Gaussian, Inc. access to this program.  By using this program,
 the user acknowledges that Gaussian, Inc. is engaged in the
 business of creating and licensing software in the field of
 computational chemistry and represents and warrants to the
 licensee that it is not a competitor of Gaussian, Inc. and that
 it will not use this program in any manner prohibited above.
 ---------------------------------------------------------------
  

 Cite this work as:
 Gaussian 16, Revision A.03,
 M. J. Frisch, G. W. Trucks, H. B. Schlegel, G. E. Scuseria, 
 M. A. Robb, J. R. Cheeseman, G. Scalmani, V. Barone, 
 G. A. Petersson, H. Nakatsuji, X. Li, M. Caricato, A. V. Marenich, 
 J. Bloino, B. G. Janesko, R. Gomperts, B. Mennucci, H. P. Hratchian, 
 J. V. Ortiz, A. F. Izmaylov, J. L. Sonnenberg, D. Williams-Young, 
 F. Ding, F. Lipparini, F. Egidi, J. Goings, B. Peng, A. Petrone, 
 T. Henderson, D. Ranasinghe, V. G. Zakrzewski, J. Gao, N. Rega, 
 G. Zheng, W. Liang, M. Hada, M. Ehara, K. Toyota, R. Fukuda, 
 J. Hasegawa, M. Ishida, T. Nakajima, Y. Honda, O. Kitao, H. Nakai, 
 T. Vreven, K. Throssell, J. A. Montgomery, Jr., J. E. Peralta, 
 F. Ogliaro, M. J. Bearpark, J. J. Heyd, E. N. Brothers, K. N. Kudin, 
 V. N. Staroverov, T. A. Keith, R. Kobayashi, J. Normand, 
 K. Raghavachari, A. P. Rendell, J. C. Burant, S. S. Iyengar, 
 J. Tomasi, M. Cossi, J. M. Millam, M. Klene, C. Adamo, R. Cammi, 
 J. W. Ochterski, R. L. Martin, K. Morokuma, O. Farkas, 
 J. B. Foresman, and D. J. Fox, Gaussian, Inc., Wallingford CT, 2016.
 
 ******************************************
 Gaussian 16:  ES64L-G16RevA.03 25-Dec-2016
                11-Feb-2020 
 ******************************************
 %chk=checkpoint.chk
 %mem=3GB
 %nprocshared=4
 Will use up to    4 processors via shared memory.
 -----------------------------------------
 #t pop=none jul-cc-pvdz guess=read ub3lyp
 -----------------------------------------
 -------------------------
 theory_abbreviation b3lyp
 -------------------------
 Symbolic Z-matrix:
 Charge =  0 Multiplicity = 6
 O                    -0.35623  -0.26949  -0.59678 
 C                    -1.44698  -1.18459  -0.36099 
 C                    -2.72844  -0.14862  -0.27649 
 C                    -1.98688   1.16403  -0.24176 
 C                    -1.84034   1.9672   -1.47156 
 Fe                    1.37988   0.02201   0.01407 
 Cl                    1.77901   2.04264  -0.82742 
 C                    -1.60628   1.78692   1.04187 
 Cl                    2.62106  -1.63576  -0.70599 
 Cl                    1.32203   0.14718   2.23136 
 H                    -3.25731  -0.21559  -1.23179 
 H                    -2.49799   2.33015   1.39898 
 H                    -1.3383    1.05671   1.80644 
 H                    -0.79437   2.50654   0.91668 
 H                    -2.53738   2.81868  -1.39638 
 H                    -0.8274    2.38385  -1.52507 
 H                    -2.06833   1.3997   -2.37409 
 C                    -3.71744  -0.37922   0.86522 
 H                    -4.52272   0.36383   0.84488 
 H                    -4.17807  -1.36516   0.75397 
 H                    -3.24138  -0.34197   1.84756 
 C                    -1.22816  -1.97805   0.91807 
 H                    -2.05745  -2.66758   1.10445 
 H                    -0.31318  -2.56996   0.80512 
 H                    -1.09184  -1.33421   1.78889 
 C                    -1.57654  -2.09768  -1.57054 
 H                    -0.66444  -2.69618  -1.66566 
 H                    -2.43287  -2.77421  -1.46766 
 H                    -1.69328  -1.50997  -2.48597 
 
                    Distance matrix (angstroms):
                    1          2          3          4          5
     1  O    0.000000
     2  C    1.443175   0.000000
     3  C    2.396787   1.650002   0.000000
     4  C    2.200008   2.412820   1.508030   0.000000
     5  C    2.823227   3.364799   2.587204   1.476135   0.000000
     6  Fe   1.863375   3.096401   4.122112   3.564367   4.044830
     7  Cl   3.155683   4.586888   5.042044   3.911121   3.676991
     8  C    2.911457   3.289869   2.596850   1.476673   2.530737
     9  Cl   3.277634   4.107502   5.568953   5.411790   5.785459
    10  Cl   3.314893   4.020113   4.773165   4.254316   5.198527
    11  H    2.970260   2.230368   1.093982   2.120732   2.613407
    12  H    3.915141   4.068849   3.000769   2.076801   2.967191
    13  H    2.915253   3.119773   2.779191   2.151116   3.438943
    14  H    3.192001   3.960152   3.494878   2.136918   2.662446
    15  H    3.864396   4.276347   3.177345   2.091426   1.102965
    16  H    2.850250   3.804300   3.403864   2.116420   1.096584
    17  H    2.979316   3.334243   2.689416   2.146858   1.090228
    18  C    3.667049   2.703186   1.528004   2.569403   3.806537
    19  H    4.454112   3.648544   2.177041   2.872555   3.889971
    20  H    4.198988   2.955433   2.154819   3.491356   4.639248
    21  H    3.782082   2.967757   2.193644   2.864791   4.279220
    22  C    2.444218   1.521004   2.650395   3.434162   4.652963
    23  H    3.396943   2.172437   2.949983   4.061835   5.306998
    24  H    2.694318   2.136487   3.586952   4.223727   5.301068
    25  H    2.714072   2.184149   2.889614   3.341532   4.700014
    26  C    2.404092   1.521027   2.607735   3.545811   4.074637
    27  H    2.669519   2.144629   3.560891   4.321750   4.813265
    28  H    3.368163   2.173381   2.898272   4.148669   4.778297
    29  H    2.625932   2.163801   2.794032   3.503272   3.625103
                    6          7          8          9         10
     6  Fe   0.000000
     7  Cl   2.224935   0.000000
     8  C    3.617783   3.875534   0.000000
     9  Cl   2.192540   3.775501   5.713150   0.000000
    10  Cl   2.221570   3.627359   3.560702   3.673463   0.000000
    11  H    4.807511   5.534223   3.450437   6.070308   5.752860
    12  H    4.720524   4.830343   1.103536   6.809116   4.477815
    13  H    3.416377   4.198432   1.090678   5.407233   2.843438
    14  H    3.422710   3.143143   1.092121   5.608644   3.431350
    15  H    5.015536   4.422344   2.806519   6.850415   5.932322
    16  H    3.580405   2.719651   2.748114   5.359111   4.871704
    17  H    4.414916   4.196137   3.468748   5.829838   5.854359
    18  C    5.183445   6.240299   3.029910   6.650132   5.247830
    19  H    5.970570   6.732512   3.251096   7.578730   6.010851
    20  H    5.776025   7.042771   4.078309   6.959374   5.892446
    21  H    4.984994   6.168152   2.802647   6.524012   4.605569
    22  C    3.408711   5.315607   3.785924   4.191808   3.569982
    23  H    4.498677   6.374695   4.477726   5.121608   4.540228
    24  H    3.195393   5.321513   4.550876   3.430160   3.477194
    25  H    3.331476   5.146841   3.250250   4.483415   2.866544
    26  C    3.967931   5.380905   4.681417   4.310530   5.281618
    27  H    3.793323   5.397170   5.321270   3.583295   5.217038
    28  H    4.954940   6.430539   5.271137   5.236263   6.026317
    29  H    4.247519   5.237225   4.829353   4.668797   5.838778
                   11         12         13         14         15
    11  H    0.000000
    12  H    3.738762   0.000000
    13  H    3.812115   1.769912   0.000000
    14  H    4.253473   1.779341   1.785933   0.000000
    15  H    3.122851   2.837995   3.847126   2.913028   0.000000
    16  H    3.570374   3.368051   3.622324   2.445046   1.769083
    17  H    2.308177   3.909779   4.257629   3.698273   1.785896
    18  C    2.153125   3.018714   2.933958   4.107871   4.090707
    19  H    2.499912   2.876278   3.397826   4.300810   3.871836
    20  H    2.472359   4.110237   3.877815   5.144511   4.982006
    21  H    3.081986   2.809638   2.362139   3.868901   4.583493
    22  C    3.441743   4.517113   3.164024   4.505521   5.484457
    23  H    3.593045   5.025752   3.857500   5.329374   6.048435
    24  H    4.284852   5.397883   3.899511   5.100476   6.231458
    25  H    3.881378   3.944221   2.403654   3.949768   5.429735
    26  C    2.545980   5.410437   4.627192   5.291212   5.012400
    27  H    3.614489   6.165868   5.156909   5.809791   5.830442
    28  H    2.698496   5.854605   5.156913   6.021306   5.594323
    29  H    2.386329   5.521493   5.013837   5.340261   4.542787
                   16         17         18         19         20
    16  H    0.000000
    17  H    1.797025   0.000000
    18  C    4.658359   4.046876   0.000000
    19  H    4.832441   4.178374   1.095897   0.000000
    20  H    5.520512   4.677628   1.093913   1.765347   0.000000
    21  H    4.963058   4.715055   1.092255   1.773509   1.766425
    22  C    5.015540   4.790965   2.958981   4.042748   3.017366
    23  H    5.826180   5.351932   2.837152   3.915911   2.513195
    24  H    5.498584   5.380161   4.048697   5.131164   4.048639
    25  H    4.987607   5.075254   2.942613   3.942765   3.255273
    26  C    4.543942   3.622049   3.670084   4.535776   3.564813
    27  H    5.084586   4.387367   4.592875   5.527456   4.468984
    28  H    5.402447   4.286729   3.581685   4.422964   3.157022
    29  H    4.103036   2.935875   4.075081   4.755144   4.085627
                   21         22         23         24         25
    21  H    0.000000
    22  C    2.755677   0.000000
    23  H    2.713372   1.094497   0.000000
    24  H    3.824258   1.095583   1.772456   0.000000
    25  H    2.368228   1.091527   1.782898   1.761013   0.000000
    26  C    4.187796   2.515719   2.776987   2.731827   3.479018
    27  H    4.952340   2.740286   3.100783   2.498821   3.737854
    28  H    4.190489   2.788709   2.601553   3.114534   3.804872
    29  H    4.747662   3.467400   3.789961   3.722834   4.320531
                   26         27         28         29
    26  C    0.000000
    27  H    1.095064   0.000000
    28  H    1.096167   1.781189   0.000000
    29  H    1.094092   1.771577   1.783887   0.000000
 Framework group  C1[X(C8H16Cl3FeO)]
 Deg. of freedom    81
                         Standard orientation:                         
 ---------------------------------------------------------------------
 Center     Atomic      Atomic             Coordinates (Angstroms)
 Number     Number       Type             X           Y           Z
 ---------------------------------------------------------------------
      1          8           0       -0.356227   -0.269487   -0.596779
      2          6           0       -1.446982   -1.184589   -0.360994
      3          6           0       -2.728440   -0.148621   -0.276490
      4          6           0       -1.986883    1.164026   -0.241761
      5          6           0       -1.840339    1.967202   -1.471561
      6         26           0        1.379877    0.022014    0.014071
      7         17           0        1.779005    2.042639   -0.827420
      8          6           0       -1.606275    1.786915    1.041871
      9         17           0        2.621064   -1.635757   -0.705987
     10         17           0        1.322030    0.147175    2.231358
     11          1           0       -3.257312   -0.215593   -1.231794
     12          1           0       -2.497993    2.330153    1.398976
     13          1           0       -1.338296    1.056707    1.806438
     14          1           0       -0.794371    2.506544    0.916677
     15          1           0       -2.537380    2.818679   -1.396378
     16          1           0       -0.827404    2.383851   -1.525065
     17          1           0       -2.068333    1.399700   -2.374089
     18          6           0       -3.717443   -0.379215    0.865217
     19          1           0       -4.522718    0.363826    0.844881
     20          1           0       -4.178068   -1.365163    0.753970
     21          1           0       -3.241379   -0.341965    1.847559
     22          6           0       -1.228162   -1.978045    0.918068
     23          1           0       -2.057452   -2.667583    1.104454
     24          1           0       -0.313184   -2.569958    0.805124
     25          1           0       -1.091843   -1.334214    1.788889
     26          6           0       -1.576536   -2.097682   -1.570539
     27          1           0       -0.664439   -2.696177   -1.665664
     28          1           0       -2.432867   -2.774213   -1.467660
     29          1           0       -1.693275   -1.509970   -2.485965
 ---------------------------------------------------------------------
 Rotational constants (GHZ):           0.5772517           0.3593632           0.3197882
   427 basis functions,  1056 primitive gaussians,   461 cartesian basis functions
    77 alpha electrons       72 beta electrons
       nuclear repulsion energy      1657.7381944935 Hartrees.
 NAtoms=   29 NActive=   29 NUniq=   29 SFac= 1.00D+00 NAtFMM=   60 NAOKFM=F Big=F
 Initial guess from the checkpoint file:  "checkpoint.chk"
 B after Tr=     0.000000    0.000000    0.000000
         Rot=    1.000000    0.000000    0.000000    0.000000 Ang=   0.00 deg.
 Initial guess <Sx>= 0.0000 <Sy>= 0.0000 <Sz>= 2.5000 <S**2>= 8.7629 S= 2.5022
 SCF Done:  E(UB3LYP) =  -3034.32647780     A.U. after   13 cycles
            NFock= 13  Conv=0.53D-08     -V/T= 2.0025
 <Sx>= 0.0000 <Sy>= 0.0000 <Sz>= 2.5000 <S**2>= 8.7623 S= 2.5021
 <L.S>= 0.000000000000E+00
 Annihilation of the first spin contaminant:
 S**2 before annihilation     8.7623,   after     8.7500
 1\1\GINC-HOLY7C06101\SP\UB3LYP\Jul-CC-pVDZ\C8H16Cl3Fe1O1(6)\EKWAN\11-F
 eb-2020\0\\#t pop=none jul-cc-pvdz guess=read ub3lyp\\theory_abbreviat
 ion b3lyp\\0,6\O,0,-0.356227,-0.269487,-0.596779\C,0,-1.446982,-1.1845
 89,-0.360994\C,0,-2.72844,-0.148621,-0.27649\C,0,-1.986883,1.164026,-0
 .241761\C,0,-1.840339,1.967202,-1.471561\Fe,0,1.379877,0.022014,0.0140
 71\Cl,0,1.779005,2.042639,-0.82742\C,0,-1.606275,1.786915,1.041871\Cl,
 0,2.621064,-1.635757,-0.705987\Cl,0,1.32203,0.147175,2.231358\H,0,-3.2
 57312,-0.215593,-1.231794\H,0,-2.497993,2.330153,1.398976\H,0,-1.33829
 6,1.056707,1.806438\H,0,-0.794371,2.506544,0.916677\H,0,-2.53738,2.818
 679,-1.396378\H,0,-0.827404,2.383851,-1.525065\H,0,-2.068333,1.3997,-2
 .374089\C,0,-3.717443,-0.379215,0.865217\H,0,-4.522718,0.363826,0.8448
 81\H,0,-4.178068,-1.365163,0.75397\H,0,-3.241379,-0.341965,1.847559\C,
 0,-1.228162,-1.978045,0.918068\H,0,-2.057452,-2.667583,1.104454\H,0,-0
 .313184,-2.569958,0.805124\H,0,-1.091843,-1.334214,1.788889\C,0,-1.576
 536,-2.097682,-1.570539\H,0,-0.664439,-2.696177,-1.665664\H,0,-2.43286
 7,-2.774213,-1.46766\H,0,-1.693275,-1.50997,-2.485965\\Version=ES64L-G
 16RevA.03\HF=-3034.3264778\S2=8.762305\S2-1=0.\S2A=8.750048\RMSD=5.335
 e-09\PG=C01 [X(C8H16Cl3Fe1O1)]\\@


 ONE THORN OF EXPERIENCE IS WORTH A WHOLE WILDERNESS OF
 WARNING....  LOWELL - AMONG MY BOOKS
 Job cpu time:       0 days  0 hours 55 minutes  5.9 seconds.
 Elapsed time:       0 days  0 hours 13 minutes 49.2 seconds.
 File lengths (MBytes):  RWF=    174 Int=      0 D2E=      0 Chk=     13 Scr=      1
 Normal termination of Gaussian 16 at Tue Feb 11 14:12:17 2020.
 Initial command:
 /n/sw/g16_nehalem/g16/l1.exe "/scratch/Gau-359368.inp" -scrdir="/scratch/"
 Entering Link 1 = /n/sw/g16_nehalem/g16/l1.exe PID=    363586.
  
 Copyright (c) 1988,1990,1992,1993,1995,1998,2003,2009,2016,
            Gaussian, Inc.  All Rights Reserved.
  
 This is part of the Gaussian(R) 16 program.  It is based on
 the Gaussian(R) 09 system (copyright 2009, Gaussian, Inc.),
 the Gaussian(R) 03 system (copyright 2003, Gaussian, Inc.),
 the Gaussian(R) 98 system (copyright 1998, Gaussian, Inc.),
 the Gaussian(R) 94 system (copyright 1995, Gaussian, Inc.),
 the Gaussian 92(TM) system (copyright 1992, Gaussian, Inc.),
 the Gaussian 90(TM) system (copyright 1990, Gaussian, Inc.),
 the Gaussian 88(TM) system (copyright 1988, Gaussian, Inc.),
 the Gaussian 86(TM) system (copyright 1986, Carnegie Mellon
 University), and the Gaussian 82(TM) system (copyright 1983,
 Carnegie Mellon University). Gaussian is a federally registered
 trademark of Gaussian, Inc.
  
 This software contains proprietary and confidential information,
 including trade secrets, belonging to Gaussian, Inc.
  
 This software is provided under written license and may be
 used, copied, transmitted, or stored only in accord with that
 written license.
  
 The following legend is applicable only to US Government
 contracts under FAR:
  
                    RESTRICTED RIGHTS LEGEND
  
 Use, reproduction and disclosure by the US Government is
 subject to restrictions as set forth in subparagraphs (a)
 and (c) of the Commercial Computer Software - Restricted
 Rights clause in FAR 52.227-19.
  
 Gaussian, Inc.
 340 Quinnipiac St., Bldg. 40, Wallingford CT 06492
  
  
 ---------------------------------------------------------------
 Warning -- This program may not be used in any manner that
 competes with the business of Gaussian, Inc. or will provide
 assistance to any competitor of Gaussian, Inc.  The licensee
 of this program is prohibited from giving any competitor of
 Gaussian, Inc. access to this program.  By using this program,
 the user acknowledges that Gaussian, Inc. is engaged in the
 business of creating and licensing software in the field of
 computational chemistry and represents and warrants to the
 licensee that it is not a competitor of Gaussian, Inc. and that
 it will not use this program in any manner prohibited above.
 ---------------------------------------------------------------
  

 Cite this work as:
 Gaussian 16, Revision A.03,
 M. J. Frisch, G. W. Trucks, H. B. Schlegel, G. E. Scuseria, 
 M. A. Robb, J. R. Cheeseman, G. Scalmani, V. Barone, 
 G. A. Petersson, H. Nakatsuji, X. Li, M. Caricato, A. V. Marenich, 
 J. Bloino, B. G. Janesko, R. Gomperts, B. Mennucci, H. P. Hratchian, 
 J. V. Ortiz, A. F. Izmaylov, J. L. Sonnenberg, D. Williams-Young, 
 F. Ding, F. Lipparini, F. Egidi, J. Goings, B. Peng, A. Petrone, 
 T. Henderson, D. Ranasinghe, V. G. Zakrzewski, J. Gao, N. Rega, 
 G. Zheng, W. Liang, M. Hada, M. Ehara, K. Toyota, R. Fukuda, 
 J. Hasegawa, M. Ishida, T. Nakajima, Y. Honda, O. Kitao, H. Nakai, 
 T. Vreven, K. Throssell, J. A. Montgomery, Jr., J. E. Peralta, 
 F. Ogliaro, M. J. Bearpark, J. J. Heyd, E. N. Brothers, K. N. Kudin, 
 V. N. Staroverov, T. A. Keith, R. Kobayashi, J. Normand, 
 K. Raghavachari, A. P. Rendell, J. C. Burant, S. S. Iyengar, 
 J. Tomasi, M. Cossi, J. M. Millam, M. Klene, C. Adamo, R. Cammi, 
 J. W. Ochterski, R. L. Martin, K. Morokuma, O. Farkas, 
 J. B. Foresman, and D. J. Fox, Gaussian, Inc., Wallingford CT, 2016.
 
 ******************************************
 Gaussian 16:  ES64L-G16RevA.03 25-Dec-2016
                11-Feb-2020 
 ******************************************
 %chk=checkpoint.chk
 %mem=3GB
 %nprocshared=4
 Will use up to    4 processors via shared memory.
 -------------------------------------------------------------------
 #t pop=none jul-cc-pvdz guess=read ub3lyp empiricaldispersion=gd3bj
 -------------------------------------------------------------------
 ------------------------------
 theory_abbreviation b3lyp_d3bj
 ------------------------------
 Symbolic Z-matrix:
 Charge =  0 Multiplicity = 6
 O                    -0.35623  -0.26949  -0.59678 
 C                    -1.44698  -1.18459  -0.36099 
 C                    -2.72844  -0.14862  -0.27649 
 C                    -1.98688   1.16403  -0.24176 
 C                    -1.84034   1.9672   -1.47156 
 Fe                    1.37988   0.02201   0.01407 
 Cl                    1.77901   2.04264  -0.82742 
 C                    -1.60628   1.78692   1.04187 
 Cl                    2.62106  -1.63576  -0.70599 
 Cl                    1.32203   0.14718   2.23136 
 H                    -3.25731  -0.21559  -1.23179 
 H                    -2.49799   2.33015   1.39898 
 H                    -1.3383    1.05671   1.80644 
 H                    -0.79437   2.50654   0.91668 
 H                    -2.53738   2.81868  -1.39638 
 H                    -0.8274    2.38385  -1.52507 
 H                    -2.06833   1.3997   -2.37409 
 C                    -3.71744  -0.37922   0.86522 
 H                    -4.52272   0.36383   0.84488 
 H                    -4.17807  -1.36516   0.75397 
 H                    -3.24138  -0.34197   1.84756 
 C                    -1.22816  -1.97805   0.91807 
 H                    -2.05745  -2.66758   1.10445 
 H                    -0.31318  -2.56996   0.80512 
 H                    -1.09184  -1.33421   1.78889 
 C                    -1.57654  -2.09768  -1.57054 
 H                    -0.66444  -2.69618  -1.66566 
 H                    -2.43287  -2.77421  -1.46766 
 H                    -1.69328  -1.50997  -2.48597 
 
                    Distance matrix (angstroms):
                    1          2          3          4          5
     1  O    0.000000
     2  C    1.443175   0.000000
     3  C    2.396787   1.650002   0.000000
     4  C    2.200008   2.412820   1.508030   0.000000
     5  C    2.823227   3.364799   2.587204   1.476135   0.000000
     6  Fe   1.863375   3.096401   4.122112   3.564367   4.044830
     7  Cl   3.155683   4.586888   5.042044   3.911121   3.676991
     8  C    2.911457   3.289869   2.596850   1.476673   2.530737
     9  Cl   3.277634   4.107502   5.568953   5.411790   5.785459
    10  Cl   3.314893   4.020113   4.773165   4.254316   5.198527
    11  H    2.970260   2.230368   1.093982   2.120732   2.613407
    12  H    3.915141   4.068849   3.000769   2.076801   2.967191
    13  H    2.915253   3.119773   2.779191   2.151116   3.438943
    14  H    3.192001   3.960152   3.494878   2.136918   2.662446
    15  H    3.864396   4.276347   3.177345   2.091426   1.102965
    16  H    2.850250   3.804300   3.403864   2.116420   1.096584
    17  H    2.979316   3.334243   2.689416   2.146858   1.090228
    18  C    3.667049   2.703186   1.528004   2.569403   3.806537
    19  H    4.454112   3.648544   2.177041   2.872555   3.889971
    20  H    4.198988   2.955433   2.154819   3.491356   4.639248
    21  H    3.782082   2.967757   2.193644   2.864791   4.279220
    22  C    2.444218   1.521004   2.650395   3.434162   4.652963
    23  H    3.396943   2.172437   2.949983   4.061835   5.306998
    24  H    2.694318   2.136487   3.586952   4.223727   5.301068
    25  H    2.714072   2.184149   2.889614   3.341532   4.700014
    26  C    2.404092   1.521027   2.607735   3.545811   4.074637
    27  H    2.669519   2.144629   3.560891   4.321750   4.813265
    28  H    3.368163   2.173381   2.898272   4.148669   4.778297
    29  H    2.625932   2.163801   2.794032   3.503272   3.625103
                    6          7          8          9         10
     6  Fe   0.000000
     7  Cl   2.224935   0.000000
     8  C    3.617783   3.875534   0.000000
     9  Cl   2.192540   3.775501   5.713150   0.000000
    10  Cl   2.221570   3.627359   3.560702   3.673463   0.000000
    11  H    4.807511   5.534223   3.450437   6.070308   5.752860
    12  H    4.720524   4.830343   1.103536   6.809116   4.477815
    13  H    3.416377   4.198432   1.090678   5.407233   2.843438
    14  H    3.422710   3.143143   1.092121   5.608644   3.431350
    15  H    5.015536   4.422344   2.806519   6.850415   5.932322
    16  H    3.580405   2.719651   2.748114   5.359111   4.871704
    17  H    4.414916   4.196137   3.468748   5.829838   5.854359
    18  C    5.183445   6.240299   3.029910   6.650132   5.247830
    19  H    5.970570   6.732512   3.251096   7.578730   6.010851
    20  H    5.776025   7.042771   4.078309   6.959374   5.892446
    21  H    4.984994   6.168152   2.802647   6.524012   4.605569
    22  C    3.408711   5.315607   3.785924   4.191808   3.569982
    23  H    4.498677   6.374695   4.477726   5.121608   4.540228
    24  H    3.195393   5.321513   4.550876   3.430160   3.477194
    25  H    3.331476   5.146841   3.250250   4.483415   2.866544
    26  C    3.967931   5.380905   4.681417   4.310530   5.281618
    27  H    3.793323   5.397170   5.321270   3.583295   5.217038
    28  H    4.954940   6.430539   5.271137   5.236263   6.026317
    29  H    4.247519   5.237225   4.829353   4.668797   5.838778
                   11         12         13         14         15
    11  H    0.000000
    12  H    3.738762   0.000000
    13  H    3.812115   1.769912   0.000000
    14  H    4.253473   1.779341   1.785933   0.000000
    15  H    3.122851   2.837995   3.847126   2.913028   0.000000
    16  H    3.570374   3.368051   3.622324   2.445046   1.769083
    17  H    2.308177   3.909779   4.257629   3.698273   1.785896
    18  C    2.153125   3.018714   2.933958   4.107871   4.090707
    19  H    2.499912   2.876278   3.397826   4.300810   3.871836
    20  H    2.472359   4.110237   3.877815   5.144511   4.982006
    21  H    3.081986   2.809638   2.362139   3.868901   4.583493
    22  C    3.441743   4.517113   3.164024   4.505521   5.484457
    23  H    3.593045   5.025752   3.857500   5.329374   6.048435
    24  H    4.284852   5.397883   3.899511   5.100476   6.231458
    25  H    3.881378   3.944221   2.403654   3.949768   5.429735
    26  C    2.545980   5.410437   4.627192   5.291212   5.012400
    27  H    3.614489   6.165868   5.156909   5.809791   5.830442
    28  H    2.698496   5.854605   5.156913   6.021306   5.594323
    29  H    2.386329   5.521493   5.013837   5.340261   4.542787
                   16         17         18         19         20
    16  H    0.000000
    17  H    1.797025   0.000000
    18  C    4.658359   4.046876   0.000000
    19  H    4.832441   4.178374   1.095897   0.000000
    20  H    5.520512   4.677628   1.093913   1.765347   0.000000
    21  H    4.963058   4.715055   1.092255   1.773509   1.766425
    22  C    5.015540   4.790965   2.958981   4.042748   3.017366
    23  H    5.826180   5.351932   2.837152   3.915911   2.513195
    24  H    5.498584   5.380161   4.048697   5.131164   4.048639
    25  H    4.987607   5.075254   2.942613   3.942765   3.255273
    26  C    4.543942   3.622049   3.670084   4.535776   3.564813
    27  H    5.084586   4.387367   4.592875   5.527456   4.468984
    28  H    5.402447   4.286729   3.581685   4.422964   3.157022
    29  H    4.103036   2.935875   4.075081   4.755144   4.085627
                   21         22         23         24         25
    21  H    0.000000
    22  C    2.755677   0.000000
    23  H    2.713372   1.094497   0.000000
    24  H    3.824258   1.095583   1.772456   0.000000
    25  H    2.368228   1.091527   1.782898   1.761013   0.000000
    26  C    4.187796   2.515719   2.776987   2.731827   3.479018
    27  H    4.952340   2.740286   3.100783   2.498821   3.737854
    28  H    4.190489   2.788709   2.601553   3.114534   3.804872
    29  H    4.747662   3.467400   3.789961   3.722834   4.320531
                   26         27         28         29
    26  C    0.000000
    27  H    1.095064   0.000000
    28  H    1.096167   1.781189   0.000000
    29  H    1.094092   1.771577   1.783887   0.000000
 Framework group  C1[X(C8H16Cl3FeO)]
 Deg. of freedom    81
                         Standard orientation:                         
 ---------------------------------------------------------------------
 Center     Atomic      Atomic             Coordinates (Angstroms)
 Number     Number       Type             X           Y           Z
 ---------------------------------------------------------------------
      1          8           0       -0.356227   -0.269487   -0.596779
      2          6           0       -1.446982   -1.184589   -0.360994
      3          6           0       -2.728440   -0.148621   -0.276490
      4          6           0       -1.986883    1.164026   -0.241761
      5          6           0       -1.840339    1.967202   -1.471561
      6         26           0        1.379877    0.022014    0.014071
      7         17           0        1.779005    2.042639   -0.827420
      8          6           0       -1.606275    1.786915    1.041871
      9         17           0        2.621064   -1.635757   -0.705987
     10         17           0        1.322030    0.147175    2.231358
     11          1           0       -3.257312   -0.215593   -1.231794
     12          1           0       -2.497993    2.330153    1.398976
     13          1           0       -1.338296    1.056707    1.806438
     14          1           0       -0.794371    2.506544    0.916677
     15          1           0       -2.537380    2.818679   -1.396378
     16          1           0       -0.827404    2.383851   -1.525065
     17          1           0       -2.068333    1.399700   -2.374089
     18          6           0       -3.717443   -0.379215    0.865217
     19          1           0       -4.522718    0.363826    0.844881
     20          1           0       -4.178068   -1.365163    0.753970
     21          1           0       -3.241379   -0.341965    1.847559
     22          6           0       -1.228162   -1.978045    0.918068
     23          1           0       -2.057452   -2.667583    1.104454
     24          1           0       -0.313184   -2.569958    0.805124
     25          1           0       -1.091843   -1.334214    1.788889
     26          6           0       -1.576536   -2.097682   -1.570539
     27          1           0       -0.664439   -2.696177   -1.665664
     28          1           0       -2.432867   -2.774213   -1.467660
     29          1           0       -1.693275   -1.509970   -2.485965
 ---------------------------------------------------------------------
 Rotational constants (GHZ):           0.5772517           0.3593632           0.3197882
   427 basis functions,  1056 primitive gaussians,   461 cartesian basis functions
    77 alpha electrons       72 beta electrons
       nuclear repulsion energy      1657.7381944935 Hartrees.
 NAtoms=   29 NActive=   29 NUniq=   29 SFac= 1.00D+00 NAtFMM=   60 NAOKFM=F Big=F
 Nuclear repulsion after empirical dispersion term =     1657.6694092253 Hartrees.
 Initial guess from the checkpoint file:  "checkpoint.chk"
 B after Tr=     0.000000    0.000000    0.000000
         Rot=    1.000000    0.000000    0.000000    0.000000 Ang=   0.00 deg.
 Initial guess <Sx>= 0.0000 <Sy>= 0.0000 <Sz>= 2.5000 <S**2>= 8.7623 S= 2.5021
 SCF Done:  E(UB3LYP) =  -3034.39526307     A.U. after    1 cycles
            NFock=  1  Conv=0.37D-08     -V/T= 2.0025
 <Sx>= 0.0000 <Sy>= 0.0000 <Sz>= 2.5000 <S**2>= 8.7623 S= 2.5021
 <L.S>= 0.000000000000E+00
 Annihilation of the first spin contaminant:
 S**2 before annihilation     8.7623,   after     8.7500
 1\1\GINC-HOLY7C06101\SP\UB3LYP\Jul-CC-pVDZ\C8H16Cl3Fe1O1(6)\EKWAN\11-F
 eb-2020\0\\#t pop=none jul-cc-pvdz guess=read ub3lyp empiricaldispersi
 on=gd3bj\\theory_abbreviation b3lyp_d3bj\\0,6\O,0,-0.356227,-0.269487,
 -0.596779\C,0,-1.446982,-1.184589,-0.360994\C,0,-2.72844,-0.148621,-0.
 27649\C,0,-1.986883,1.164026,-0.241761\C,0,-1.840339,1.967202,-1.47156
 1\Fe,0,1.379877,0.022014,0.014071\Cl,0,1.779005,2.042639,-0.82742\C,0,
 -1.606275,1.786915,1.041871\Cl,0,2.621064,-1.635757,-0.705987\Cl,0,1.3
 2203,0.147175,2.231358\H,0,-3.257312,-0.215593,-1.231794\H,0,-2.497993
 ,2.330153,1.398976\H,0,-1.338296,1.056707,1.806438\H,0,-0.794371,2.506
 544,0.916677\H,0,-2.53738,2.818679,-1.396378\H,0,-0.827404,2.383851,-1
 .525065\H,0,-2.068333,1.3997,-2.374089\C,0,-3.717443,-0.379215,0.86521
 7\H,0,-4.522718,0.363826,0.844881\H,0,-4.178068,-1.365163,0.75397\H,0,
 -3.241379,-0.341965,1.847559\C,0,-1.228162,-1.978045,0.918068\H,0,-2.0
 57452,-2.667583,1.104454\H,0,-0.313184,-2.569958,0.805124\H,0,-1.09184
 3,-1.334214,1.788889\C,0,-1.576536,-2.097682,-1.570539\H,0,-0.664439,-
 2.696177,-1.665664\H,0,-2.432867,-2.774213,-1.46766\H,0,-1.693275,-1.5
 0997,-2.485965\\Version=ES64L-G16RevA.03\HF=-3034.3952631\S2=8.762305\
 S2-1=0.\S2A=8.750048\RMSD=3.711e-09\PG=C01 [X(C8H16Cl3Fe1O1)]\\@


 KNIGHT- SIRE, I'VE JUST RETURNED FROM THE FRONT
 KING-   HOW GOES THE BATTLE                    
 KNIGHT- THE SITUATION IS QUITE FLUID           
 KING-   WHAT DOES *THAT* MEAN                  
 KNIGHT- WE'RE UP THE CREEK                     
                THE WIZARD OF ID                
 Job cpu time:       0 days  0 hours  4 minutes 36.7 seconds.
 Elapsed time:       0 days  0 hours  1 minutes  9.8 seconds.
 File lengths (MBytes):  RWF=    170 Int=      0 D2E=      0 Chk=     13 Scr=      1
 Normal termination of Gaussian 16 at Tue Feb 11 14:13:27 2020.
 Initial command:
 /n/sw/g16_nehalem/g16/l1.exe "/scratch/Gau-359368.inp" -scrdir="/scratch/"
 Entering Link 1 = /n/sw/g16_nehalem/g16/l1.exe PID=    363868.
  
 Copyright (c) 1988,1990,1992,1993,1995,1998,2003,2009,2016,
            Gaussian, Inc.  All Rights Reserved.
  
 This is part of the Gaussian(R) 16 program.  It is based on
 the Gaussian(R) 09 system (copyright 2009, Gaussian, Inc.),
 the Gaussian(R) 03 system (copyright 2003, Gaussian, Inc.),
 the Gaussian(R) 98 system (copyright 1998, Gaussian, Inc.),
 the Gaussian(R) 94 system (copyright 1995, Gaussian, Inc.),
 the Gaussian 92(TM) system (copyright 1992, Gaussian, Inc.),
 the Gaussian 90(TM) system (copyright 1990, Gaussian, Inc.),
 the Gaussian 88(TM) system (copyright 1988, Gaussian, Inc.),
 the Gaussian 86(TM) system (copyright 1986, Carnegie Mellon
 University), and the Gaussian 82(TM) system (copyright 1983,
 Carnegie Mellon University). Gaussian is a federally registered
 trademark of Gaussian, Inc.
  
 This software contains proprietary and confidential information,
 including trade secrets, belonging to Gaussian, Inc.
  
 This software is provided under written license and may be
 used, copied, transmitted, or stored only in accord with that
 written license.
  
 The following legend is applicable only to US Government
 contracts under FAR:
  
                    RESTRICTED RIGHTS LEGEND
  
 Use, reproduction and disclosure by the US Government is
 subject to restrictions as set forth in subparagraphs (a)
 and (c) of the Commercial Computer Software - Restricted
 Rights clause in FAR 52.227-19.
  
 Gaussian, Inc.
 340 Quinnipiac St., Bldg. 40, Wallingford CT 06492
  
  
 ---------------------------------------------------------------
 Warning -- This program may not be used in any manner that
 competes with the business of Gaussian, Inc. or will provide
 assistance to any competitor of Gaussian, Inc.  The licensee
 of this program is prohibited from giving any competitor of
 Gaussian, Inc. access to this program.  By using this program,
 the user acknowledges that Gaussian, Inc. is engaged in the
 business of creating and licensing software in the field of
 computational chemistry and represents and warrants to the
 licensee that it is not a competitor of Gaussian, Inc. and that
 it will not use this program in any manner prohibited above.
 ---------------------------------------------------------------
  

 Cite this work as:
 Gaussian 16, Revision A.03,
 M. J. Frisch, G. W. Trucks, H. B. Schlegel, G. E. Scuseria, 
 M. A. Robb, J. R. Cheeseman, G. Scalmani, V. Barone, 
 G. A. Petersson, H. Nakatsuji, X. Li, M. Caricato, A. V. Marenich, 
 J. Bloino, B. G. Janesko, R. Gomperts, B. Mennucci, H. P. Hratchian, 
 J. V. Ortiz, A. F. Izmaylov, J. L. Sonnenberg, D. Williams-Young, 
 F. Ding, F. Lipparini, F. Egidi, J. Goings, B. Peng, A. Petrone, 
 T. Henderson, D. Ranasinghe, V. G. Zakrzewski, J. Gao, N. Rega, 
 G. Zheng, W. Liang, M. Hada, M. Ehara, K. Toyota, R. Fukuda, 
 J. Hasegawa, M. Ishida, T. Nakajima, Y. Honda, O. Kitao, H. Nakai, 
 T. Vreven, K. Throssell, J. A. Montgomery, Jr., J. E. Peralta, 
 F. Ogliaro, M. J. Bearpark, J. J. Heyd, E. N. Brothers, K. N. Kudin, 
 V. N. Staroverov, T. A. Keith, R. Kobayashi, J. Normand, 
 K. Raghavachari, A. P. Rendell, J. C. Burant, S. S. Iyengar, 
 J. Tomasi, M. Cossi, J. M. Millam, M. Klene, C. Adamo, R. Cammi, 
 J. W. Ochterski, R. L. Martin, K. Morokuma, O. Farkas, 
 J. B. Foresman, and D. J. Fox, Gaussian, Inc., Wallingford CT, 2016.
 
 ******************************************
 Gaussian 16:  ES64L-G16RevA.03 25-Dec-2016
                11-Feb-2020 
 ******************************************
 %chk=checkpoint.chk
 %mem=3GB
 %nprocshared=4
 Will use up to    4 processors via shared memory.
 ----------------------------------------
 #t pop=none jul-cc-pvdz guess=read ub97d
 ----------------------------------------
 ------------------------
 theory_abbreviation b97d
 ------------------------
 Symbolic Z-matrix:
 Charge =  0 Multiplicity = 6
 O                    -0.35623  -0.26949  -0.59678 
 C                    -1.44698  -1.18459  -0.36099 
 C                    -2.72844  -0.14862  -0.27649 
 C                    -1.98688   1.16403  -0.24176 
 C                    -1.84034   1.9672   -1.47156 
 Fe                    1.37988   0.02201   0.01407 
 Cl                    1.77901   2.04264  -0.82742 
 C                    -1.60628   1.78692   1.04187 
 Cl                    2.62106  -1.63576  -0.70599 
 Cl                    1.32203   0.14718   2.23136 
 H                    -3.25731  -0.21559  -1.23179 
 H                    -2.49799   2.33015   1.39898 
 H                    -1.3383    1.05671   1.80644 
 H                    -0.79437   2.50654   0.91668 
 H                    -2.53738   2.81868  -1.39638 
 H                    -0.8274    2.38385  -1.52507 
 H                    -2.06833   1.3997   -2.37409 
 C                    -3.71744  -0.37922   0.86522 
 H                    -4.52272   0.36383   0.84488 
 H                    -4.17807  -1.36516   0.75397 
 H                    -3.24138  -0.34197   1.84756 
 C                    -1.22816  -1.97805   0.91807 
 H                    -2.05745  -2.66758   1.10445 
 H                    -0.31318  -2.56996   0.80512 
 H                    -1.09184  -1.33421   1.78889 
 C                    -1.57654  -2.09768  -1.57054 
 H                    -0.66444  -2.69618  -1.66566 
 H                    -2.43287  -2.77421  -1.46766 
 H                    -1.69328  -1.50997  -2.48597 
 
                    Distance matrix (angstroms):
                    1          2          3          4          5
     1  O    0.000000
     2  C    1.443175   0.000000
     3  C    2.396787   1.650002   0.000000
     4  C    2.200008   2.412820   1.508030   0.000000
     5  C    2.823227   3.364799   2.587204   1.476135   0.000000
     6  Fe   1.863375   3.096401   4.122112   3.564367   4.044830
     7  Cl   3.155683   4.586888   5.042044   3.911121   3.676991
     8  C    2.911457   3.289869   2.596850   1.476673   2.530737
     9  Cl   3.277634   4.107502   5.568953   5.411790   5.785459
    10  Cl   3.314893   4.020113   4.773165   4.254316   5.198527
    11  H    2.970260   2.230368   1.093982   2.120732   2.613407
    12  H    3.915141   4.068849   3.000769   2.076801   2.967191
    13  H    2.915253   3.119773   2.779191   2.151116   3.438943
    14  H    3.192001   3.960152   3.494878   2.136918   2.662446
    15  H    3.864396   4.276347   3.177345   2.091426   1.102965
    16  H    2.850250   3.804300   3.403864   2.116420   1.096584
    17  H    2.979316   3.334243   2.689416   2.146858   1.090228
    18  C    3.667049   2.703186   1.528004   2.569403   3.806537
    19  H    4.454112   3.648544   2.177041   2.872555   3.889971
    20  H    4.198988   2.955433   2.154819   3.491356   4.639248
    21  H    3.782082   2.967757   2.193644   2.864791   4.279220
    22  C    2.444218   1.521004   2.650395   3.434162   4.652963
    23  H    3.396943   2.172437   2.949983   4.061835   5.306998
    24  H    2.694318   2.136487   3.586952   4.223727   5.301068
    25  H    2.714072   2.184149   2.889614   3.341532   4.700014
    26  C    2.404092   1.521027   2.607735   3.545811   4.074637
    27  H    2.669519   2.144629   3.560891   4.321750   4.813265
    28  H    3.368163   2.173381   2.898272   4.148669   4.778297
    29  H    2.625932   2.163801   2.794032   3.503272   3.625103
                    6          7          8          9         10
     6  Fe   0.000000
     7  Cl   2.224935   0.000000
     8  C    3.617783   3.875534   0.000000
     9  Cl   2.192540   3.775501   5.713150   0.000000
    10  Cl   2.221570   3.627359   3.560702   3.673463   0.000000
    11  H    4.807511   5.534223   3.450437   6.070308   5.752860
    12  H    4.720524   4.830343   1.103536   6.809116   4.477815
    13  H    3.416377   4.198432   1.090678   5.407233   2.843438
    14  H    3.422710   3.143143   1.092121   5.608644   3.431350
    15  H    5.015536   4.422344   2.806519   6.850415   5.932322
    16  H    3.580405   2.719651   2.748114   5.359111   4.871704
    17  H    4.414916   4.196137   3.468748   5.829838   5.854359
    18  C    5.183445   6.240299   3.029910   6.650132   5.247830
    19  H    5.970570   6.732512   3.251096   7.578730   6.010851
    20  H    5.776025   7.042771   4.078309   6.959374   5.892446
    21  H    4.984994   6.168152   2.802647   6.524012   4.605569
    22  C    3.408711   5.315607   3.785924   4.191808   3.569982
    23  H    4.498677   6.374695   4.477726   5.121608   4.540228
    24  H    3.195393   5.321513   4.550876   3.430160   3.477194
    25  H    3.331476   5.146841   3.250250   4.483415   2.866544
    26  C    3.967931   5.380905   4.681417   4.310530   5.281618
    27  H    3.793323   5.397170   5.321270   3.583295   5.217038
    28  H    4.954940   6.430539   5.271137   5.236263   6.026317
    29  H    4.247519   5.237225   4.829353   4.668797   5.838778
                   11         12         13         14         15
    11  H    0.000000
    12  H    3.738762   0.000000
    13  H    3.812115   1.769912   0.000000
    14  H    4.253473   1.779341   1.785933   0.000000
    15  H    3.122851   2.837995   3.847126   2.913028   0.000000
    16  H    3.570374   3.368051   3.622324   2.445046   1.769083
    17  H    2.308177   3.909779   4.257629   3.698273   1.785896
    18  C    2.153125   3.018714   2.933958   4.107871   4.090707
    19  H    2.499912   2.876278   3.397826   4.300810   3.871836
    20  H    2.472359   4.110237   3.877815   5.144511   4.982006
    21  H    3.081986   2.809638   2.362139   3.868901   4.583493
    22  C    3.441743   4.517113   3.164024   4.505521   5.484457
    23  H    3.593045   5.025752   3.857500   5.329374   6.048435
    24  H    4.284852   5.397883   3.899511   5.100476   6.231458
    25  H    3.881378   3.944221   2.403654   3.949768   5.429735
    26  C    2.545980   5.410437   4.627192   5.291212   5.012400
    27  H    3.614489   6.165868   5.156909   5.809791   5.830442
    28  H    2.698496   5.854605   5.156913   6.021306   5.594323
    29  H    2.386329   5.521493   5.013837   5.340261   4.542787
                   16         17         18         19         20
    16  H    0.000000
    17  H    1.797025   0.000000
    18  C    4.658359   4.046876   0.000000
    19  H    4.832441   4.178374   1.095897   0.000000
    20  H    5.520512   4.677628   1.093913   1.765347   0.000000
    21  H    4.963058   4.715055   1.092255   1.773509   1.766425
[...]
   427 basis functions,  1056 primitive gaussians,   461 cartesian basis functions
    77 alpha electrons       72 beta electrons
       nuclear repulsion energy      1657.7381944935 Hartrees.
 NAtoms=   29 NActive=   29 NUniq=   29 SFac= 1.00D+00 NAtFMM=   60 NAOKFM=F Big=F
 Nuclear repulsion after empirical dispersion term =     1657.7357826411 Hartrees.
 Initial guess from the checkpoint file:  "checkpoint.chk"
 B after Tr=     0.000000    0.000000    0.000000
         Rot=    1.000000    0.000000    0.000000    0.000000 Ang=   0.00 deg.
 Initial guess <Sx>= 0.0000 <Sy>= 0.0000 <Sz>= 2.5000 <S**2>= 8.7620 S= 2.5020
 SCF Done:  E(UM06L) =  -3034.19115666     A.U. after   17 cycles
            NFock= 17  Conv=0.68D-08     -V/T= 2.0021
 <Sx>= 0.0000 <Sy>= 0.0000 <Sz>= 2.5000 <S**2>= 8.7626 S= 2.5021
 <L.S>= 0.000000000000E+00
 Annihilation of the first spin contaminant:
 S**2 before annihilation     8.7626,   after     8.7501
 1\1\GINC-HOLY7C06101\SP\UM06L\Jul-CC-pVDZ\C8H16Cl3Fe1O1(6)\EKWAN\11-Fe
 b-2020\0\\#t pop=none jul-cc-pvdz guess=read um06l empiricaldispersion
 =gd3\\theory_abbreviation m06l_d3\\0,6\O,0,-0.356227,-0.269487,-0.5967
 79\C,0,-1.446982,-1.184589,-0.360994\C,0,-2.72844,-0.148621,-0.27649\C
 ,0,-1.986883,1.164026,-0.241761\C,0,-1.840339,1.967202,-1.471561\Fe,0,
 1.379877,0.022014,0.014071\Cl,0,1.779005,2.042639,-0.82742\C,0,-1.6062
 75,1.786915,1.041871\Cl,0,2.621064,-1.635757,-0.705987\Cl,0,1.32203,0.
 147175,2.231358\H,0,-3.257312,-0.215593,-1.231794\H,0,-2.497993,2.3301
 53,1.398976\H,0,-1.338296,1.056707,1.806438\H,0,-0.794371,2.506544,0.9
 16677\H,0,-2.53738,2.818679,-1.396378\H,0,-0.827404,2.383851,-1.525065
 \H,0,-2.068333,1.3997,-2.374089\C,0,-3.717443,-0.379215,0.865217\H,0,-
 4.522718,0.363826,0.844881\H,0,-4.178068,-1.365163,0.75397\H,0,-3.2413
 79,-0.341965,1.847559\C,0,-1.228162,-1.978045,0.918068\H,0,-2.057452,-
 2.667583,1.104454\H,0,-0.313184,-2.569958,0.805124\H,0,-1.091843,-1.33
 4214,1.788889\C,0,-1.576536,-2.097682,-1.570539\H,0,-0.664439,-2.69617
 7,-1.665664\H,0,-2.432867,-2.774213,-1.46766\H,0,-1.693275,-1.50997,-2
 .485965\\Version=ES64L-G16RevA.03\HF=-3034.1911567\S2=8.762617\S2-1=0.
 \S2A=8.750051\RMSD=6.827e-09\PG=C01 [X(C8H16Cl3Fe1O1)]\\@


 WHEN YOU REACH FOR THE STARS, YOU MAY NOT QUITE GET ONE,
 BUT YOU WON'T COME UP WITH A HANDFUL OF MUD, EITHER.

                                         -- LEO BURNETT (AD AGENCY HEAD)
 Job cpu time:       0 days  1 hours 14 minutes 54.4 seconds.
 Elapsed time:       0 days  0 hours 18 minutes 47.9 seconds.
 File lengths (MBytes):  RWF=    174 Int=      0 D2E=      0 Chk=     13 Scr=      1
 Normal termination of Gaussian 16 at Tue Feb 11 23:18:13 2020.
 Initial command:
 /n/sw/g16_nehalem/g16/l1.exe "/scratch/Gau-359368.inp" -scrdir="/scratch/"
 Entering Link 1 = /n/sw/g16_nehalem/g16/l1.exe PID=    409450.
  
 Copyright (c) 1988,1990,1992,1993,1995,1998,2003,2009,2016,
            Gaussian, Inc.  All Rights Reserved.
  
 This is part of the Gaussian(R) 16 program.  It is based on
 the Gaussian(R) 09 system (copyright 2009, Gaussian, Inc.),
 the Gaussian(R) 03 system (copyright 2003, Gaussian, Inc.),
 the Gaussian(R) 98 system (copyright 1998, Gaussian, Inc.),
 the Gaussian(R) 94 system (copyright 1995, Gaussian, Inc.),
 the Gaussian 92(TM) system (copyright 1992, Gaussian, Inc.),
 the Gaussian 90(TM) system (copyright 1990, Gaussian, Inc.),
 the Gaussian 88(TM) system (copyright 1988, Gaussian, Inc.),
 the Gaussian 86(TM) system (copyright 1986, Carnegie Mellon
 University), and the Gaussian 82(TM) system (copyright 1983,
 Carnegie Mellon University). Gaussian is a federally registered
 trademark of Gaussian, Inc.
  
 This software contains proprietary and confidential information,
 including trade secrets, belonging to Gaussian, Inc.
  
 This software is provided under written license and may be
 used, copied, transmitted, or stored only in accord with that
 written license.
  
 The following legend is applicable only to US Government
 contracts under FAR:
  
                    RESTRICTED RIGHTS LEGEND
  
 Use, reproduction and disclosure by the US Government is
 subject to restrictions as set forth in subparagraphs (a)
 and (c) of the Commercial Computer Software - Restricted
 Rights clause in FAR 52.227-19.
  
 Gaussian, Inc.
 340 Quinnipiac St., Bldg. 40, Wallingford CT 06492
  
  
 ---------------------------------------------------------------
 Warning -- This program may not be used in any manner that
 competes with the business of Gaussian, Inc. or will provide
 assistance to any competitor of Gaussian, Inc.  The licensee
 of this program is prohibited from giving any competitor of
 Gaussian, Inc. access to this program.  By using this program,
 the user acknowledges that Gaussian, Inc. is engaged in the
 business of creating and licensing software in the field of
 computational chemistry and represents and warrants to the
 licensee that it is not a competitor of Gaussian, Inc. and that
 it will not use this program in any manner prohibited above.
 ---------------------------------------------------------------
  

 Cite this work as:
 Gaussian 16, Revision A.03,
 M. J. Frisch, G. W. Trucks, H. B. Schlegel, G. E. Scuseria, 
 M. A. Robb, J. R. Cheeseman, G. Scalmani, V. Barone, 
 G. A. Petersson, H. Nakatsuji, X. Li, M. Caricato, A. V. Marenich, 
 J. Bloino, B. G. Janesko, R. Gomperts, B. Mennucci, H. P. Hratchian, 
 J. V. Ortiz, A. F. Izmaylov, J. L. Sonnenberg, D. Williams-Young, 
 F. Ding, F. Lipparini, F. Egidi, J. Goings, B. Peng, A. Petrone, 
 T. Henderson, D. Ranasinghe, V. G. Zakrzewski, J. Gao, N. Rega, 
 G. Zheng, W. Liang, M. Hada, M. Ehara, K. Toyota, R. Fukuda, 
 J. Hasegawa, M. Ishida, T. Nakajima, Y. Honda, O. Kitao, H. Nakai, 
 T. Vreven, K. Throssell, J. A. Montgomery, Jr., J. E. Peralta, 
 F. Ogliaro, M. J. Bearpark, J. J. Heyd, E. N. Brothers, K. N. Kudin, 
 V. N. Staroverov, T. A. Keith, R. Kobayashi, J. Normand, 
 K. Raghavachari, A. P. Rendell, J. C. Burant, S. S. Iyengar, 
 J. Tomasi, M. Cossi, J. M. Millam, M. Klene, C. Adamo, R. Cammi, 
 J. W. Ochterski, R. L. Martin, K. Morokuma, O. Farkas, 
 J. B. Foresman, and D. J. Fox, Gaussian, Inc., Wallingford CT, 2016.
 
 ******************************************
 Gaussian 16:  ES64L-G16RevA.03 25-Dec-2016
                11-Feb-2020 
 ******************************************
 %chk=checkpoint.chk
 %mem=3GB
 %nprocshared=4
 Will use up to    4 processors via shared memory.
 -------------------------------------------------------------------
 #t pop=none jul-cc-pvdz guess=read ub97d3 empiricaldispersion=gd3bj
 -------------------------------------------------------------------
 ------------------------------
 theory_abbreviation b97d3_d3bj
 ------------------------------
 Symbolic Z-matrix:
 Charge =  0 Multiplicity = 6
 O                    -0.35623  -0.26949  -0.59678 
 C                    -1.44698  -1.18459  -0.36099 
 C                    -2.72844  -0.14862  -0.27649 
 C                    -1.98688   1.16403  -0.24176 
 C                    -1.84034   1.9672   -1.47156 
 Fe                    1.37988   0.02201   0.01407 
 Cl                    1.77901   2.04264  -0.82742 
 C                    -1.60628   1.78692   1.04187 
 Cl                    2.62106  -1.63576  -0.70599 
 Cl                    1.32203   0.14718   2.23136 
 H                    -3.25731  -0.21559  -1.23179 
 H                    -2.49799   2.33015   1.39898 
 H                    -1.3383    1.05671   1.80644 
 H                    -0.79437   2.50654   0.91668 
 H                    -2.53738   2.81868  -1.39638 
 H                    -0.8274    2.38385  -1.52507 
 H                    -2.06833   1.3997   -2.37409 
 C                    -3.71744  -0.37922   0.86522 
 H                    -4.52272   0.36383   0.84488 
 H                    -4.17807  -1.36516   0.75397 
 H                    -3.24138  -0.34197   1.84756 
 C                    -1.22816  -1.97805   0.91807 
 H                    -2.05745  -2.66758   1.10445 
 H                    -0.31318  -2.56996   0.80512 
 H                    -1.09184  -1.33421   1.78889 
 C                    -1.57654  -2.09768  -1.57054 
 H                    -0.66444  -2.69618  -1.66566 
 H                    -2.43287  -2.77421  -1.46766 
 H                    -1.69328  -1.50997  -2.48597 
 
                    Distance matrix (angstroms):
                    1          2          3          4          5
     1  O    0.000000
     2  C    1.443175   0.000000
     3  C    2.396787   1.650002   0.000000
     4  C    2.200008   2.412820   1.508030   0.000000
     5  C    2.823227   3.364799   2.587204   1.476135   0.000000
     6  Fe   1.863375   3.096401   4.122112   3.564367   4.044830
     7  Cl   3.155683   4.586888   5.042044   3.911121   3.676991
     8  C    2.911457   3.289869   2.596850   1.476673   2.530737
     9  Cl   3.277634   4.107502   5.568953   5.411790   5.785459
    10  Cl   3.314893   4.020113   4.773165   4.254316   5.198527
    11  H    2.970260   2.230368   1.093982   2.120732   2.613407
    12  H    3.915141   4.068849   3.000769   2.076801   2.967191
    13  H    2.915253   3.119773   2.779191   2.151116   3.438943
    14  H    3.192001   3.960152   3.494878   2.136918   2.662446
    15  H    3.864396   4.276347   3.177345   2.091426   1.102965
    16  H    2.850250   3.804300   3.403864   2.116420   1.096584
    17  H    2.979316   3.334243   2.689416   2.146858   1.090228
    18  C    3.667049   2.703186   1.528004   2.569403   3.806537
    19  H    4.454112   3.648544   2.177041   2.872555   3.889971
    20  H    4.198988   2.955433   2.154819   3.491356   4.639248
    21  H    3.782082   2.967757   2.193644   2.864791   4.279220
    22  C    2.444218   1.521004   2.650395   3.434162   4.652963
    23  H    3.396943   2.172437   2.949983   4.061835   5.306998
    24  H    2.694318   2.136487   3.586952   4.223727   5.301068
    25  H    2.714072   2.184149   2.889614   3.341532   4.700014
    26  C    2.404092   1.521027   2.607735   3.545811   4.074637
    27  H    2.669519   2.144629   3.560891   4.321750   4.813265
    28  H    3.368163   2.173381   2.898272   4.148669   4.778297
    29  H    2.625932   2.163801   2.794032   3.503272   3.625103
                    6          7          8          9         10
     6  Fe   0.000000
     7  Cl   2.224935   0.000000
     8  C    3.617783   3.875534   0.000000
     9  Cl   2.192540   3.775501   5.713150   0.000000
    10  Cl   2.221570   3.627359   3.560702   3.673463   0.000000
    11  H    4.807511   5.534223   3.450437   6.070308   5.752860
    12  H    4.720524   4.830343   1.103536   6.809116   4.477815
    13  H    3.416377   4.198432   1.090678   5.407233   2.843438
    14  H    3.422710   3.143143   1.092121   5.608644   3.431350
    15  H    5.015536   4.422344   2.806519   6.850415   5.932322
    16  H    3.580405   2.719651   2.748114   5.359111   4.871704
    17  H    4.414916   4.196137   3.468748   5.829838   5.854359
    18  C    5.183445   6.240299   3.029910   6.650132   5.247830
    19  H    5.970570   6.732512   3.251096   7.578730   6.010851
    20  H    5.776025   7.042771   4.078309   6.959374   5.892446
    21  H    4.984994   6.168152   2.802647   6.524012   4.605569
    22  C    3.408711   5.315607   3.785924   4.191808   3.569982
    23  H    4.498677   6.374695   4.477726   5.121608   4.540228
    24  H    3.195393   5.321513   4.550876   3.430160   3.477194
    25  H    3.331476   5.146841   3.250250   4.483415   2.866544
    26  C    3.967931   5.380905   4.681417   4.310530   5.281618
    27  H    3.793323   5.397170   5.321270   3.583295   5.217038
    28  H    4.954940   6.430539   5.271137   5.236263   6.026317
    29  H    4.247519   5.237225   4.829353   4.668797   5.838778
                   11         12         13         14         15
    11  H    0.000000
    12  H    3.738762   0.000000
    13  H    3.812115   1.769912   0.000000
    14  H    4.253473   1.779341   1.785933   0.000000
    15  H    3.122851   2.837995   3.847126   2.913028   0.000000
    16  H    3.570374   3.368051   3.622324   2.445046   1.769083
    17  H    2.308177   3.909779   4.257629   3.698273   1.785896
    18  C    2.153125   3.018714   2.933958   4.107871   4.090707
    19  H    2.499912   2.876278   3.397826   4.300810   3.871836
    20  H    2.472359   4.110237   3.877815   5.144511   4.982006
    21  H    3.081986   2.809638   2.362139   3.868901   4.583493
    22  C    3.441743   4.517113   3.164024   4.505521   5.484457
    23  H    3.593045   5.025752   3.857500   5.329374   6.048435
    24  H    4.284852   5.397883   3.899511   5.100476   6.231458
    25  H    3.881378   3.944221   2.403654   3.949768   5.429735
    26  C    2.545980   5.410437   4.627192   5.291212   5.012400
    27  H    3.614489   6.165868   5.156909   5.809791   5.830442
    28  H    2.698496   5.854605   5.156913   6.021306   5.594323
    29  H    2.386329   5.521493   5.013837   5.340261   4.542787
                   16         17         18         19         20
    16  H    0.000000
    17  H    1.797025   0.000000
    18  C    4.658359   4.046876   0.000000
    19  H    4.832441   4.178374   1.095897   0.000000
    20  H    5.520512   4.677628   1.093913   1.765347   0.000000
    21  H    4.963058   4.715055   1.092255   1.773509   1.766425
    22  C    5.015540   4.790965   2.958981   4.042748   3.017366
    23  H    5.826180   5.351932   2.837152   3.915911   2.513195
    24  H    5.498584   5.380161   4.048697   5.131164   4.048639
    25  H    4.987607   5.075254   2.942613   3.942765   3.255273
    26  C    4.543942   3.622049   3.670084   4.535776   3.564813
    27  H    5.084586   4.387367   4.592875   5.527456   4.468984
    28  H    5.402447   4.286729   3.581685   4.422964   3.157022
    29  H    4.103036   2.935875   4.075081   4.755144   4.085627
                   21         22         23         24         25
    21  H    0.000000
    22  C    2.755677   0.000000
    23  H    2.713372   1.094497   0.000000
    24  H    3.824258   1.095583   1.772456   0.000000
    25  H    2.368228   1.091527   1.782898   1.761013   0.000000
    26  C    4.187796   2.515719   2.776987   2.731827   3.479018
    27  H    4.952340   2.740286   3.100783   2.498821   3.737854
    28  H    4.190489   2.788709   2.601553   3.114534   3.804872
    29  H    4.747662   3.467400   3.789961   3.722834   4.320531
                   26         27         28         29
    26  C    0.000000
    27  H    1.095064   0.000000
    28  H    1.096167   1.781189   0.000000
    29  H    1.094092   1.771577   1.783887   0.000000
 Framework group  C1[X(C8H16Cl3FeO)]
 Deg. of freedom    81
                         Standard orientation:                         
 ---------------------------------------------------------------------
 Center     Atomic      Atomic             Coordinates (Angstroms)
 Number     Number       Type             X           Y           Z
 ---------------------------------------------------------------------
      1          8           0       -0.356227   -0.269487   -0.596779
      2          6           0       -1.446982   -1.184589   -0.360994
      3          6           0       -2.728440   -0.148621   -0.276490
      4          6           0       -1.986883    1.164026   -0.241761
      5          6           0       -1.840339    1.967202   -1.471561
      6         26           0        1.379877    0.022014    0.014071
      7         17           0        1.779005    2.042639   -0.827420
      8          6           0       -1.606275    1.786915    1.041871
      9         17           0        2.621064   -1.635757   -0.705987
     10         17           0        1.322030    0.147175    2.231358
     11          1           0       -3.257312   -0.215593   -1.231794
     12          1           0       -2.497993    2.330153    1.398976
     13          1           0       -1.338296    1.056707    1.806438
     14          1           0       -0.794371    2.506544    0.916677
     15          1           0       -2.537380    2.818679   -1.396378
     16          1           0       -0.827404    2.383851   -1.525065
     17          1           0       -2.068333    1.399700   -2.374089
     18          6           0       -3.717443   -0.379215    0.865217
     19          1           0       -4.522718    0.363826    0.844881
     20          1           0       -4.178068   -1.365163    0.753970
     21          1           0       -3.241379   -0.341965    1.847559
     22          6           0       -1.228162   -1.978045    0.918068
     23          1           0       -2.057452   -2.667583    1.104454
     24          1           0       -0.313184   -2.569958    0.805124
     25          1           0       -1.091843   -1.334214    1.788889
     26          6           0       -1.576536   -2.097682   -1.570539
     27          1           0       -0.664439   -2.696177   -1.665664
     28          1           0       -2.432867   -2.774213   -1.467660
     29          1           0       -1.693275   -1.509970   -2.485965
 ---------------------------------------------------------------------
 Rotational constants (GHZ):           0.5772517           0.3593632           0.3197882
   427 basis functions,  1056 primitive gaussians,   461 cartesian basis functions
    77 alpha electrons       72 beta electrons
       nuclear repulsion energy      1657.7381944935 Hartrees.
 NAtoms=   29 NActive=   29 NUniq=   29 SFac= 1.00D+00 NAtFMM=   60 NAOKFM=F Big=F
 Nuclear repulsion after empirical dispersion term =     1657.6375470617 Hartrees.
 Initial guess from the checkpoint file:  "checkpoint.chk"
 B after Tr=     0.000000    0.000000    0.000000
         Rot=    1.000000    0.000000    0.000000    0.000000 Ang=   0.00 deg.
 Initial guess <Sx>= 0.0000 <Sy>= 0.0000 <Sz>= 2.5000 <S**2>= 8.7626 S= 2.5021
 EnCoef did     3 forward-backward iterations
 EnCoef did     3 forward-backward iterations
 SCF Done:  E(UB97D3) =  -3034.61262801     A.U. after   16 cycles
            NFock= 16  Conv=0.32D-08     -V/T= 2.0020
 <Sx>= 0.0000 <Sy>= 0.0000 <Sz>= 2.5000 <S**2>= 8.7611 S= 2.5019
 <L.S>= 0.000000000000E+00
 Annihilation of the first spin contaminant:
 S**2 before annihilation     8.7611,   after     8.7500
 1\1\GINC-HOLY7C06101\SP\UB97D3\Jul-CC-pVDZ\C8H16Cl3Fe1O1(6)\EKWAN\11-F
 eb-2020\0\\#t pop=none jul-cc-pvdz guess=read ub97d3 empiricaldispersi
 on=gd3bj\\theory_abbreviation b97d3_d3bj\\0,6\O,0,-0.356227,-0.269487,
 -0.596779\C,0,-1.446982,-1.184589,-0.360994\C,0,-2.72844,-0.148621,-0.
 27649\C,0,-1.986883,1.164026,-0.241761\C,0,-1.840339,1.967202,-1.47156
 1\Fe,0,1.379877,0.022014,0.014071\Cl,0,1.779005,2.042639,-0.82742\C,0,
 -1.606275,1.786915,1.041871\Cl,0,2.621064,-1.635757,-0.705987\Cl,0,1.3
 2203,0.147175,2.231358\H,0,-3.257312,-0.215593,-1.231794\H,0,-2.497993
 ,2.330153,1.398976\H,0,-1.338296,1.056707,1.806438\H,0,-0.794371,2.506
 544,0.916677\H,0,-2.53738,2.818679,-1.396378\H,0,-0.827404,2.383851,-1
 .525065\H,0,-2.068333,1.3997,-2.374089\C,0,-3.717443,-0.379215,0.86521
 7\H,0,-4.522718,0.363826,0.844881\H,0,-4.178068,-1.365163,0.75397\H,0,
 -3.241379,-0.341965,1.847559\C,0,-1.228162,-1.978045,0.918068\H,0,-2.0
 57452,-2.667583,1.104454\H,0,-0.313184,-2.569958,0.805124\H,0,-1.09184
 3,-1.334214,1.788889\C,0,-1.576536,-2.097682,-1.570539\H,0,-0.664439,-
 2.696177,-1.665664\H,0,-2.432867,-2.774213,-1.46766\H,0,-1.693275,-1.5
 0997,-2.485965\\Version=ES64L-G16RevA.03\HF=-3034.612628\S2=8.76113\S2
 -1=0.\S2A=8.750039\RMSD=3.246e-09\PG=C01 [X(C8H16Cl3Fe1O1)]\\@


 TO BEHOLD HARMS OF OUR OWN HANDS DOING,
 WHERE NONE BESIDE US WROUGHT,
 CAUSES SHARP RUING...

                                         SOPHOCLES
 Job cpu time:       0 days  0 hours 50 minutes 56.5 seconds.
 Elapsed time:       0 days  0 hours 12 minutes 46.4 seconds.
 File lengths (MBytes):  RWF=    174 Int=      0 D2E=      0 Chk=     13 Scr=      1
 Normal termination of Gaussian 16 at Tue Feb 11 23:31:00 2020.
