 Entering Gaussian System, Link 0=g16
 Input=simple-grid-190-225-b3lyp_d3bj-631gd-gas-singlepoint-DFT-juldz2-gas.gjf
 Output=simple-grid-190-225-b3lyp_d3bj-631gd-gas-singlepoint-DFT-juldz2-gas.out
 Initial command:
 /n/sw/g16_nehalem/g16/l1.exe "/scratch/Gau-153923.inp" -scrdir="/scratch/"
 Entering Link 1 = /n/sw/g16_nehalem/g16/l1.exe PID=    153929.
  
 Copyright (c) 1988,1990,1992,1993,1995,1998,2003,2009,2016,
            Gaussian, Inc.  All Rights Reserved.
  
 This is part of the Gaussian(R) 16 program.  It is based on
 the Gaussian(R) 09 system (copyright 2009, Gaussian, Inc.),
 the Gaussian(R) 03 system (copyright 2003, Gaussian, Inc.),
 the Gaussian(R) 98 system (copyright 1998, Gaussian, Inc.),
 the Gaussian(R) 94 system (copyright 1995, Gaussian, Inc.),
 the Gaussian 92(TM) system (copyright 1992, Gaussian, Inc.),
 the Gaussian 90(TM) system (copyright 1990, Gaussian, Inc.),
 the Gaussian 88(TM) system (copyright 1988, Gaussian, Inc.),
 the Gaussian 86(TM) system (copyright 1986, Carnegie Mellon
 University), and the Gaussian 82(TM) system (copyright 1983,
 Carnegie Mellon University). Gaussian is a federally registered
 trademark of Gaussian, Inc.
  
 This software contains proprietary and confidential information,
 including trade secrets, belonging to Gaussian, Inc.
  
 This software is provided under written license and may be
 used, copied, transmitted, or stored only in accord with that
 written license.
  
 The following legend is applicable only to US Government
 contracts under FAR:
  
                    RESTRICTED RIGHTS LEGEND
  
 Use, reproduction and disclosure by the US Government is
 subject to restrictions as set forth in subparagraphs (a)
 and (c) of the Commercial Computer Software - Restricted
 Rights clause in FAR 52.227-19.
  
 Gaussian, Inc.
 340 Quinnipiac St., Bldg. 40, Wallingford CT 06492
  
  
 ---------------------------------------------------------------
 Warning -- This program may not be used in any manner that
 competes with the business of Gaussian, Inc. or will provide
 assistance to any competitor of Gaussian, Inc.  The licensee
 of this program is prohibited from giving any competitor of
 Gaussian, Inc. access to this program.  By using this program,
 the user acknowledges that Gaussian, Inc. is engaged in the
 business of creating and licensing software in the field of
 computational chemistry and represents and warrants to the
 licensee that it is not a competitor of Gaussian, Inc. and that
 it will not use this program in any manner prohibited above.
 ---------------------------------------------------------------
  

 Cite this work as:
 Gaussian 16, Revision A.03,
 M. J. Frisch, G. W. Trucks, H. B. Schlegel, G. E. Scuseria, 
 M. A. Robb, J. R. Cheeseman, G. Scalmani, V. Barone, 
 G. A. Petersson, H. Nakatsuji, X. Li, M. Caricato, A. V. Marenich, 
 J. Bloino, B. G. Janesko, R. Gomperts, B. Mennucci, H. P. Hratchian, 
 J. V. Ortiz, A. F. Izmaylov, J. L. Sonnenberg, D. Williams-Young, 
 F. Ding, F. Lipparini, F. Egidi, J. Goings, B. Peng, A. Petrone, 
 T. Henderson, D. Ranasinghe, V. G. Zakrzewski, J. Gao, N. Rega, 
 G. Zheng, W. Liang, M. Hada, M. Ehara, K. Toyota, R. Fukuda, 
 J. Hasegawa, M. Ishida, T. Nakajima, Y. Honda, O. Kitao, H. Nakai, 
 T. Vreven, K. Throssell, J. A. Montgomery, Jr., J. E. Peralta, 
 F. Ogliaro, M. J. Bearpark, J. J. Heyd, E. N. Brothers, K. N. Kudin, 
 V. N. Staroverov, T. A. Keith, R. Kobayashi, J. Normand, 
 K. Raghavachari, A. P. Rendell, J. C. Burant, S. S. Iyengar, 
 J. Tomasi, M. Cossi, J. M. Millam, M. Klene, C. Adamo, R. Cammi, 
 J. W. Ochterski, R. L. Martin, K. Morokuma, O. Farkas, 
 J. B. Foresman, and D. J. Fox, Gaussian, Inc., Wallingford CT, 2016.
 
 ******************************************
 Gaussian 16:  ES64L-G16RevA.03 25-Dec-2016
                11-Feb-2020 
 ******************************************
 %chk=checkpoint.chk
 %mem=3GB
 %nprocshared=4
 Will use up to    4 processors via shared memory.
 --------------------------------
 #t pop=none jul-cc-pvdz upbe1pbe
 --------------------------------
 ------------------------
 theory_abbreviation pbe0
 ------------------------
 Symbolic Z-matrix:
 Charge =  0 Multiplicity = 6
 O                    -0.33653  -0.18531  -0.57195 
 C                    -1.33599  -1.10325  -0.46272 
 C                    -2.90684  -0.09684  -0.10277 
 C                    -2.15103   1.09958  -0.22673 
 C                    -1.99467   1.77949  -1.53445 
 Fe                    1.40332   0.04494   0.03564 
 Cl                    1.85297   2.06385  -0.7661 
 C                    -1.58231   1.78787   0.95647 
 Cl                    2.58354  -1.64193  -0.73814 
 Cl                    1.3126    0.05878   2.25837 
 H                    -3.52124  -0.31084  -0.97632 
 H                    -2.39532   2.39544   1.38727 
 H                    -1.25086   1.09523   1.73193 
 H                    -0.75726   2.44889   0.68536 
 H                    -2.59225   2.70397  -1.48388 
 H                    -0.95181   2.07421  -1.68798 
 H                    -2.35677   1.1832   -2.37297 
 C                    -3.58128  -0.45822   1.20693 
 H                    -4.44714   0.19286   1.37873 
 H                    -3.94845  -1.48722   1.17504 
 H                    -2.91713  -0.36539   2.06844 
 C                    -1.16574  -2.06845   0.6889 
 H                    -2.00726  -2.75791   0.78672 
 H                    -0.26392  -2.65372   0.46335 
 H                    -0.98382  -1.55302   1.63286 
 C                    -1.63336  -1.77206  -1.79059 
 H                    -0.74076  -2.35052  -2.0602 
 H                    -2.49188  -2.44723  -1.72978 
 H                    -1.79567  -1.03448  -2.57991 
 
                    Distance matrix (angstroms):
                    1          2          3          4          5
     1  O    0.000000
     2  C    1.361411   0.000000
     3  C    2.614274   1.900000   0.000000
     4  C    2.250006   2.360599   1.420571   0.000000
     5  C    2.745233   3.145258   2.530287   1.482178   0.000000
     6  Fe   1.857216   3.011721   4.314707   3.716786   4.125555
     7  Cl   3.144888   4.504657   5.269184   4.153640   3.933897
     8  C    2.789529   3.230068   2.535448   1.482280   2.524831
     9  Cl   3.267445   3.965947   5.738927   5.494871   5.770644
    10  Cl   3.284806   3.971106   4.837652   4.388137   5.318309
    11  H    3.212729   2.380550   1.089203   2.104430   2.647905
    12  H    3.838939   4.097008   2.948444   2.084214   3.012702
    13  H    2.789915   3.107576   2.743978   2.155617   3.419167
    14  H    2.949050   3.777661   3.423825   2.143633   2.628090
    15  H    3.777276   4.137129   3.138621   2.085463   1.101955
    16  H    2.594130   3.427104   3.323920   2.126799   1.094529
    17  H    3.032797   3.149424   2.663618   2.157695   1.090776
    18  C    3.710427   2.871437   1.516837   2.554942   3.878122
    19  H    4.565660   3.840587   2.156688   2.944785   4.125361
    20  H    4.218160   3.107196   2.156601   3.447784   4.672258
    21  H    3.696430   3.074290   2.187786   2.828582   4.293283
    22  C    2.413201   1.512234   2.746896   3.441744   4.520741
    23  H    3.354935   2.179367   2.946484   3.990991   5.096669
    24  H    2.677711   2.100216   3.720639   4.257304   5.161402
    25  H    2.674095   2.172048   2.971681   3.443361   4.707366
    26  C    2.384247   1.516240   2.697566   3.310584   3.579065
    27  H    2.658270   2.112322   3.688153   4.153747   4.348067
    28  H    3.332020   2.178947   2.888542   3.867190   4.260344
    29  H    2.623367   2.167602   2.872295   3.196551   3.008498
                    6          7          8          9         10
     6  Fe   0.000000
     7  Cl   2.218328   0.000000
     8  C    3.577669   3.852858   0.000000
     9  Cl   2.199362   3.777214   5.655932   0.000000
    10  Cl   2.224631   3.668753   3.614583   3.672443   0.000000
    11  H    5.040027   5.879235   3.449592   6.252750   5.828021
    12  H    4.667060   4.774404   1.102599   6.753284   4.468496
    13  H    3.320415   4.100256   1.091310   5.319390   2.814724
    14  H    3.296856   3.011363   1.091396   5.470120   3.531476
    15  H    5.034274   4.548062   2.795442   6.799395   6.020739
    16  H    3.554633   2.952411   2.733609   5.216377   4.976263
    17  H    4.608175   4.591233   3.471391   5.921209   6.014808
    18  C    5.145023   6.307508   3.017204   6.571870   5.032179
    19  H    6.004465   6.913191   3.305997   7.568227   5.828062
    20  H    5.682176   7.073508   4.046310   6.808163   5.589484
    21  H    4.792383   6.057199   2.766727   6.305860   4.255185
    22  C    3.390162   5.320291   3.887974   4.034287   3.623603
    23  H    4.477960   6.368829   4.568761   4.964480   4.595761
    24  H    3.200833   5.314900   4.659294   3.251971   3.614574
    25  H    3.286790   5.184985   3.460814   4.284345   2.874489
    26  C    3.982212   5.283773   4.496896   4.348201   5.331492
    27  H    3.837682   5.280978   5.189868   3.647044   5.354540
    28  H    4.949761   6.336889   5.096990   5.233713   6.054710
    29  H    4.270797   5.118795   4.529587   4.789420   5.853674
                   11         12         13         14         15
    11  H    0.000000
    12  H    3.765393   0.000000
    13  H    3.803451   1.766107   0.000000
    14  H    4.244628   1.782912   1.780827   0.000000
    15  H    3.195265   2.894390   3.837811   2.852692   0.000000
    16  H    3.577272   3.412347   3.569819   2.410603   1.768981
    17  H    2.353462   3.951004   4.252171   3.676112   1.777263
    18  C    2.189042   3.095537   2.849501   4.086364   4.268264
    19  H    2.580165   3.010211   3.339943   4.380139   4.235662
    20  H    2.488920   4.187157   3.775732   5.090819   5.145408
    21  H    3.104591   2.891097   2.241229   3.807640   4.705902
    22  C    3.377949   4.682509   3.332266   4.535775   5.434326
    23  H    3.374699   5.202721   4.038846   5.355709   5.943904
    24  H    4.262846   5.557919   4.078959   5.131208   6.157728
    25  H    3.845688   4.200351   2.663516   4.118781   5.515708
    26  C    2.522361   5.295988   4.558050   4.971356   4.587853
    27  H    3.614711   6.094812   5.149134   5.529261   5.413683
    28  H    2.488260   5.759927   5.106128   5.728334   5.158038
    29  H    2.464299   5.278493   4.839877   4.886123   3.976412
                   16         17         18         19         20
    16  H    0.000000
    17  H    1.799169   0.000000
    18  C    4.659161   4.124242   0.000000
    19  H    5.016125   4.407457   1.096873   0.000000
    20  H    5.464476   4.717306   1.093016   1.764328   0.000000
    21  H    4.891302   4.736907   1.091745   1.768690   1.766434
    22  C    4.780893   4.622430   2.948904   4.044374   2.884030
    23  H    5.530595   5.063414   2.818284   3.874346   2.352375
    24  H    5.239720   5.210248   4.046974   5.142007   3.929754
    25  H    4.917901   5.041681   2.850752   3.886804   3.000492
    26  C    3.907534   3.097752   3.808640   4.671496   3.773029
    27  H    4.445363   3.898264   4.724773   5.659701   4.636950
    28  H    4.776706   3.689438   3.710423   4.522823   3.388390
    29  H    3.342391   2.296909   4.226187   4.920111   4.351905
                   21         22         23         24         25
    21  H    0.000000
    22  C    2.805516   0.000000
    23  H    2.862668   1.092286   0.000000
    24  H    3.853867   1.098494   1.776137   0.000000
    25  H    2.310386   1.090790   1.793091   1.759985   0.000000
    26  C    4.303366   2.540555   2.784641   2.780820   3.491407
    27  H    5.071785   2.796022   3.142438   2.586046   3.785998
    28  H    4.352171   2.784270   2.581499   3.133096   3.792258
    29  H    4.828306   3.485831   3.788025   3.772213   4.321503
                   26         27         28         29
    26  C    0.000000
    27  H    1.097281   0.000000
    28  H    1.093893   1.784640   0.000000
    29  H    1.092420   1.764895   1.789768   0.000000
 Framework group  C1[X(C8H16Cl3FeO)]
 Deg. of freedom    81
                         Standard orientation:                         
 ---------------------------------------------------------------------
 Center     Atomic      Atomic             Coordinates (Angstroms)
 Number     Number       Type             X           Y           Z
 ---------------------------------------------------------------------
      1          8           0       -0.336532   -0.185312   -0.571950
      2          6           0       -1.335986   -1.103245   -0.462724
      3          6           0       -2.906838   -0.096836   -0.102773
      4          6           0       -2.151031    1.099580   -0.226733
      5          6           0       -1.994674    1.779494   -1.534449
      6         26           0        1.403317    0.044936    0.035637
      7         17           0        1.852966    2.063848   -0.766103
      8          6           0       -1.582308    1.787873    0.956466
      9         17           0        2.583541   -1.641934   -0.738142
     10         17           0        1.312599    0.058782    2.258374
     11          1           0       -3.521239   -0.310838   -0.976316
     12          1           0       -2.395322    2.395439    1.387274
     13          1           0       -1.250857    1.095228    1.731928
     14          1           0       -0.757262    2.448894    0.685364
     15          1           0       -2.592246    2.703970   -1.483880
     16          1           0       -0.951809    2.074206   -1.687981
     17          1           0       -2.356769    1.183202   -2.372969
     18          6           0       -3.581276   -0.458215    1.206934
     19          1           0       -4.447137    0.192861    1.378732
     20          1           0       -3.948447   -1.487220    1.175042
     21          1           0       -2.917130   -0.365388    2.068444
     22          6           0       -1.165738   -2.068449    0.688904
     23          1           0       -2.007260   -2.757914    0.786716
     24          1           0       -0.263918   -2.653715    0.463353
     25          1           0       -0.983818   -1.553015    1.632861
     26          6           0       -1.633361   -1.772062   -1.790593
     27          1           0       -0.740764   -2.350516   -2.060200
     28          1           0       -2.491881   -2.447226   -1.729780
     29          1           0       -1.795666   -1.034484   -2.579907
 ---------------------------------------------------------------------
 Rotational constants (GHZ):           0.5813652           0.3509304           0.3218999
   427 basis functions,  1056 primitive gaussians,   461 cartesian basis functions
    77 alpha electrons       72 beta electrons
       nuclear repulsion energy      1657.0407695577 Hartrees.
 NAtoms=   29 NActive=   29 NUniq=   29 SFac= 1.00D+00 NAtFMM=   60 NAOKFM=F Big=F
 ExpMin= 1.40D-02 ExpMax= 4.32D+06 ExpMxC= 4.91D+03 IAcc=3 IRadAn=         5 AccDes= 0.00D+00
 Harris functional with IExCor= 1009 and IRadAn=       5 diagonalized for initial guess.
 HarFok:  IExCor= 1009 AccDes= 0.00D+00 IRadAn=         5 IDoV= 1 UseB2=F ITyADJ=14
 ICtDFT=  3500011 ScaDFX=  1.000000  1.000000  1.000000  1.000000
 FoFCou: FMM=F IPFlag=           0 FMFlag=      100000 FMFlg1=           0
         NFxFlg=           0 DoJE=T BraDBF=F KetDBF=T FulRan=T
         wScrn=  0.000000 ICntrl=       500 IOpCl=  0 I1Cent=   200000004 NGrid=           0
         NMat0=    1 NMatS0=      1 NMatT0=    0 NMatD0=    1 NMtDS0=    0 NMtDT0=    0
 Petite list used in FoFCou.
 Initial guess <Sx>= 0.0000 <Sy>= 0.0000 <Sz>= 2.5000 <S**2>= 8.7500 S= 2.5000
 EnCoef did   100 forward-backward iterations
 Restarting incremental Fock formation.
 SCF Done:  E(UPBE1PBE) =  -3033.10126015     A.U. after   21 cycles
            NFock= 21  Conv=0.73D-08     -V/T= 2.0021
 <Sx>= 0.0000 <Sy>= 0.0000 <Sz>= 2.5000 <S**2>= 8.7622 S= 2.5020
 <L.S>= 0.000000000000E+00
 Annihilation of the first spin contaminant:
 S**2 before annihilation     8.7622,   after     8.7500
 1\1\GINC-HOLY7C12308\SP\UPBE1PBE\Jul-CC-pVDZ\C8H16Cl3Fe1O1(6)\EKWAN\11
 -Feb-2020\0\\#t pop=none jul-cc-pvdz upbe1pbe\\theory_abbreviation pbe
 0\\0,6\O,0,-0.336532,-0.185312,-0.57195\C,0,-1.335986,-1.103245,-0.462
 724\C,0,-2.906838,-0.096836,-0.102773\C,0,-2.151031,1.09958,-0.226733\
 C,0,-1.994674,1.779494,-1.534449\Fe,0,1.403317,0.044936,0.035637\Cl,0,
 1.852966,2.063848,-0.766103\C,0,-1.582308,1.787873,0.956466\Cl,0,2.583
 541,-1.641934,-0.738142\Cl,0,1.312599,0.058782,2.258374\H,0,-3.521239,
 -0.310838,-0.976316\H,0,-2.395322,2.395439,1.387274\H,0,-1.250857,1.09
 5228,1.731928\H,0,-0.757262,2.448894,0.685364\H,0,-2.592246,2.70397,-1
 .48388\H,0,-0.951809,2.074206,-1.687981\H,0,-2.356769,1.183202,-2.3729
 69\C,0,-3.581276,-0.458215,1.206934\H,0,-4.447137,0.192861,1.378732\H,
 0,-3.948447,-1.48722,1.175042\H,0,-2.91713,-0.365388,2.068444\C,0,-1.1
 65738,-2.068449,0.688904\H,0,-2.00726,-2.757914,0.786716\H,0,-0.263918
 ,-2.653715,0.463353\H,0,-0.983818,-1.553015,1.632861\C,0,-1.633361,-1.
 772062,-1.790593\H,0,-0.740764,-2.350516,-2.0602\H,0,-2.491881,-2.4472
 26,-1.72978\H,0,-1.795666,-1.034484,-2.579907\\Version=ES64L-G16RevA.0
 3\HF=-3033.1012601\S2=8.762197\S2-1=0.\S2A=8.750046\RMSD=7.271e-09\PG=
 C01 [X(C8H16Cl3Fe1O1)]\\@


    WHAT WE HAVE LEARNED
 IS LIKE A HANDFUL OF EARTH;
  WHAT WE HAVE YET TO LEARN
   IS LIKE THE WHOLE WORLD.

         -- AVVAYIAR
 Job cpu time:       0 days  1 hours 28 minutes 21.9 seconds.
 Elapsed time:       0 days  0 hours 22 minutes 10.4 seconds.
 File lengths (MBytes):  RWF=    173 Int=      0 D2E=      0 Chk=     13 Scr=      1
 Normal termination of Gaussian 16 at Tue Feb 11 14:45:39 2020.
 Initial command:
 /n/sw/g16_nehalem/g16/l1.exe "/scratch/Gau-153923.inp" -scrdir="/scratch/"
 Entering Link 1 = /n/sw/g16_nehalem/g16/l1.exe PID=    155888.
  
 Copyright (c) 1988,1990,1992,1993,1995,1998,2003,2009,2016,
            Gaussian, Inc.  All Rights Reserved.
  
 This is part of the Gaussian(R) 16 program.  It is based on
 the Gaussian(R) 09 system (copyright 2009, Gaussian, Inc.),
 the Gaussian(R) 03 system (copyright 2003, Gaussian, Inc.),
 the Gaussian(R) 98 system (copyright 1998, Gaussian, Inc.),
 the Gaussian(R) 94 system (copyright 1995, Gaussian, Inc.),
 the Gaussian 92(TM) system (copyright 1992, Gaussian, Inc.),
 the Gaussian 90(TM) system (copyright 1990, Gaussian, Inc.),
 the Gaussian 88(TM) system (copyright 1988, Gaussian, Inc.),
 the Gaussian 86(TM) system (copyright 1986, Carnegie Mellon
 University), and the Gaussian 82(TM) system (copyright 1983,
 Carnegie Mellon University). Gaussian is a federally registered
 trademark of Gaussian, Inc.
  
 This software contains proprietary and confidential information,
 including trade secrets, belonging to Gaussian, Inc.
  
 This software is provided under written license and may be
 used, copied, transmitted, or stored only in accord with that
 written license.
  
 The following legend is applicable only to US Government
 contracts under FAR:
  
                    RESTRICTED RIGHTS LEGEND
  
 Use, reproduction and disclosure by the US Government is
 subject to restrictions as set forth in subparagraphs (a)
 and (c) of the Commercial Computer Software - Restricted
 Rights clause in FAR 52.227-19.
  
 Gaussian, Inc.
 340 Quinnipiac St., Bldg. 40, Wallingford CT 06492
  
  
 ---------------------------------------------------------------
 Warning -- This program may not be used in any manner that
 competes with the business of Gaussian, Inc. or will provide
 assistance to any competitor of Gaussian, Inc.  The licensee
 of this program is prohibited from giving any competitor of
 Gaussian, Inc. access to this program.  By using this program,
 the user acknowledges that Gaussian, Inc. is engaged in the
 business of creating and licensing software in the field of
 computational chemistry and represents and warrants to the
 licensee that it is not a competitor of Gaussian, Inc. and that
 it will not use this program in any manner prohibited above.
 ---------------------------------------------------------------
  

 Cite this work as:
 Gaussian 16, Revision A.03,
 M. J. Frisch, G. W. Trucks, H. B. Schlegel, G. E. Scuseria, 
 M. A. Robb, J. R. Cheeseman, G. Scalmani, V. Barone, 
 G. A. Petersson, H. Nakatsuji, X. Li, M. Caricato, A. V. Marenich, 
 J. Bloino, B. G. Janesko, R. Gomperts, B. Mennucci, H. P. Hratchian, 
 J. V. Ortiz, A. F. Izmaylov, J. L. Sonnenberg, D. Williams-Young, 
 F. Ding, F. Lipparini, F. Egidi, J. Goings, B. Peng, A. Petrone, 
 T. Henderson, D. Ranasinghe, V. G. Zakrzewski, J. Gao, N. Rega, 
 G. Zheng, W. Liang, M. Hada, M. Ehara, K. Toyota, R. Fukuda, 
 J. Hasegawa, M. Ishida, T. Nakajima, Y. Honda, O. Kitao, H. Nakai, 
 T. Vreven, K. Throssell, J. A. Montgomery, Jr., J. E. Peralta, 
 F. Ogliaro, M. J. Bearpark, J. J. Heyd, E. N. Brothers, K. N. Kudin, 
 V. N. Staroverov, T. A. Keith, R. Kobayashi, J. Normand, 
 K. Raghavachari, A. P. Rendell, J. C. Burant, S. S. Iyengar, 
 J. Tomasi, M. Cossi, J. M. Millam, M. Klene, C. Adamo, R. Cammi, 
 J. W. Ochterski, R. L. Martin, K. Morokuma, O. Farkas, 
 J. B. Foresman, and D. J. Fox, Gaussian, Inc., Wallingford CT, 2016.
 
 ******************************************
 Gaussian 16:  ES64L-G16RevA.03 25-Dec-2016
                11-Feb-2020 
 ******************************************
 %chk=checkpoint.chk
 %mem=3GB
 %nprocshared=4
 Will use up to    4 processors via shared memory.
 ---------------------------------------------------------------------
 #t pop=none jul-cc-pvdz guess=read upbe1pbe empiricaldispersion=gd3bj
 ---------------------------------------------------------------------
 -----------------------------
 theory_abbreviation pbe0_d3bj
 -----------------------------
 Symbolic Z-matrix:
 Charge =  0 Multiplicity = 6
 O                    -0.33653  -0.18531  -0.57195 
 C                    -1.33599  -1.10325  -0.46272 
 C                    -2.90684  -0.09684  -0.10277 
 C                    -2.15103   1.09958  -0.22673 
 C                    -1.99467   1.77949  -1.53445 
 Fe                    1.40332   0.04494   0.03564 
 Cl                    1.85297   2.06385  -0.7661 
 C                    -1.58231   1.78787   0.95647 
 Cl                    2.58354  -1.64193  -0.73814 
 Cl                    1.3126    0.05878   2.25837 
 H                    -3.52124  -0.31084  -0.97632 
 H                    -2.39532   2.39544   1.38727 
 H                    -1.25086   1.09523   1.73193 
 H                    -0.75726   2.44889   0.68536 
 H                    -2.59225   2.70397  -1.48388 
 H                    -0.95181   2.07421  -1.68798 
 H                    -2.35677   1.1832   -2.37297 
 C                    -3.58128  -0.45822   1.20693 
 H                    -4.44714   0.19286   1.37873 
 H                    -3.94845  -1.48722   1.17504 
 H                    -2.91713  -0.36539   2.06844 
 C                    -1.16574  -2.06845   0.6889 
 H                    -2.00726  -2.75791   0.78672 
 H                    -0.26392  -2.65372   0.46335 
 H                    -0.98382  -1.55302   1.63286 
 C                    -1.63336  -1.77206  -1.79059 
 H                    -0.74076  -2.35052  -2.0602 
 H                    -2.49188  -2.44723  -1.72978 
 H                    -1.79567  -1.03448  -2.57991 
 
                    Distance matrix (angstroms):
                    1          2          3          4          5
     1  O    0.000000
     2  C    1.361411   0.000000
     3  C    2.614274   1.900000   0.000000
     4  C    2.250006   2.360599   1.420571   0.000000
     5  C    2.745233   3.145258   2.530287   1.482178   0.000000
     6  Fe   1.857216   3.011721   4.314707   3.716786   4.125555
     7  Cl   3.144888   4.504657   5.269184   4.153640   3.933897
     8  C    2.789529   3.230068   2.535448   1.482280   2.524831
     9  Cl   3.267445   3.965947   5.738927   5.494871   5.770644
    10  Cl   3.284806   3.971106   4.837652   4.388137   5.318309
    11  H    3.212729   2.380550   1.089203   2.104430   2.647905
    12  H    3.838939   4.097008   2.948444   2.084214   3.012702
    13  H    2.789915   3.107576   2.743978   2.155617   3.419167
    14  H    2.949050   3.777661   3.423825   2.143633   2.628090
    15  H    3.777276   4.137129   3.138621   2.085463   1.101955
    16  H    2.594130   3.427104   3.323920   2.126799   1.094529
    17  H    3.032797   3.149424   2.663618   2.157695   1.090776
    18  C    3.710427   2.871437   1.516837   2.554942   3.878122
    19  H    4.565660   3.840587   2.156688   2.944785   4.125361
    20  H    4.218160   3.107196   2.156601   3.447784   4.672258
    21  H    3.696430   3.074290   2.187786   2.828582   4.293283
    22  C    2.413201   1.512234   2.746896   3.441744   4.520741
    23  H    3.354935   2.179367   2.946484   3.990991   5.096669
    24  H    2.677711   2.100216   3.720639   4.257304   5.161402
    25  H    2.674095   2.172048   2.971681   3.443361   4.707366
    26  C    2.384247   1.516240   2.697566   3.310584   3.579065
    27  H    2.658270   2.112322   3.688153   4.153747   4.348067
    28  H    3.332020   2.178947   2.888542   3.867190   4.260344
    29  H    2.623367   2.167602   2.872295   3.196551   3.008498
                    6          7          8          9         10
     6  Fe   0.000000
     7  Cl   2.218328   0.000000
     8  C    3.577669   3.852858   0.000000
     9  Cl   2.199362   3.777214   5.655932   0.000000
    10  Cl   2.224631   3.668753   3.614583   3.672443   0.000000
    11  H    5.040027   5.879235   3.449592   6.252750   5.828021
    12  H    4.667060   4.774404   1.102599   6.753284   4.468496
    13  H    3.320415   4.100256   1.091310   5.319390   2.814724
    14  H    3.296856   3.011363   1.091396   5.470120   3.531476
    15  H    5.034274   4.548062   2.795442   6.799395   6.020739
    16  H    3.554633   2.952411   2.733609   5.216377   4.976263
    17  H    4.608175   4.591233   3.471391   5.921209   6.014808
    18  C    5.145023   6.307508   3.017204   6.571870   5.032179
    19  H    6.004465   6.913191   3.305997   7.568227   5.828062
    20  H    5.682176   7.073508   4.046310   6.808163   5.589484
    21  H    4.792383   6.057199   2.766727   6.305860   4.255185
    22  C    3.390162   5.320291   3.887974   4.034287   3.623603
    23  H    4.477960   6.368829   4.568761   4.964480   4.595761
    24  H    3.200833   5.314900   4.659294   3.251971   3.614574
    25  H    3.286790   5.184985   3.460814   4.284345   2.874489
    26  C    3.982212   5.283773   4.496896   4.348201   5.331492
    27  H    3.837682   5.280978   5.189868   3.647044   5.354540
    28  H    4.949761   6.336889   5.096990   5.233713   6.054710
    29  H    4.270797   5.118795   4.529587   4.789420   5.853674
                   11         12         13         14         15
    11  H    0.000000
    12  H    3.765393   0.000000
    13  H    3.803451   1.766107   0.000000
    14  H    4.244628   1.782912   1.780827   0.000000
    15  H    3.195265   2.894390   3.837811   2.852692   0.000000
    16  H    3.577272   3.412347   3.569819   2.410603   1.768981
    17  H    2.353462   3.951004   4.252171   3.676112   1.777263
    18  C    2.189042   3.095537   2.849501   4.086364   4.268264
    19  H    2.580165   3.010211   3.339943   4.380139   4.235662
    20  H    2.488920   4.187157   3.775732   5.090819   5.145408
    21  H    3.104591   2.891097   2.241229   3.807640   4.705902
    22  C    3.377949   4.682509   3.332266   4.535775   5.434326
    23  H    3.374699   5.202721   4.038846   5.355709   5.943904
    24  H    4.262846   5.557919   4.078959   5.131208   6.157728
    25  H    3.845688   4.200351   2.663516   4.118781   5.515708
    26  C    2.522361   5.295988   4.558050   4.971356   4.587853
    27  H    3.614711   6.094812   5.149134   5.529261   5.413683
    28  H    2.488260   5.759927   5.106128   5.728334   5.158038
    29  H    2.464299   5.278493   4.839877   4.886123   3.976412
                   16         17         18         19         20
    16  H    0.000000
    17  H    1.799169   0.000000
    18  C    4.659161   4.124242   0.000000
    19  H    5.016125   4.407457   1.096873   0.000000
    20  H    5.464476   4.717306   1.093016   1.764328   0.000000
    21  H    4.891302   4.736907   1.091745   1.768690   1.766434
    22  C    4.780893   4.622430   2.948904   4.044374   2.884030
    23  H    5.530595   5.063414   2.818284   3.874346   2.352375
    24  H    5.239720   5.210248   4.046974   5.142007   3.929754
    25  H    4.917901   5.041681   2.850752   3.886804   3.000492
    26  C    3.907534   3.097752   3.808640   4.671496   3.773029
    27  H    4.445363   3.898264   4.724773   5.659701   4.636950
    28  H    4.776706   3.689438   3.710423   4.522823   3.388390
    29  H    3.342391   2.296909   4.226187   4.920111   4.351905
                   21         22         23         24         25
    21  H    0.000000
    22  C    2.805516   0.000000
    23  H    2.862668   1.092286   0.000000
    24  H    3.853867   1.098494   1.776137   0.000000
    25  H    2.310386   1.090790   1.793091   1.759985   0.000000
    26  C    4.303366   2.540555   2.784641   2.780820   3.491407
    27  H    5.071785   2.796022   3.142438   2.586046   3.785998
    28  H    4.352171   2.784270   2.581499   3.133096   3.792258
    29  H    4.828306   3.485831   3.788025   3.772213   4.321503
                   26         27         28         29
    26  C    0.000000
    27  H    1.097281   0.000000
    28  H    1.093893   1.784640   0.000000
    29  H    1.092420   1.764895   1.789768   0.000000
 Framework group  C1[X(C8H16Cl3FeO)]
 Deg. of freedom    81
                         Standard orientation:                         
 ---------------------------------------------------------------------
 Center     Atomic      Atomic             Coordinates (Angstroms)
 Number     Number       Type             X           Y           Z
 ---------------------------------------------------------------------
      1          8           0       -0.336532   -0.185312   -0.571950
      2          6           0       -1.335986   -1.103245   -0.462724
      3          6           0       -2.906838   -0.096836   -0.102773
      4          6           0       -2.151031    1.099580   -0.226733
      5          6           0       -1.994674    1.779494   -1.534449
      6         26           0        1.403317    0.044936    0.035637
      7         17           0        1.852966    2.063848   -0.766103
      8          6           0       -1.582308    1.787873    0.956466
      9         17           0        2.583541   -1.641934   -0.738142
     10         17           0        1.312599    0.058782    2.258374
     11          1           0       -3.521239   -0.310838   -0.976316
     12          1           0       -2.395322    2.395439    1.387274
     13          1           0       -1.250857    1.095228    1.731928
     14          1           0       -0.757262    2.448894    0.685364
     15          1           0       -2.592246    2.703970   -1.483880
     16          1           0       -0.951809    2.074206   -1.687981
     17          1           0       -2.356769    1.183202   -2.372969
     18          6           0       -3.581276   -0.458215    1.206934
     19          1           0       -4.447137    0.192861    1.378732
     20          1           0       -3.948447   -1.487220    1.175042
     21          1           0       -2.917130   -0.365388    2.068444
     22          6           0       -1.165738   -2.068449    0.688904
     23          1           0       -2.007260   -2.757914    0.786716
     24          1           0       -0.263918   -2.653715    0.463353
     25          1           0       -0.983818   -1.553015    1.632861
     26          6           0       -1.633361   -1.772062   -1.790593
     27          1           0       -0.740764   -2.350516   -2.060200
     28          1           0       -2.491881   -2.447226   -1.729780
     29          1           0       -1.795666   -1.034484   -2.579907
 ---------------------------------------------------------------------
 Rotational constants (GHZ):           0.5813652           0.3509304           0.3218999
   427 basis functions,  1056 primitive gaussians,   461 cartesian basis functions
    77 alpha electrons       72 beta electrons
       nuclear repulsion energy      1657.0407695577 Hartrees.
 NAtoms=   29 NActive=   29 NUniq=   29 SFac= 1.00D+00 NAtFMM=   60 NAOKFM=F Big=F
 Nuclear repulsion after empirical dispersion term =     1657.0036413890 Hartrees.
 Initial guess from the checkpoint file:  "checkpoint.chk"
 B after Tr=     0.000000    0.000000    0.000000
         Rot=    1.000000    0.000000    0.000000    0.000000 Ang=   0.00 deg.
 Initial guess <Sx>= 0.0000 <Sy>= 0.0000 <Sz>= 2.5000 <S**2>= 8.7622 S= 2.5020
 SCF Done:  E(UPBE1PBE) =  -3033.13838831     A.U. after    1 cycles
            NFock=  1  Conv=0.37D-08     -V/T= 2.0021
 <Sx>= 0.0000 <Sy>= 0.0000 <Sz>= 2.5000 <S**2>= 8.7622 S= 2.5020
 <L.S>= 0.000000000000E+00
 Annihilation of the first spin contaminant:
 S**2 before annihilation     8.7622,   after     8.7500
 1\1\GINC-HOLY7C12308\SP\UPBE1PBE\Jul-CC-pVDZ\C8H16Cl3Fe1O1(6)\EKWAN\11
 -Feb-2020\0\\#t pop=none jul-cc-pvdz guess=read upbe1pbe empiricaldisp
 ersion=gd3bj\\theory_abbreviation pbe0_d3bj\\0,6\O,0,-0.336532,-0.1853
 12,-0.57195\C,0,-1.335986,-1.103245,-0.462724\C,0,-2.906838,-0.096836,
 -0.102773\C,0,-2.151031,1.09958,-0.226733\C,0,-1.994674,1.779494,-1.53
 4449\Fe,0,1.403317,0.044936,0.035637\Cl,0,1.852966,2.063848,-0.766103\
 C,0,-1.582308,1.787873,0.956466\Cl,0,2.583541,-1.641934,-0.738142\Cl,0
 ,1.312599,0.058782,2.258374\H,0,-3.521239,-0.310838,-0.976316\H,0,-2.3
 95322,2.395439,1.387274\H,0,-1.250857,1.095228,1.731928\H,0,-0.757262,
 2.448894,0.685364\H,0,-2.592246,2.70397,-1.48388\H,0,-0.951809,2.07420
 6,-1.687981\H,0,-2.356769,1.183202,-2.372969\C,0,-3.581276,-0.458215,1
 .206934\H,0,-4.447137,0.192861,1.378732\H,0,-3.948447,-1.48722,1.17504
 2\H,0,-2.91713,-0.365388,2.068444\C,0,-1.165738,-2.068449,0.688904\H,0
 ,-2.00726,-2.757914,0.786716\H,0,-0.263918,-2.653715,0.463353\H,0,-0.9
 83818,-1.553015,1.632861\C,0,-1.633361,-1.772062,-1.790593\H,0,-0.7407
 64,-2.350516,-2.0602\H,0,-2.491881,-2.447226,-1.72978\H,0,-1.795666,-1
 .034484,-2.579907\\Version=ES64L-G16RevA.03\HF=-3033.1383883\S2=8.7621
 97\S2-1=0.\S2A=8.750046\RMSD=3.658e-09\PG=C01 [X(C8H16Cl3Fe1O1)]\\@


 ALL THINGS ARE POSSIBLE EXCEPT SKIING THROUGH A REVOLVING DOOR.
 Job cpu time:       0 days  0 hours  4 minutes 47.6 seconds.
 Elapsed time:       0 days  0 hours  1 minutes 14.7 seconds.
 File lengths (MBytes):  RWF=    170 Int=      0 D2E=      0 Chk=     13 Scr=      1
 Normal termination of Gaussian 16 at Tue Feb 11 14:46:55 2020.
 Initial command:
 /n/sw/g16_nehalem/g16/l1.exe "/scratch/Gau-153923.inp" -scrdir="/scratch/"
 Entering Link 1 = /n/sw/g16_nehalem/g16/l1.exe PID=    156191.
  
 Copyright (c) 1988,1990,1992,1993,1995,1998,2003,2009,2016,
            Gaussian, Inc.  All Rights Reserved.
  
 This is part of the Gaussian(R) 16 program.  It is based on
 the Gaussian(R) 09 system (copyright 2009, Gaussian, Inc.),
 the Gaussian(R) 03 system (copyright 2003, Gaussian, Inc.),
 the Gaussian(R) 98 system (copyright 1998, Gaussian, Inc.),
 the Gaussian(R) 94 system (copyright 1995, Gaussian, Inc.),
 the Gaussian 92(TM) system (copyright 1992, Gaussian, Inc.),
 the Gaussian 90(TM) system (copyright 1990, Gaussian, Inc.),
 the Gaussian 88(TM) system (copyright 1988, Gaussian, Inc.),
 the Gaussian 86(TM) system (copyright 1986, Carnegie Mellon
 University), and the Gaussian 82(TM) system (copyright 1983,
 Carnegie Mellon University). Gaussian is a federally registered
 trademark of Gaussian, Inc.
  
 This software contains proprietary and confidential information,
 including trade secrets, belonging to Gaussian, Inc.
  
 This software is provided under written license and may be
 used, copied, transmitted, or stored only in accord with that
 written license.
  
 The following legend is applicable only to US Government
 contracts under FAR:
  
                    RESTRICTED RIGHTS LEGEND
  
 Use, reproduction and disclosure by the US Government is
 subject to restrictions as set forth in subparagraphs (a)
 and (c) of the Commercial Computer Software - Restricted
 Rights clause in FAR 52.227-19.
  
 Gaussian, Inc.
 340 Quinnipiac St., Bldg. 40, Wallingford CT 06492
  
  
 ---------------------------------------------------------------
 Warning -- This program may not be used in any manner that
 competes with the business of Gaussian, Inc. or will provide
 assistance to any competitor of Gaussian, Inc.  The licensee
 of this program is prohibited from giving any competitor of
 Gaussian, Inc. access to this program.  By using this program,
 the user acknowledges that Gaussian, Inc. is engaged in the
 business of creating and licensing software in the field of
 computational chemistry and represents and warrants to the
 licensee that it is not a competitor of Gaussian, Inc. and that
 it will not use this program in any manner prohibited above.
 ---------------------------------------------------------------
  

 Cite this work as:
 Gaussian 16, Revision A.03,
 M. J. Frisch, G. W. Trucks, H. B. Schlegel, G. E. Scuseria, 
 M. A. Robb, J. R. Cheeseman, G. Scalmani, V. Barone, 
 G. A. Petersson, H. Nakatsuji, X. Li, M. Caricato, A. V. Marenich, 
 J. Bloino, B. G. Janesko, R. Gomperts, B. Mennucci, H. P. Hratchian, 
 J. V. Ortiz, A. F. Izmaylov, J. L. Sonnenberg, D. Williams-Young, 
 F. Ding, F. Lipparini, F. Egidi, J. Goings, B. Peng, A. Petrone, 
 T. Henderson, D. Ranasinghe, V. G. Zakrzewski, J. Gao, N. Rega, 
 G. Zheng, W. Liang, M. Hada, M. Ehara, K. Toyota, R. Fukuda, 
 J. Hasegawa, M. Ishida, T. Nakajima, Y. Honda, O. Kitao, H. Nakai, 
 T. Vreven, K. Throssell, J. A. Montgomery, Jr., J. E. Peralta, 
 F. Ogliaro, M. J. Bearpark, J. J. Heyd, E. N. Brothers, K. N. Kudin, 
 V. N. Staroverov, T. A. Keith, R. Kobayashi, J. Normand, 
 K. Raghavachari, A. P. Rendell, J. C. Burant, S. S. Iyengar, 
 J. Tomasi, M. Cossi, J. M. Millam, M. Klene, C. Adamo, R. Cammi, 
 J. W. Ochterski, R. L. Martin, K. Morokuma, O. Farkas, 
 J. B. Foresman, and D. J. Fox, Gaussian, Inc., Wallingford CT, 2016.
 
 ******************************************
 Gaussian 16:  ES64L-G16RevA.03 25-Dec-2016
                11-Feb-2020 
 ******************************************
 %chk=checkpoint.chk
 %mem=3GB
 %nprocshared=4
 Will use up to    4 processors via shared memory.
 -----------------------------------------
 #t pop=none jul-cc-pvdz guess=read ub3lyp
 -----------------------------------------
 -------------------------
 theory_abbreviation b3lyp
 -------------------------
 Symbolic Z-matrix:
 Charge =  0 Multiplicity = 6
 O                    -0.33653  -0.18531  -0.57195 
 C                    -1.33599  -1.10325  -0.46272 
 C                    -2.90684  -0.09684  -0.10277 
 C                    -2.15103   1.09958  -0.22673 
 C                    -1.99467   1.77949  -1.53445 
 Fe                    1.40332   0.04494   0.03564 
 Cl                    1.85297   2.06385  -0.7661 
 C                    -1.58231   1.78787   0.95647 
 Cl                    2.58354  -1.64193  -0.73814 
 Cl                    1.3126    0.05878   2.25837 
 H                    -3.52124  -0.31084  -0.97632 
 H                    -2.39532   2.39544   1.38727 
 H                    -1.25086   1.09523   1.73193 
 H                    -0.75726   2.44889   0.68536 
 H                    -2.59225   2.70397  -1.48388 
 H                    -0.95181   2.07421  -1.68798 
 H                    -2.35677   1.1832   -2.37297 
 C                    -3.58128  -0.45822   1.20693 
 H                    -4.44714   0.19286   1.37873 
 H                    -3.94845  -1.48722   1.17504 
 H                    -2.91713  -0.36539   2.06844 
 C                    -1.16574  -2.06845   0.6889 
 H                    -2.00726  -2.75791   0.78672 
 H                    -0.26392  -2.65372   0.46335 
 H                    -0.98382  -1.55302   1.63286 
 C                    -1.63336  -1.77206  -1.79059 
 H                    -0.74076  -2.35052  -2.0602 
 H                    -2.49188  -2.44723  -1.72978 
 H                    -1.79567  -1.03448  -2.57991 
 
                    Distance matrix (angstroms):
                    1          2          3          4          5
     1  O    0.000000
     2  C    1.361411   0.000000
     3  C    2.614274   1.900000   0.000000
     4  C    2.250006   2.360599   1.420571   0.000000
     5  C    2.745233   3.145258   2.530287   1.482178   0.000000
     6  Fe   1.857216   3.011721   4.314707   3.716786   4.125555
     7  Cl   3.144888   4.504657   5.269184   4.153640   3.933897
     8  C    2.789529   3.230068   2.535448   1.482280   2.524831
     9  Cl   3.267445   3.965947   5.738927   5.494871   5.770644
    10  Cl   3.284806   3.971106   4.837652   4.388137   5.318309
    11  H    3.212729   2.380550   1.089203   2.104430   2.647905
    12  H    3.838939   4.097008   2.948444   2.084214   3.012702
    13  H    2.789915   3.107576   2.743978   2.155617   3.419167
    14  H    2.949050   3.777661   3.423825   2.143633   2.628090
    15  H    3.777276   4.137129   3.138621   2.085463   1.101955
    16  H    2.594130   3.427104   3.323920   2.126799   1.094529
    17  H    3.032797   3.149424   2.663618   2.157695   1.090776
    18  C    3.710427   2.871437   1.516837   2.554942   3.878122
    19  H    4.565660   3.840587   2.156688   2.944785   4.125361
    20  H    4.218160   3.107196   2.156601   3.447784   4.672258
    21  H    3.696430   3.074290   2.187786   2.828582   4.293283
    22  C    2.413201   1.512234   2.746896   3.441744   4.520741
    23  H    3.354935   2.179367   2.946484   3.990991   5.096669
    24  H    2.677711   2.100216   3.720639   4.257304   5.161402
    25  H    2.674095   2.172048   2.971681   3.443361   4.707366
    26  C    2.384247   1.516240   2.697566   3.310584   3.579065
    27  H    2.658270   2.112322   3.688153   4.153747   4.348067
    28  H    3.332020   2.178947   2.888542   3.867190   4.260344
    29  H    2.623367   2.167602   2.872295   3.196551   3.008498
                    6          7          8          9         10
     6  Fe   0.000000
     7  Cl   2.218328   0.000000
     8  C    3.577669   3.852858   0.000000
     9  Cl   2.199362   3.777214   5.655932   0.000000
    10  Cl   2.224631   3.668753   3.614583   3.672443   0.000000
    11  H    5.040027   5.879235   3.449592   6.252750   5.828021
    12  H    4.667060   4.774404   1.102599   6.753284   4.468496
    13  H    3.320415   4.100256   1.091310   5.319390   2.814724
    14  H    3.296856   3.011363   1.091396   5.470120   3.531476
    15  H    5.034274   4.548062   2.795442   6.799395   6.020739
    16  H    3.554633   2.952411   2.733609   5.216377   4.976263
    17  H    4.608175   4.591233   3.471391   5.921209   6.014808
    18  C    5.145023   6.307508   3.017204   6.571870   5.032179
    19  H    6.004465   6.913191   3.305997   7.568227   5.828062
    20  H    5.682176   7.073508   4.046310   6.808163   5.589484
    21  H    4.792383   6.057199   2.766727   6.305860   4.255185
    22  C    3.390162   5.320291   3.887974   4.034287   3.623603
    23  H    4.477960   6.368829   4.568761   4.964480   4.595761
    24  H    3.200833   5.314900   4.659294   3.251971   3.614574
    25  H    3.286790   5.184985   3.460814   4.284345   2.874489
    26  C    3.982212   5.283773   4.496896   4.348201   5.331492
    27  H    3.837682   5.280978   5.189868   3.647044   5.354540
    28  H    4.949761   6.336889   5.096990   5.233713   6.054710
    29  H    4.270797   5.118795   4.529587   4.789420   5.853674
                   11         12         13         14         15
    11  H    0.000000
    12  H    3.765393   0.000000
    13  H    3.803451   1.766107   0.000000
    14  H    4.244628   1.782912   1.780827   0.000000
    15  H    3.195265   2.894390   3.837811   2.852692   0.000000
    16  H    3.577272   3.412347   3.569819   2.410603   1.768981
    17  H    2.353462   3.951004   4.252171   3.676112   1.777263
    18  C    2.189042   3.095537   2.849501   4.086364   4.268264
    19  H    2.580165   3.010211   3.339943   4.380139   4.235662
    20  H    2.488920   4.187157   3.775732   5.090819   5.145408
    21  H    3.104591   2.891097   2.241229   3.807640   4.705902
    22  C    3.377949   4.682509   3.332266   4.535775   5.434326
    23  H    3.374699   5.202721   4.038846   5.355709   5.943904
    24  H    4.262846   5.557919   4.078959   5.131208   6.157728
    25  H    3.845688   4.200351   2.663516   4.118781   5.515708
    26  C    2.522361   5.295988   4.558050   4.971356   4.587853
    27  H    3.614711   6.094812   5.149134   5.529261   5.413683
    28  H    2.488260   5.759927   5.106128   5.728334   5.158038
    29  H    2.464299   5.278493   4.839877   4.886123   3.976412
                   16         17         18         19         20
    16  H    0.000000
    17  H    1.799169   0.000000
    18  C    4.659161   4.124242   0.000000
    19  H    5.016125   4.407457   1.096873   0.000000
    20  H    5.464476   4.717306   1.093016   1.764328   0.000000
    21  H    4.891302   4.736907   1.091745   1.768690   1.766434
    22  C    4.780893   4.622430   2.948904   4.044374   2.884030
    23  H    5.530595   5.063414   2.818284   3.874346   2.352375
    24  H    5.239720   5.210248   4.046974   5.142007   3.929754
    25  H    4.917901   5.041681   2.850752   3.886804   3.000492
    26  C    3.907534   3.097752   3.808640   4.671496   3.773029
    27  H    4.445363   3.898264   4.724773   5.659701   4.636950
    28  H    4.776706   3.689438   3.710423   4.522823   3.388390
    29  H    3.342391   2.296909   4.226187   4.920111   4.351905
                   21         22         23         24         25
    21  H    0.000000
    22  C    2.805516   0.000000
    23  H    2.862668   1.092286   0.000000
    24  H    3.853867   1.098494   1.776137   0.000000
    25  H    2.310386   1.090790   1.793091   1.759985   0.000000
    26  C    4.303366   2.540555   2.784641   2.780820   3.491407
    27  H    5.071785   2.796022   3.142438   2.586046   3.785998
    28  H    4.352171   2.784270   2.581499   3.133096   3.792258
    29  H    4.828306   3.485831   3.788025   3.772213   4.321503
                   26         27         28         29
    26  C    0.000000
    27  H    1.097281   0.000000
    28  H    1.093893   1.784640   0.000000
    29  H    1.092420   1.764895   1.789768   0.000000
 Framework group  C1[X(C8H16Cl3FeO)]
 Deg. of freedom    81
                         Standard orientation:                         
 ---------------------------------------------------------------------
 Center     Atomic      Atomic             Coordinates (Angstroms)
 Number     Number       Type             X           Y           Z
 ---------------------------------------------------------------------
      1          8           0       -0.336532   -0.185312   -0.571950
      2          6           0       -1.335986   -1.103245   -0.462724
      3          6           0       -2.906838   -0.096836   -0.102773
      4          6           0       -2.151031    1.099580   -0.226733
      5          6           0       -1.994674    1.779494   -1.534449
      6         26           0        1.403317    0.044936    0.035637
      7         17           0        1.852966    2.063848   -0.766103
      8          6           0       -1.582308    1.787873    0.956466
      9         17           0        2.583541   -1.641934   -0.738142
     10         17           0        1.312599    0.058782    2.258374
     11          1           0       -3.521239   -0.310838   -0.976316
     12          1           0       -2.395322    2.395439    1.387274
     13          1           0       -1.250857    1.095228    1.731928
     14          1           0       -0.757262    2.448894    0.685364
     15          1           0       -2.592246    2.703970   -1.483880
     16          1           0       -0.951809    2.074206   -1.687981
     17          1           0       -2.356769    1.183202   -2.372969
     18          6           0       -3.581276   -0.458215    1.206934
     19          1           0       -4.447137    0.192861    1.378732
     20          1           0       -3.948447   -1.487220    1.175042
     21          1           0       -2.917130   -0.365388    2.068444
     22          6           0       -1.165738   -2.068449    0.688904
     23          1           0       -2.007260   -2.757914    0.786716
     24          1           0       -0.263918   -2.653715    0.463353
     25          1           0       -0.983818   -1.553015    1.632861
     26          6           0       -1.633361   -1.772062   -1.790593
     27          1           0       -0.740764   -2.350516   -2.060200
     28          1           0       -2.491881   -2.447226   -1.729780
     29          1           0       -1.795666   -1.034484   -2.579907
 ---------------------------------------------------------------------
 Rotational constants (GHZ):           0.5813652           0.3509304           0.3218999
   427 basis functions,  1056 primitive gaussians,   461 cartesian basis functions
    77 alpha electrons       72 beta electrons
       nuclear repulsion energy      1657.0407695577 Hartrees.
 NAtoms=   29 NActive=   29 NUniq=   29 SFac= 1.00D+00 NAtFMM=   60 NAOKFM=F Big=F
 Initial guess from the checkpoint file:  "checkpoint.chk"
 B after Tr=     0.000000    0.000000    0.000000
         Rot=    1.000000    0.000000    0.000000    0.000000 Ang=   0.00 deg.
 Initial guess <Sx>= 0.0000 <Sy>= 0.0000 <Sz>= 2.5000 <S**2>= 8.7622 S= 2.5020
 SCF Done:  E(UB3LYP) =  -3034.31402436     A.U. after   14 cycles
            NFock= 14  Conv=0.77D-08     -V/T= 2.0024
 <Sx>= 0.0000 <Sy>= 0.0000 <Sz>= 2.5000 <S**2>= 8.7614 S= 2.5019
 <L.S>= 0.000000000000E+00
 Annihilation of the first spin contaminant:
 S**2 before annihilation     8.7614,   after     8.7500
 1\1\GINC-HOLY7C12308\SP\UB3LYP\Jul-CC-pVDZ\C8H16Cl3Fe1O1(6)\EKWAN\11-F
 eb-2020\0\\#t pop=none jul-cc-pvdz guess=read ub3lyp\\theory_abbreviat
 ion b3lyp\\0,6\O,0,-0.336532,-0.185312,-0.57195\C,0,-1.335986,-1.10324
 5,-0.462724\C,0,-2.906838,-0.096836,-0.102773\C,0,-2.151031,1.09958,-0
 .226733\C,0,-1.994674,1.779494,-1.534449\Fe,0,1.403317,0.044936,0.0356
 37\Cl,0,1.852966,2.063848,-0.766103\C,0,-1.582308,1.787873,0.956466\Cl
 ,0,2.583541,-1.641934,-0.738142\Cl,0,1.312599,0.058782,2.258374\H,0,-3
 .521239,-0.310838,-0.976316\H,0,-2.395322,2.395439,1.387274\H,0,-1.250
 857,1.095228,1.731928\H,0,-0.757262,2.448894,0.685364\H,0,-2.592246,2.
 70397,-1.48388\H,0,-0.951809,2.074206,-1.687981\H,0,-2.356769,1.183202
 ,-2.372969\C,0,-3.581276,-0.458215,1.206934\H,0,-4.447137,0.192861,1.3
 78732\H,0,-3.948447,-1.48722,1.175042\H,0,-2.91713,-0.365388,2.068444\
 C,0,-1.165738,-2.068449,0.688904\H,0,-2.00726,-2.757914,0.786716\H,0,-
 0.263918,-2.653715,0.463353\H,0,-0.983818,-1.553015,1.632861\C,0,-1.63
 3361,-1.772062,-1.790593\H,0,-0.740764,-2.350516,-2.0602\H,0,-2.491881
 ,-2.447226,-1.72978\H,0,-1.795666,-1.034484,-2.579907\\Version=ES64L-G
 16RevA.03\HF=-3034.3140244\S2=8.76143\S2-1=0.\S2A=8.750041\RMSD=7.660e
 -09\PG=C01 [X(C8H16Cl3Fe1O1)]\\@


 THE HURRIEDER I GO, THE BEHINDER I GET.
 Job cpu time:       0 days  0 hours 57 minutes 29.9 seconds.
 Elapsed time:       0 days  0 hours 14 minutes 27.6 seconds.
 File lengths (MBytes):  RWF=    174 Int=      0 D2E=      0 Chk=     13 Scr=      1
 Normal termination of Gaussian 16 at Tue Feb 11 15:01:23 2020.
 Initial command:
 /n/sw/g16_nehalem/g16/l1.exe "/scratch/Gau-153923.inp" -scrdir="/scratch/"
 Entering Link 1 = /n/sw/g16_nehalem/g16/l1.exe PID=    157180.
  
 Copyright (c) 1988,1990,1992,1993,1995,1998,2003,2009,2016,
            Gaussian, Inc.  All Rights Reserved.
  
 This is part of the Gaussian(R) 16 program.  It is based on
 the Gaussian(R) 09 system (copyright 2009, Gaussian, Inc.),
 the Gaussian(R) 03 system (copyright 2003, Gaussian, Inc.),
 the Gaussian(R) 98 system (copyright 1998, Gaussian, Inc.),
 the Gaussian(R) 94 system (copyright 1995, Gaussian, Inc.),
 the Gaussian 92(TM) system (copyright 1992, Gaussian, Inc.),
 the Gaussian 90(TM) system (copyright 1990, Gaussian, Inc.),
 the Gaussian 88(TM) system (copyright 1988, Gaussian, Inc.),
 the Gaussian 86(TM) system (copyright 1986, Carnegie Mellon
 University), and the Gaussian 82(TM) system (copyright 1983,
 Carnegie Mellon University). Gaussian is a federally registered
 trademark of Gaussian, Inc.
  
 This software contains proprietary and confidential information,
 including trade secrets, belonging to Gaussian, Inc.
  
 This software is provided under written license and may be
 used, copied, transmitted, or stored only in accord with that
 written license.
  
 The following legend is applicable only to US Government
 contracts under FAR:
  
                    RESTRICTED RIGHTS LEGEND
  
 Use, reproduction and disclosure by the US Government is
 subject to restrictions as set forth in subparagraphs (a)
 and (c) of the Commercial Computer Software - Restricted
 Rights clause in FAR 52.227-19.
  
 Gaussian, Inc.
 340 Quinnipiac St., Bldg. 40, Wallingford CT 06492
  
  
 ---------------------------------------------------------------
 Warning -- This program may not be used in any manner that
 competes with the business of Gaussian, Inc. or will provide
 assistance to any competitor of Gaussian, Inc.  The licensee
 of this program is prohibited from giving any competitor of
 Gaussian, Inc. access to this program.  By using this program,
 the user acknowledges that Gaussian, Inc. is engaged in the
 business of creating and licensing software in the field of
 computational chemistry and represents and warrants to the
 licensee that it is not a competitor of Gaussian, Inc. and that
 it will not use this program in any manner prohibited above.
 ---------------------------------------------------------------
  

 Cite this work as:
 Gaussian 16, Revision A.03,
 M. J. Frisch, G. W. Trucks, H. B. Schlegel, G. E. Scuseria, 
 M. A. Robb, J. R. Cheeseman, G. Scalmani, V. Barone, 
 G. A. Petersson, H. Nakatsuji, X. Li, M. Caricato, A. V. Marenich, 
 J. Bloino, B. G. Janesko, R. Gomperts, B. Mennucci, H. P. Hratchian, 
 J. V. Ortiz, A. F. Izmaylov, J. L. Sonnenberg, D. Williams-Young, 
 F. Ding, F. Lipparini, F. Egidi, J. Goings, B. Peng, A. Petrone, 
 T. Henderson, D. Ranasinghe, V. G. Zakrzewski, J. Gao, N. Rega, 
 G. Zheng, W. Liang, M. Hada, M. Ehara, K. Toyota, R. Fukuda, 
 J. Hasegawa, M. Ishida, T. Nakajima, Y. Honda, O. Kitao, H. Nakai, 
 T. Vreven, K. Throssell, J. A. Montgomery, Jr., J. E. Peralta, 
 F. Ogliaro, M. J. Bearpark, J. J. Heyd, E. N. Brothers, K. N. Kudin, 
 V. N. Staroverov, T. A. Keith, R. Kobayashi, J. Normand, 
 K. Raghavachari, A. P. Rendell, J. C. Burant, S. S. Iyengar, 
 J. Tomasi, M. Cossi, J. M. Millam, M. Klene, C. Adamo, R. Cammi, 
 J. W. Ochterski, R. L. Martin, K. Morokuma, O. Farkas, 
 J. B. Foresman, and D. J. Fox, Gaussian, Inc., Wallingford CT, 2016.
 
 ******************************************
 Gaussian 16:  ES64L-G16RevA.03 25-Dec-2016
                11-Feb-2020 
 ******************************************
 %chk=checkpoint.chk
 %mem=3GB
 %nprocshared=4
 Will use up to    4 processors via shared memory.
 -------------------------------------------------------------------
 #t pop=none jul-cc-pvdz guess=read ub3lyp empiricaldispersion=gd3bj
 -------------------------------------------------------------------
 ------------------------------
 theory_abbreviation b3lyp_d3bj
 ------------------------------
 Symbolic Z-matrix:
 Charge =  0 Multiplicity = 6
 O                    -0.33653  -0.18531  -0.57195 
 C                    -1.33599  -1.10325  -0.46272 
 C                    -2.90684  -0.09684  -0.10277 
 C                    -2.15103   1.09958  -0.22673 
 C                    -1.99467   1.77949  -1.53445 
 Fe                    1.40332   0.04494   0.03564 
 Cl                    1.85297   2.06385  -0.7661 
 C                    -1.58231   1.78787   0.95647 
 Cl                    2.58354  -1.64193  -0.73814 
 Cl                    1.3126    0.05878   2.25837 
 H                    -3.52124  -0.31084  -0.97632 
 H                    -2.39532   2.39544   1.38727 
 H                    -1.25086   1.09523   1.73193 
 H                    -0.75726   2.44889   0.68536 
 H                    -2.59225   2.70397  -1.48388 
 H                    -0.95181   2.07421  -1.68798 
 H                    -2.35677   1.1832   -2.37297 
 C                    -3.58128  -0.45822   1.20693 
 H                    -4.44714   0.19286   1.37873 
 H                    -3.94845  -1.48722   1.17504 
 H                    -2.91713  -0.36539   2.06844 
 C                    -1.16574  -2.06845   0.6889 
 H                    -2.00726  -2.75791   0.78672 
 H                    -0.26392  -2.65372   0.46335 
 H                    -0.98382  -1.55302   1.63286 
 C                    -1.63336  -1.77206  -1.79059 
 H                    -0.74076  -2.35052  -2.0602 
 H                    -2.49188  -2.44723  -1.72978 
 H                    -1.79567  -1.03448  -2.57991 
 
                    Distance matrix (angstroms):
                    1          2          3          4          5
     1  O    0.000000
     2  C    1.361411   0.000000
     3  C    2.614274   1.900000   0.000000
     4  C    2.250006   2.360599   1.420571   0.000000
     5  C    2.745233   3.145258   2.530287   1.482178   0.000000
     6  Fe   1.857216   3.011721   4.314707   3.716786   4.125555
     7  Cl   3.144888   4.504657   5.269184   4.153640   3.933897
     8  C    2.789529   3.230068   2.535448   1.482280   2.524831
     9  Cl   3.267445   3.965947   5.738927   5.494871   5.770644
    10  Cl   3.284806   3.971106   4.837652   4.388137   5.318309
    11  H    3.212729   2.380550   1.089203   2.104430   2.647905
    12  H    3.838939   4.097008   2.948444   2.084214   3.012702
    13  H    2.789915   3.107576   2.743978   2.155617   3.419167
    14  H    2.949050   3.777661   3.423825   2.143633   2.628090
    15  H    3.777276   4.137129   3.138621   2.085463   1.101955
    16  H    2.594130   3.427104   3.323920   2.126799   1.094529
    17  H    3.032797   3.149424   2.663618   2.157695   1.090776
    18  C    3.710427   2.871437   1.516837   2.554942   3.878122
    19  H    4.565660   3.840587   2.156688   2.944785   4.125361
    20  H    4.218160   3.107196   2.156601   3.447784   4.672258
    21  H    3.696430   3.074290   2.187786   2.828582   4.293283
    22  C    2.413201   1.512234   2.746896   3.441744   4.520741
    23  H    3.354935   2.179367   2.946484   3.990991   5.096669
    24  H    2.677711   2.100216   3.720639   4.257304   5.161402
    25  H    2.674095   2.172048   2.971681   3.443361   4.707366
    26  C    2.384247   1.516240   2.697566   3.310584   3.579065
    27  H    2.658270   2.112322   3.688153   4.153747   4.348067
    28  H    3.332020   2.178947   2.888542   3.867190   4.260344
    29  H    2.623367   2.167602   2.872295   3.196551   3.008498
                    6          7          8          9         10
     6  Fe   0.000000
     7  Cl   2.218328   0.000000
     8  C    3.577669   3.852858   0.000000
     9  Cl   2.199362   3.777214   5.655932   0.000000
    10  Cl   2.224631   3.668753   3.614583   3.672443   0.000000
    11  H    5.040027   5.879235   3.449592   6.252750   5.828021
    12  H    4.667060   4.774404   1.102599   6.753284   4.468496
    13  H    3.320415   4.100256   1.091310   5.319390   2.814724
    14  H    3.296856   3.011363   1.091396   5.470120   3.531476
    15  H    5.034274   4.548062   2.795442   6.799395   6.020739
    16  H    3.554633   2.952411   2.733609   5.216377   4.976263
    17  H    4.608175   4.591233   3.471391   5.921209   6.014808
    18  C    5.145023   6.307508   3.017204   6.571870   5.032179
    19  H    6.004465   6.913191   3.305997   7.568227   5.828062
    20  H    5.682176   7.073508   4.046310   6.808163   5.589484
    21  H    4.792383   6.057199   2.766727   6.305860   4.255185
    22  C    3.390162   5.320291   3.887974   4.034287   3.623603
    23  H    4.477960   6.368829   4.568761   4.964480   4.595761
    24  H    3.200833   5.314900   4.659294   3.251971   3.614574
    25  H    3.286790   5.184985   3.460814   4.284345   2.874489
    26  C    3.982212   5.283773   4.496896   4.348201   5.331492
    27  H    3.837682   5.280978   5.189868   3.647044   5.354540
    28  H    4.949761   6.336889   5.096990   5.233713   6.054710
    29  H    4.270797   5.118795   4.529587   4.789420   5.853674
                   11         12         13         14         15
    11  H    0.000000
    12  H    3.765393   0.000000
    13  H    3.803451   1.766107   0.000000
    14  H    4.244628   1.782912   1.780827   0.000000
    15  H    3.195265   2.894390   3.837811   2.852692   0.000000
    16  H    3.577272   3.412347   3.569819   2.410603   1.768981
    17  H    2.353462   3.951004   4.252171   3.676112   1.777263
    18  C    2.189042   3.095537   2.849501   4.086364   4.268264
    19  H    2.580165   3.010211   3.339943   4.380139   4.235662
    20  H    2.488920   4.187157   3.775732   5.090819   5.145408
    21  H    3.104591   2.891097   2.241229   3.807640   4.705902
    22  C    3.377949   4.682509   3.332266   4.535775   5.434326
    23  H    3.374699   5.202721   4.038846   5.355709   5.943904
    24  H    4.262846   5.557919   4.078959   5.131208   6.157728
    25  H    3.845688   4.200351   2.663516   4.118781   5.515708
    26  C    2.522361   5.295988   4.558050   4.971356   4.587853
    27  H    3.614711   6.094812   5.149134   5.529261   5.413683
    28  H    2.488260   5.759927   5.106128   5.728334   5.158038
    29  H    2.464299   5.278493   4.839877   4.886123   3.976412
                   16         17         18         19         20
    16  H    0.000000
    17  H    1.799169   0.000000
    18  C    4.659161   4.124242   0.000000
    19  H    5.016125   4.407457   1.096873   0.000000
    20  H    5.464476   4.717306   1.093016   1.764328   0.000000
    21  H    4.891302   4.736907   1.091745   1.768690   1.766434
    22  C    4.780893   4.622430   2.948904   4.044374   2.884030
    23  H    5.530595   5.063414   2.818284   3.874346   2.352375
    24  H    5.239720   5.210248   4.046974   5.142007   3.929754
    25  H    4.917901   5.041681   2.850752   3.886804   3.000492
    26  C    3.907534   3.097752   3.808640   4.671496   3.773029
    27  H    4.445363   3.898264   4.724773   5.659701   4.636950
    28  H    4.776706   3.689438   3.710423   4.522823   3.388390
    29  H    3.342391   2.296909   4.226187   4.920111   4.351905
                   21         22         23         24         25
    21  H    0.000000
    22  C    2.805516   0.000000
    23  H    2.862668   1.092286   0.000000
    24  H    3.853867   1.098494   1.776137   0.000000
    25  H    2.310386   1.090790   1.793091   1.759985   0.000000
    26  C    4.303366   2.540555   2.784641   2.780820   3.491407
    27  H    5.071785   2.796022   3.142438   2.586046   3.785998
    28  H    4.352171   2.784270   2.581499   3.133096   3.792258
    29  H    4.828306   3.485831   3.788025   3.772213   4.321503
                   26         27         28         29
    26  C    0.000000
    27  H    1.097281   0.000000
    28  H    1.093893   1.784640   0.000000
    29  H    1.092420   1.764895   1.789768   0.000000
 Framework group  C1[X(C8H16Cl3FeO)]
 Deg. of freedom    81
                         Standard orientation:                         
 ---------------------------------------------------------------------
 Center     Atomic      Atomic             Coordinates (Angstroms)
 Number     Number       Type             X           Y           Z
 ---------------------------------------------------------------------
      1          8           0       -0.336532   -0.185312   -0.571950
      2          6           0       -1.335986   -1.103245   -0.462724
      3          6           0       -2.906838   -0.096836   -0.102773
      4          6           0       -2.151031    1.099580   -0.226733
      5          6           0       -1.994674    1.779494   -1.534449
      6         26           0        1.403317    0.044936    0.035637
      7         17           0        1.852966    2.063848   -0.766103
      8          6           0       -1.582308    1.787873    0.956466
      9         17           0        2.583541   -1.641934   -0.738142
     10         17           0        1.312599    0.058782    2.258374
     11          1           0       -3.521239   -0.310838   -0.976316
     12          1           0       -2.395322    2.395439    1.387274
     13          1           0       -1.250857    1.095228    1.731928
     14          1           0       -0.757262    2.448894    0.685364
     15          1           0       -2.592246    2.703970   -1.483880
     16          1           0       -0.951809    2.074206   -1.687981
     17          1           0       -2.356769    1.183202   -2.372969
     18          6           0       -3.581276   -0.458215    1.206934
     19          1           0       -4.447137    0.192861    1.378732
     20          1           0       -3.948447   -1.487220    1.175042
     21          1           0       -2.917130   -0.365388    2.068444
     22          6           0       -1.165738   -2.068449    0.688904
     23          1           0       -2.007260   -2.757914    0.786716
     24          1           0       -0.263918   -2.653715    0.463353
     25          1           0       -0.983818   -1.553015    1.632861
     26          6           0       -1.633361   -1.772062   -1.790593
     27          1           0       -0.740764   -2.350516   -2.060200
     28          1           0       -2.491881   -2.447226   -1.729780
     29          1           0       -1.795666   -1.034484   -2.579907
 ---------------------------------------------------------------------
 Rotational constants (GHZ):           0.5813652           0.3509304           0.3218999
   427 basis functions,  1056 primitive gaussians,   461 cartesian basis functions
    77 alpha electrons       72 beta electrons
       nuclear repulsion energy      1657.0407695577 Hartrees.
 NAtoms=   29 NActive=   29 NUniq=   29 SFac= 1.00D+00 NAtFMM=   60 NAOKFM=F Big=F
 Nuclear repulsion after empirical dispersion term =     1656.9716412414 Hartrees.
 Initial guess from the checkpoint file:  "checkpoint.chk"
 B after Tr=     0.000000    0.000000    0.000000
         Rot=    1.000000    0.000000    0.000000    0.000000 Ang=   0.00 deg.
 Initial guess <Sx>= 0.0000 <Sy>= 0.0000 <Sz>= 2.5000 <S**2>= 8.7614 S= 2.5019
 SCF Done:  E(UB3LYP) =  -3034.38315267     A.U. after    1 cycles
            NFock=  1  Conv=0.42D-08     -V/T= 2.0024
 <Sx>= 0.0000 <Sy>= 0.0000 <Sz>= 2.5000 <S**2>= 8.7614 S= 2.5019
 <L.S>= 0.000000000000E+00
 Annihilation of the first spin contaminant:
 S**2 before annihilation     8.7614,   after     8.7500
 1\1\GINC-HOLY7C12308\SP\UB3LYP\Jul-CC-pVDZ\C8H16Cl3Fe1O1(6)\EKWAN\11-F
 eb-2020\0\\#t pop=none jul-cc-pvdz guess=read ub3lyp empiricaldispersi
 on=gd3bj\\theory_abbreviation b3lyp_d3bj\\0,6\O,0,-0.336532,-0.185312,
 -0.57195\C,0,-1.335986,-1.103245,-0.462724\C,0,-2.906838,-0.096836,-0.
 102773\C,0,-2.151031,1.09958,-0.226733\C,0,-1.994674,1.779494,-1.53444
 9\Fe,0,1.403317,0.044936,0.035637\Cl,0,1.852966,2.063848,-0.766103\C,0
 ,-1.582308,1.787873,0.956466\Cl,0,2.583541,-1.641934,-0.738142\Cl,0,1.
 312599,0.058782,2.258374\H,0,-3.521239,-0.310838,-0.976316\H,0,-2.3953
 22,2.395439,1.387274\H,0,-1.250857,1.095228,1.731928\H,0,-0.757262,2.4
 48894,0.685364\H,0,-2.592246,2.70397,-1.48388\H,0,-0.951809,2.074206,-
 1.687981\H,0,-2.356769,1.183202,-2.372969\C,0,-3.581276,-0.458215,1.20
 6934\H,0,-4.447137,0.192861,1.378732\H,0,-3.948447,-1.48722,1.175042\H
 ,0,-2.91713,-0.365388,2.068444\C,0,-1.165738,-2.068449,0.688904\H,0,-2
 .00726,-2.757914,0.786716\H,0,-0.263918,-2.653715,0.463353\H,0,-0.9838
 18,-1.553015,1.632861\C,0,-1.633361,-1.772062,-1.790593\H,0,-0.740764,
 -2.350516,-2.0602\H,0,-2.491881,-2.447226,-1.72978\H,0,-1.795666,-1.03
 4484,-2.579907\\Version=ES64L-G16RevA.03\HF=-3034.3831527\S2=8.76143\S
 2-1=0.\S2A=8.750041\RMSD=4.164e-09\PG=C01 [X(C8H16Cl3Fe1O1)]\\@


 "PERFECTION IS NOT AN ACCIDENT"
         --  EAGLE ELECTRIC MANUFACTURING CO.,INC. NY
 Job cpu time:       0 days  0 hours  4 minutes 40.2 seconds.
 Elapsed time:       0 days  0 hours  1 minutes 11.8 seconds.
 File lengths (MBytes):  RWF=    170 Int=      0 D2E=      0 Chk=     13 Scr=      1
 Normal termination of Gaussian 16 at Tue Feb 11 15:02:36 2020.
 Initial command:
 /n/sw/g16_nehalem/g16/l1.exe "/scratch/Gau-153923.inp" -scrdir="/scratch/"
 Entering Link 1 = /n/sw/g16_nehalem/g16/l1.exe PID=    157379.
  
 Copyright (c) 1988,1990,1992,1993,1995,1998,2003,2009,2016,
            Gaussian, Inc.  All Rights Reserved.
  
 This is part of the Gaussian(R) 16 program.  It is based on
 the Gaussian(R) 09 system (copyright 2009, Gaussian, Inc.),
 the Gaussian(R) 03 system (copyright 2003, Gaussian, Inc.),
 the Gaussian(R) 98 system (copyright 1998, Gaussian, Inc.),
 the Gaussian(R) 94 system (copyright 1995, Gaussian, Inc.),
 the Gaussian 92(TM) system (copyright 1992, Gaussian, Inc.),
 the Gaussian 90(TM) system (copyright 1990, Gaussian, Inc.),
 the Gaussian 88(TM) system (copyright 1988, Gaussian, Inc.),
 the Gaussian 86(TM) system (copyright 1986, Carnegie Mellon
 University), and the Gaussian 82(TM) system (copyright 1983,
 Carnegie Mellon University). Gaussian is a federally registered
 trademark of Gaussian, Inc.
  
 This software contains proprietary and confidential information,
 including trade secrets, belonging to Gaussian, Inc.
  
 This software is provided under written license and may be
 used, copied, transmitted, or stored only in accord with that
 written license.
  
 The following legend is applicable only to US Government
 contracts under FAR:
  
                    RESTRICTED RIGHTS LEGEND
  
 Use, reproduction and disclosure by the US Government is
 subject to restrictions as set forth in subparagraphs (a)
 and (c) of the Commercial Computer Software - Restricted
 Rights clause in FAR 52.227-19.
  
 Gaussian, Inc.
 340 Quinnipiac St., Bldg. 40, Wallingford CT 06492
  
  
 ---------------------------------------------------------------
 Warning -- This program may not be used in any manner that
 competes with the business of Gaussian, Inc. or will provide
 assistance to any competitor of Gaussian, Inc.  The licensee
 of this program is prohibited from giving any competitor of
 Gaussian, Inc. access to this program.  By using this program,
 the user acknowledges that Gaussian, Inc. is engaged in the
 business of creating and licensing software in the field of
 computational chemistry and represents and warrants to the
 licensee that it is not a competitor of Gaussian, Inc. and that
 it will not use this program in any manner prohibited above.
 ---------------------------------------------------------------
  

 Cite this work as:
 Gaussian 16, Revision A.03,
 M. J. Frisch, G. W. Trucks, H. B. Schlegel, G. E. Scuseria, 
 M. A. Robb, J. R. Cheeseman, G. Scalmani, V. Barone, 
 G. A. Petersson, H. Nakatsuji, X. Li, M. Caricato, A. V. Marenich, 
 J. Bloino, B. G. Janesko, R. Gomperts, B. Mennucci, H. P. Hratchian, 
 J. V. Ortiz, A. F. Izmaylov, J. L. Sonnenberg, D. Williams-Young, 
 F. Ding, F. Lipparini, F. Egidi, J. Goings, B. Peng, A. Petrone, 
 T. Henderson, D. Ranasinghe, V. G. Zakrzewski, J. Gao, N. Rega, 
 G. Zheng, W. Liang, M. Hada, M. Ehara, K. Toyota, R. Fukuda, 
 J. Hasegawa, M. Ishida, T. Nakajima, Y. Honda, O. Kitao, H. Nakai, 
 T. Vreven, K. Throssell, J. A. Montgomery, Jr., J. E. Peralta, 
 F. Ogliaro, M. J. Bearpark, J. J. Heyd, E. N. Brothers, K. N. Kudin, 
 V. N. Staroverov, T. A. Keith, R. Kobayashi, J. Normand, 
 K. Raghavachari, A. P. Rendell, J. C. Burant, S. S. Iyengar, 
 J. Tomasi, M. Cossi, J. M. Millam, M. Klene, C. Adamo, R. Cammi, 
 J. W. Ochterski, R. L. Martin, K. Morokuma, O. Farkas, 
 J. B. Foresman, and D. J. Fox, Gaussian, Inc., Wallingford CT, 2016.
 
 ******************************************
 Gaussian 16:  ES64L-G16RevA.03 25-Dec-2016
                11-Feb-2020 
 ******************************************
 %chk=checkpoint.chk
 %mem=3GB
 %nprocshared=4
 Will use up to    4 processors via shared memory.
 ----------------------------------------
 #t pop=none jul-cc-pvdz guess=read ub97d
 ----------------------------------------
 ------------------------
 theory_abbreviation b97d
 ------------------------
 Symbolic Z-matrix:
 Charge =  0 Multiplicity = 6
 O                    -0.33653  -0.18531  -0.57195 
 C                    -1.33599  -1.10325  -0.46272 
 C                    -2.90684  -0.09684  -0.10277 
 C                    -2.15103   1.09958  -0.22673 
 C                    -1.99467   1.77949  -1.53445 
 Fe                    1.40332   0.04494   0.03564 
 Cl                    1.85297   2.06385  -0.7661 
 C                    -1.58231   1.78787   0.95647 
 Cl                    2.58354  -1.64193  -0.73814 
 Cl                    1.3126    0.05878   2.25837 
 H                    -3.52124  -0.31084  -0.97632 
 H                    -2.39532   2.39544   1.38727 
 H                    -1.25086   1.09523   1.73193 
 H                    -0.75726   2.44889   0.68536 
 H                    -2.59225   2.70397  -1.48388 
 H                    -0.95181   2.07421  -1.68798 
 H                    -2.35677   1.1832   -2.37297 
 C                    -3.58128  -0.45822   1.20693 
 H                    -4.44714   0.19286   1.37873 
 H                    -3.94845  -1.48722   1.17504 
 H                    -2.91713  -0.36539   2.06844 
 C                    -1.16574  -2.06845   0.6889 
 H                    -2.00726  -2.75791   0.78672 
 H                    -0.26392  -2.65372   0.46335 
 H                    -0.98382  -1.55302   1.63286 
 C                    -1.63336  -1.77206  -1.79059 
 H                    -0.74076  -2.35052  -2.0602 
 H                    -2.49188  -2.44723  -1.72978 
 H                    -1.79567  -1.03448  -2.57991 
 
                    Distance matrix (angstroms):
                    1          2          3          4          5
     1  O    0.000000
     2  C    1.361411   0.000000
     3  C    2.614274   1.900000   0.000000
     4  C    2.250006   2.360599   1.420571   0.000000
     5  C    2.745233   3.145258   2.530287   1.482178   0.000000
     6  Fe   1.857216   3.011721   4.314707   3.716786   4.125555
     7  Cl   3.144888   4.504657   5.269184   4.153640   3.933897
     8  C    2.789529   3.230068   2.535448   1.482280   2.524831
     9  Cl   3.267445   3.965947   5.738927   5.494871   5.770644
    10  Cl   3.284806   3.971106   4.837652   4.388137   5.318309
    11  H    3.212729   2.380550   1.089203   2.104430   2.647905
    12  H    3.838939   4.097008   2.948444   2.084214   3.012702
    13  H    2.789915   3.107576   2.743978   2.155617   3.419167
    14  H    2.949050   3.777661   3.423825   2.143633   2.628090
    15  H    3.777276   4.137129   3.138621   2.085463   1.101955
    16  H    2.594130   3.427104   3.323920   2.126799   1.094529
    17  H    3.032797   3.149424   2.663618   2.157695   1.090776
    18  C    3.710427   2.871437   1.516837   2.554942   3.878122
    19  H    4.565660   3.840587   2.156688   2.944785   4.125361
    20  H    4.218160   3.107196   2.156601   3.447784   4.672258
    21  H    3.696430   3.074290   2.187786   2.828582   4.293283
    22  C    2.413201   1.512234   2.746896   3.441744   4.520741
    23  H    3.354935   2.179367   2.946484   3.990991   5.096669
    24  H    2.677711   2.100216   3.720639   4.257304   5.161402
    25  H    2.674095   2.172048   2.971681   3.443361   4.707366
    26  C    2.384247   1.516240   2.697566   3.310584   3.579065
    27  H    2.658270   2.112322   3.688153   4.153747   4.348067
    28  H    3.332020   2.178947   2.888542   3.867190   4.260344
    29  H    2.623367   2.167602   2.872295   3.196551   3.008498
                    6          7          8          9         10
     6  Fe   0.000000
     7  Cl   2.218328   0.000000
     8  C    3.577669   3.852858   0.000000
     9  Cl   2.199362   3.777214   5.655932   0.000000
    10  Cl   2.224631   3.668753   3.614583   3.672443   0.000000
    11  H    5.040027   5.879235   3.449592   6.252750   5.828021
    12  H    4.667060   4.774404   1.102599   6.753284   4.468496
    13  H    3.320415   4.100256   1.091310   5.319390   2.814724
    14  H    3.296856   3.011363   1.091396   5.470120   3.531476
    15  H    5.034274   4.548062   2.795442   6.799395   6.020739
    16  H    3.554633   2.952411   2.733609   5.216377   4.976263
    17  H    4.608175   4.591233   3.471391   5.921209   6.014808
    18  C    5.145023   6.307508   3.017204   6.571870   5.032179
    19  H    6.004465   6.913191   3.305997   7.568227   5.828062
    20  H    5.682176   7.073508   4.046310   6.808163   5.589484
    21  H    4.792383   6.057199   2.766727   6.305860   4.255185
    22  C    3.390162   5.320291   3.887974   4.034287   3.623603
    23  H    4.477960   6.368829   4.568761   4.964480   4.595761
    24  H    3.200833   5.314900   4.659294   3.251971   3.614574
    25  H    3.286790   5.184985   3.460814   4.284345   2.874489
    26  C    3.982212   5.283773   4.496896   4.348201   5.331492
    27  H    3.837682   5.280978   5.189868   3.647044   5.354540
    28  H    4.949761   6.336889   5.096990   5.233713   6.054710
    29  H    4.270797   5.118795   4.529587   4.789420   5.853674
                   11         12         13         14         15
    11  H    0.000000
    12  H    3.765393   0.000000
    13  H    3.803451   1.766107   0.000000
    14  H    4.244628   1.782912   1.780827   0.000000
    15  H    3.195265   2.894390   3.837811   2.852692   0.000000
    16  H    3.577272   3.412347   3.569819   2.410603   1.768981
    17  H    2.353462   3.951004   4.252171   3.676112   1.777263
    18  C    2.189042   3.095537   2.849501   4.086364   4.268264
    19  H    2.580165   3.010211   3.339943   4.380139   4.235662
    20  H    2.488920   4.187157   3.775732   5.090819   5.145408
    21  H    3.104591   2.891097   2.241229   3.807640   4.705902
    22  C    3.377949   4.682509   3.332266   4.535775   5.434326
    23  H    3.374699   5.202721   4.038846   5.355709   5.943904
    24  H    4.262846   5.557919   4.078959   5.131208   6.157728
    25  H    3.845688   4.200351   2.663516   4.118781   5.515708
    26  C    2.522361   5.295988   4.558050   4.971356   4.587853
    27  H    3.614711   6.094812   5.149134   5.529261   5.413683
    28  H    2.488260   5.759927   5.106128   5.728334   5.158038
    29  H    2.464299   5.278493   4.839877   4.886123   3.976412
                   16         17         18         19         20
    16  H    0.000000
    17  H    1.799169   0.000000
    18  C    4.659161   4.124242   0.000000
    19  H    5.016125   4.407457   1.096873   0.000000
    20  H    5.464476   4.717306   1.093016   1.764328   0.000000
    21  H    4.891302   4.736907   1.091745   1.768690   1.766434
    22  C    4.780893   4.622430   2.948904   4.044374   2.884030
    23  H    5.530595   5.063414   2.818284   3.874346   2.352375
    24  H    5.239720   5.210248   4.046974   5.142007   3.929754
    25  H    4.917901   5.041681   2.850752   3.886804   3.000492
    26  C    3.907534   3.097752   3.808640   4.671496   3.773029
    27  H    4.445363   3.898264   4.724773   5.659701   4.636950
    28  H    4.776706   3.689438   3.710423   4.522823   3.388390
[...]
 ---------------------------------------------------------------------
 Rotational constants (GHZ):           0.5813652           0.3509304           0.3218999
   427 basis functions,  1056 primitive gaussians,   461 cartesian basis functions
    77 alpha electrons       72 beta electrons
       nuclear repulsion energy      1657.0407695577 Hartrees.
 NAtoms=   29 NActive=   29 NUniq=   29 SFac= 1.00D+00 NAtFMM=   60 NAOKFM=F Big=F
 Nuclear repulsion after empirical dispersion term =     1657.0383534172 Hartrees.
 Initial guess from the checkpoint file:  "checkpoint.chk"
 B after Tr=     0.000000    0.000000    0.000000
         Rot=    1.000000    0.000000    0.000000    0.000000 Ang=   0.00 deg.
 Initial guess <Sx>= 0.0000 <Sy>= 0.0000 <Sz>= 2.5000 <S**2>= 8.7612 S= 2.5019
 SCF Done:  E(UM06L) =  -3034.17998232     A.U. after   18 cycles
            NFock= 18  Conv=0.34D-08     -V/T= 2.0020
 <Sx>= 0.0000 <Sy>= 0.0000 <Sz>= 2.5000 <S**2>= 8.7614 S= 2.5019
 <L.S>= 0.000000000000E+00
 Annihilation of the first spin contaminant:
 S**2 before annihilation     8.7614,   after     8.7500
 1\1\GINC-HOLY7C12308\SP\UM06L\Jul-CC-pVDZ\C8H16Cl3Fe1O1(6)\EKWAN\11-Fe
 b-2020\0\\#t pop=none jul-cc-pvdz guess=read um06l empiricaldispersion
 =gd3\\theory_abbreviation m06l_d3\\0,6\O,0,-0.336532,-0.185312,-0.5719
 5\C,0,-1.335986,-1.103245,-0.462724\C,0,-2.906838,-0.096836,-0.102773\
 C,0,-2.151031,1.09958,-0.226733\C,0,-1.994674,1.779494,-1.534449\Fe,0,
 1.403317,0.044936,0.035637\Cl,0,1.852966,2.063848,-0.766103\C,0,-1.582
 308,1.787873,0.956466\Cl,0,2.583541,-1.641934,-0.738142\Cl,0,1.312599,
 0.058782,2.258374\H,0,-3.521239,-0.310838,-0.976316\H,0,-2.395322,2.39
 5439,1.387274\H,0,-1.250857,1.095228,1.731928\H,0,-0.757262,2.448894,0
 .685364\H,0,-2.592246,2.70397,-1.48388\H,0,-0.951809,2.074206,-1.68798
 1\H,0,-2.356769,1.183202,-2.372969\C,0,-3.581276,-0.458215,1.206934\H,
 0,-4.447137,0.192861,1.378732\H,0,-3.948447,-1.48722,1.175042\H,0,-2.9
 1713,-0.365388,2.068444\C,0,-1.165738,-2.068449,0.688904\H,0,-2.00726,
 -2.757914,0.786716\H,0,-0.263918,-2.653715,0.463353\H,0,-0.983818,-1.5
 53015,1.632861\C,0,-1.633361,-1.772062,-1.790593\H,0,-0.740764,-2.3505
 16,-2.0602\H,0,-2.491881,-2.447226,-1.72978\H,0,-1.795666,-1.034484,-2
 .579907\\Version=ES64L-G16RevA.03\HF=-3034.1799823\S2=8.761443\S2-1=0.
 \S2A=8.750042\RMSD=3.383e-09\PG=C01 [X(C8H16Cl3Fe1O1)]\\@


 BRING ME INTO THE COMPANY OF THOSE WHO SEEK TRUTH,
 AND DELIVER ME FROM THOSE WHO HAVE FOUND IT.
 Job cpu time:       0 days  1 hours 18 minutes 50.1 seconds.
 Elapsed time:       0 days  0 hours 19 minutes 48.3 seconds.
 File lengths (MBytes):  RWF=    174 Int=      0 D2E=      0 Chk=     13 Scr=      1
 Normal termination of Gaussian 16 at Tue Feb 11 23:43:11 2020.
 Initial command:
 /n/sw/g16_nehalem/g16/l1.exe "/scratch/Gau-153923.inp" -scrdir="/scratch/"
 Entering Link 1 = /n/sw/g16_nehalem/g16/l1.exe PID=    200533.
  
 Copyright (c) 1988,1990,1992,1993,1995,1998,2003,2009,2016,
            Gaussian, Inc.  All Rights Reserved.
  
 This is part of the Gaussian(R) 16 program.  It is based on
 the Gaussian(R) 09 system (copyright 2009, Gaussian, Inc.),
 the Gaussian(R) 03 system (copyright 2003, Gaussian, Inc.),
 the Gaussian(R) 98 system (copyright 1998, Gaussian, Inc.),
 the Gaussian(R) 94 system (copyright 1995, Gaussian, Inc.),
 the Gaussian 92(TM) system (copyright 1992, Gaussian, Inc.),
 the Gaussian 90(TM) system (copyright 1990, Gaussian, Inc.),
 the Gaussian 88(TM) system (copyright 1988, Gaussian, Inc.),
 the Gaussian 86(TM) system (copyright 1986, Carnegie Mellon
 University), and the Gaussian 82(TM) system (copyright 1983,
 Carnegie Mellon University). Gaussian is a federally registered
 trademark of Gaussian, Inc.
  
 This software contains proprietary and confidential information,
 including trade secrets, belonging to Gaussian, Inc.
  
 This software is provided under written license and may be
 used, copied, transmitted, or stored only in accord with that
 written license.
  
 The following legend is applicable only to US Government
 contracts under FAR:
  
                    RESTRICTED RIGHTS LEGEND
  
 Use, reproduction and disclosure by the US Government is
 subject to restrictions as set forth in subparagraphs (a)
 and (c) of the Commercial Computer Software - Restricted
 Rights clause in FAR 52.227-19.
  
 Gaussian, Inc.
 340 Quinnipiac St., Bldg. 40, Wallingford CT 06492
  
  
 ---------------------------------------------------------------
 Warning -- This program may not be used in any manner that
 competes with the business of Gaussian, Inc. or will provide
 assistance to any competitor of Gaussian, Inc.  The licensee
 of this program is prohibited from giving any competitor of
 Gaussian, Inc. access to this program.  By using this program,
 the user acknowledges that Gaussian, Inc. is engaged in the
 business of creating and licensing software in the field of
 computational chemistry and represents and warrants to the
 licensee that it is not a competitor of Gaussian, Inc. and that
 it will not use this program in any manner prohibited above.
 ---------------------------------------------------------------
  

 Cite this work as:
 Gaussian 16, Revision A.03,
 M. J. Frisch, G. W. Trucks, H. B. Schlegel, G. E. Scuseria, 
 M. A. Robb, J. R. Cheeseman, G. Scalmani, V. Barone, 
 G. A. Petersson, H. Nakatsuji, X. Li, M. Caricato, A. V. Marenich, 
 J. Bloino, B. G. Janesko, R. Gomperts, B. Mennucci, H. P. Hratchian, 
 J. V. Ortiz, A. F. Izmaylov, J. L. Sonnenberg, D. Williams-Young, 
 F. Ding, F. Lipparini, F. Egidi, J. Goings, B. Peng, A. Petrone, 
 T. Henderson, D. Ranasinghe, V. G. Zakrzewski, J. Gao, N. Rega, 
 G. Zheng, W. Liang, M. Hada, M. Ehara, K. Toyota, R. Fukuda, 
 J. Hasegawa, M. Ishida, T. Nakajima, Y. Honda, O. Kitao, H. Nakai, 
 T. Vreven, K. Throssell, J. A. Montgomery, Jr., J. E. Peralta, 
 F. Ogliaro, M. J. Bearpark, J. J. Heyd, E. N. Brothers, K. N. Kudin, 
 V. N. Staroverov, T. A. Keith, R. Kobayashi, J. Normand, 
 K. Raghavachari, A. P. Rendell, J. C. Burant, S. S. Iyengar, 
 J. Tomasi, M. Cossi, J. M. Millam, M. Klene, C. Adamo, R. Cammi, 
 J. W. Ochterski, R. L. Martin, K. Morokuma, O. Farkas, 
 J. B. Foresman, and D. J. Fox, Gaussian, Inc., Wallingford CT, 2016.
 
 ******************************************
 Gaussian 16:  ES64L-G16RevA.03 25-Dec-2016
                11-Feb-2020 
 ******************************************
 %chk=checkpoint.chk
 %mem=3GB
 %nprocshared=4
 Will use up to    4 processors via shared memory.
 -------------------------------------------------------------------
 #t pop=none jul-cc-pvdz guess=read ub97d3 empiricaldispersion=gd3bj
 -------------------------------------------------------------------
 ------------------------------
 theory_abbreviation b97d3_d3bj
 ------------------------------
 Symbolic Z-matrix:
 Charge =  0 Multiplicity = 6
 O                    -0.33653  -0.18531  -0.57195 
 C                    -1.33599  -1.10325  -0.46272 
 C                    -2.90684  -0.09684  -0.10277 
 C                    -2.15103   1.09958  -0.22673 
 C                    -1.99467   1.77949  -1.53445 
 Fe                    1.40332   0.04494   0.03564 
 Cl                    1.85297   2.06385  -0.7661 
 C                    -1.58231   1.78787   0.95647 
 Cl                    2.58354  -1.64193  -0.73814 
 Cl                    1.3126    0.05878   2.25837 
 H                    -3.52124  -0.31084  -0.97632 
 H                    -2.39532   2.39544   1.38727 
 H                    -1.25086   1.09523   1.73193 
 H                    -0.75726   2.44889   0.68536 
 H                    -2.59225   2.70397  -1.48388 
 H                    -0.95181   2.07421  -1.68798 
 H                    -2.35677   1.1832   -2.37297 
 C                    -3.58128  -0.45822   1.20693 
 H                    -4.44714   0.19286   1.37873 
 H                    -3.94845  -1.48722   1.17504 
 H                    -2.91713  -0.36539   2.06844 
 C                    -1.16574  -2.06845   0.6889 
 H                    -2.00726  -2.75791   0.78672 
 H                    -0.26392  -2.65372   0.46335 
 H                    -0.98382  -1.55302   1.63286 
 C                    -1.63336  -1.77206  -1.79059 
 H                    -0.74076  -2.35052  -2.0602 
 H                    -2.49188  -2.44723  -1.72978 
 H                    -1.79567  -1.03448  -2.57991 
 
                    Distance matrix (angstroms):
                    1          2          3          4          5
     1  O    0.000000
     2  C    1.361411   0.000000
     3  C    2.614274   1.900000   0.000000
     4  C    2.250006   2.360599   1.420571   0.000000
     5  C    2.745233   3.145258   2.530287   1.482178   0.000000
     6  Fe   1.857216   3.011721   4.314707   3.716786   4.125555
     7  Cl   3.144888   4.504657   5.269184   4.153640   3.933897
     8  C    2.789529   3.230068   2.535448   1.482280   2.524831
     9  Cl   3.267445   3.965947   5.738927   5.494871   5.770644
    10  Cl   3.284806   3.971106   4.837652   4.388137   5.318309
    11  H    3.212729   2.380550   1.089203   2.104430   2.647905
    12  H    3.838939   4.097008   2.948444   2.084214   3.012702
    13  H    2.789915   3.107576   2.743978   2.155617   3.419167
    14  H    2.949050   3.777661   3.423825   2.143633   2.628090
    15  H    3.777276   4.137129   3.138621   2.085463   1.101955
    16  H    2.594130   3.427104   3.323920   2.126799   1.094529
    17  H    3.032797   3.149424   2.663618   2.157695   1.090776
    18  C    3.710427   2.871437   1.516837   2.554942   3.878122
    19  H    4.565660   3.840587   2.156688   2.944785   4.125361
    20  H    4.218160   3.107196   2.156601   3.447784   4.672258
    21  H    3.696430   3.074290   2.187786   2.828582   4.293283
    22  C    2.413201   1.512234   2.746896   3.441744   4.520741
    23  H    3.354935   2.179367   2.946484   3.990991   5.096669
    24  H    2.677711   2.100216   3.720639   4.257304   5.161402
    25  H    2.674095   2.172048   2.971681   3.443361   4.707366
    26  C    2.384247   1.516240   2.697566   3.310584   3.579065
    27  H    2.658270   2.112322   3.688153   4.153747   4.348067
    28  H    3.332020   2.178947   2.888542   3.867190   4.260344
    29  H    2.623367   2.167602   2.872295   3.196551   3.008498
                    6          7          8          9         10
     6  Fe   0.000000
     7  Cl   2.218328   0.000000
     8  C    3.577669   3.852858   0.000000
     9  Cl   2.199362   3.777214   5.655932   0.000000
    10  Cl   2.224631   3.668753   3.614583   3.672443   0.000000
    11  H    5.040027   5.879235   3.449592   6.252750   5.828021
    12  H    4.667060   4.774404   1.102599   6.753284   4.468496
    13  H    3.320415   4.100256   1.091310   5.319390   2.814724
    14  H    3.296856   3.011363   1.091396   5.470120   3.531476
    15  H    5.034274   4.548062   2.795442   6.799395   6.020739
    16  H    3.554633   2.952411   2.733609   5.216377   4.976263
    17  H    4.608175   4.591233   3.471391   5.921209   6.014808
    18  C    5.145023   6.307508   3.017204   6.571870   5.032179
    19  H    6.004465   6.913191   3.305997   7.568227   5.828062
    20  H    5.682176   7.073508   4.046310   6.808163   5.589484
    21  H    4.792383   6.057199   2.766727   6.305860   4.255185
    22  C    3.390162   5.320291   3.887974   4.034287   3.623603
    23  H    4.477960   6.368829   4.568761   4.964480   4.595761
    24  H    3.200833   5.314900   4.659294   3.251971   3.614574
    25  H    3.286790   5.184985   3.460814   4.284345   2.874489
    26  C    3.982212   5.283773   4.496896   4.348201   5.331492
    27  H    3.837682   5.280978   5.189868   3.647044   5.354540
    28  H    4.949761   6.336889   5.096990   5.233713   6.054710
    29  H    4.270797   5.118795   4.529587   4.789420   5.853674
                   11         12         13         14         15
    11  H    0.000000
    12  H    3.765393   0.000000
    13  H    3.803451   1.766107   0.000000
    14  H    4.244628   1.782912   1.780827   0.000000
    15  H    3.195265   2.894390   3.837811   2.852692   0.000000
    16  H    3.577272   3.412347   3.569819   2.410603   1.768981
    17  H    2.353462   3.951004   4.252171   3.676112   1.777263
    18  C    2.189042   3.095537   2.849501   4.086364   4.268264
    19  H    2.580165   3.010211   3.339943   4.380139   4.235662
    20  H    2.488920   4.187157   3.775732   5.090819   5.145408
    21  H    3.104591   2.891097   2.241229   3.807640   4.705902
    22  C    3.377949   4.682509   3.332266   4.535775   5.434326
    23  H    3.374699   5.202721   4.038846   5.355709   5.943904
    24  H    4.262846   5.557919   4.078959   5.131208   6.157728
    25  H    3.845688   4.200351   2.663516   4.118781   5.515708
    26  C    2.522361   5.295988   4.558050   4.971356   4.587853
    27  H    3.614711   6.094812   5.149134   5.529261   5.413683
    28  H    2.488260   5.759927   5.106128   5.728334   5.158038
    29  H    2.464299   5.278493   4.839877   4.886123   3.976412
                   16         17         18         19         20
    16  H    0.000000
    17  H    1.799169   0.000000
    18  C    4.659161   4.124242   0.000000
    19  H    5.016125   4.407457   1.096873   0.000000
    20  H    5.464476   4.717306   1.093016   1.764328   0.000000
    21  H    4.891302   4.736907   1.091745   1.768690   1.766434
    22  C    4.780893   4.622430   2.948904   4.044374   2.884030
    23  H    5.530595   5.063414   2.818284   3.874346   2.352375
    24  H    5.239720   5.210248   4.046974   5.142007   3.929754
    25  H    4.917901   5.041681   2.850752   3.886804   3.000492
    26  C    3.907534   3.097752   3.808640   4.671496   3.773029
    27  H    4.445363   3.898264   4.724773   5.659701   4.636950
    28  H    4.776706   3.689438   3.710423   4.522823   3.388390
    29  H    3.342391   2.296909   4.226187   4.920111   4.351905
                   21         22         23         24         25
    21  H    0.000000
    22  C    2.805516   0.000000
    23  H    2.862668   1.092286   0.000000
    24  H    3.853867   1.098494   1.776137   0.000000
    25  H    2.310386   1.090790   1.793091   1.759985   0.000000
    26  C    4.303366   2.540555   2.784641   2.780820   3.491407
    27  H    5.071785   2.796022   3.142438   2.586046   3.785998
    28  H    4.352171   2.784270   2.581499   3.133096   3.792258
    29  H    4.828306   3.485831   3.788025   3.772213   4.321503
                   26         27         28         29
    26  C    0.000000
    27  H    1.097281   0.000000
    28  H    1.093893   1.784640   0.000000
    29  H    1.092420   1.764895   1.789768   0.000000
 Framework group  C1[X(C8H16Cl3FeO)]
 Deg. of freedom    81
                         Standard orientation:                         
 ---------------------------------------------------------------------
 Center     Atomic      Atomic             Coordinates (Angstroms)
 Number     Number       Type             X           Y           Z
 ---------------------------------------------------------------------
      1          8           0       -0.336532   -0.185312   -0.571950
      2          6           0       -1.335986   -1.103245   -0.462724
      3          6           0       -2.906838   -0.096836   -0.102773
      4          6           0       -2.151031    1.099580   -0.226733
      5          6           0       -1.994674    1.779494   -1.534449
      6         26           0        1.403317    0.044936    0.035637
      7         17           0        1.852966    2.063848   -0.766103
      8          6           0       -1.582308    1.787873    0.956466
      9         17           0        2.583541   -1.641934   -0.738142
     10         17           0        1.312599    0.058782    2.258374
     11          1           0       -3.521239   -0.310838   -0.976316
     12          1           0       -2.395322    2.395439    1.387274
     13          1           0       -1.250857    1.095228    1.731928
     14          1           0       -0.757262    2.448894    0.685364
     15          1           0       -2.592246    2.703970   -1.483880
     16          1           0       -0.951809    2.074206   -1.687981
     17          1           0       -2.356769    1.183202   -2.372969
     18          6           0       -3.581276   -0.458215    1.206934
     19          1           0       -4.447137    0.192861    1.378732
     20          1           0       -3.948447   -1.487220    1.175042
     21          1           0       -2.917130   -0.365388    2.068444
     22          6           0       -1.165738   -2.068449    0.688904
     23          1           0       -2.007260   -2.757914    0.786716
     24          1           0       -0.263918   -2.653715    0.463353
     25          1           0       -0.983818   -1.553015    1.632861
     26          6           0       -1.633361   -1.772062   -1.790593
     27          1           0       -0.740764   -2.350516   -2.060200
     28          1           0       -2.491881   -2.447226   -1.729780
     29          1           0       -1.795666   -1.034484   -2.579907
 ---------------------------------------------------------------------
 Rotational constants (GHZ):           0.5813652           0.3509304           0.3218999
   427 basis functions,  1056 primitive gaussians,   461 cartesian basis functions
    77 alpha electrons       72 beta electrons
       nuclear repulsion energy      1657.0407695577 Hartrees.
 NAtoms=   29 NActive=   29 NUniq=   29 SFac= 1.00D+00 NAtFMM=   60 NAOKFM=F Big=F
 Nuclear repulsion after empirical dispersion term =     1656.9394226158 Hartrees.
 Initial guess from the checkpoint file:  "checkpoint.chk"
 B after Tr=     0.000000    0.000000    0.000000
         Rot=    1.000000    0.000000    0.000000    0.000000 Ang=   0.00 deg.
 Initial guess <Sx>= 0.0000 <Sy>= 0.0000 <Sz>= 2.5000 <S**2>= 8.7614 S= 2.5019
 SCF Done:  E(UB97D3) =  -3034.60065099     A.U. after   14 cycles
            NFock= 14  Conv=0.86D-08     -V/T= 2.0020
 <Sx>= 0.0000 <Sy>= 0.0000 <Sz>= 2.5000 <S**2>= 8.7594 S= 2.5016
 <L.S>= 0.000000000000E+00
 Annihilation of the first spin contaminant:
 S**2 before annihilation     8.7594,   after     8.7500
 1\1\GINC-HOLY7C12308\SP\UB97D3\Jul-CC-pVDZ\C8H16Cl3Fe1O1(6)\EKWAN\11-F
 eb-2020\0\\#t pop=none jul-cc-pvdz guess=read ub97d3 empiricaldispersi
 on=gd3bj\\theory_abbreviation b97d3_d3bj\\0,6\O,0,-0.336532,-0.185312,
 -0.57195\C,0,-1.335986,-1.103245,-0.462724\C,0,-2.906838,-0.096836,-0.
 102773\C,0,-2.151031,1.09958,-0.226733\C,0,-1.994674,1.779494,-1.53444
 9\Fe,0,1.403317,0.044936,0.035637\Cl,0,1.852966,2.063848,-0.766103\C,0
 ,-1.582308,1.787873,0.956466\Cl,0,2.583541,-1.641934,-0.738142\Cl,0,1.
 312599,0.058782,2.258374\H,0,-3.521239,-0.310838,-0.976316\H,0,-2.3953
 22,2.395439,1.387274\H,0,-1.250857,1.095228,1.731928\H,0,-0.757262,2.4
 48894,0.685364\H,0,-2.592246,2.70397,-1.48388\H,0,-0.951809,2.074206,-
 1.687981\H,0,-2.356769,1.183202,-2.372969\C,0,-3.581276,-0.458215,1.20
 6934\H,0,-4.447137,0.192861,1.378732\H,0,-3.948447,-1.48722,1.175042\H
 ,0,-2.91713,-0.365388,2.068444\C,0,-1.165738,-2.068449,0.688904\H,0,-2
 .00726,-2.757914,0.786716\H,0,-0.263918,-2.653715,0.463353\H,0,-0.9838
 18,-1.553015,1.632861\C,0,-1.633361,-1.772062,-1.790593\H,0,-0.740764,
 -2.350516,-2.0602\H,0,-2.491881,-2.447226,-1.72978\H,0,-1.795666,-1.03
 4484,-2.579907\\Version=ES64L-G16RevA.03\HF=-3034.600651\S2=8.759352\S
 2-1=0.\S2A=8.750028\RMSD=8.608e-09\PG=C01 [X(C8H16Cl3Fe1O1)]\\@


 I DON'T PRETEND TO UNDERSTAND THE UNIVERSE --
 IT'S A GREAT DEAL BIGGER THAN I AM.
       -- ATTR. TO WILLIAM ALLINGHAM (1828-89)
 Job cpu time:       0 days  0 hours 45 minutes  4.3 seconds.
 Elapsed time:       0 days  0 hours 11 minutes 21.9 seconds.
 File lengths (MBytes):  RWF=    174 Int=      0 D2E=      0 Chk=     13 Scr=      1
 Normal termination of Gaussian 16 at Tue Feb 11 23:54:33 2020.
