 Entering Gaussian System, Link 0=g16
 Input=simple-grid-285-285-b3lyp_d3bj-631gd-gas-singlepoint-DFT-juldz2-gas.gjf
 Output=simple-grid-285-285-b3lyp_d3bj-631gd-gas-singlepoint-DFT-juldz2-gas.out
 Initial command:
 /n/sw/g16_nehalem/g16/l1.exe "/scratch/Gau-240160.inp" -scrdir="/scratch/"
 Entering Link 1 = /n/sw/g16_nehalem/g16/l1.exe PID=    240162.
  
 Copyright (c) 1988,1990,1992,1993,1995,1998,2003,2009,2016,
            Gaussian, Inc.  All Rights Reserved.
  
 This is part of the Gaussian(R) 16 program.  It is based on
 the Gaussian(R) 09 system (copyright 2009, Gaussian, Inc.),
 the Gaussian(R) 03 system (copyright 2003, Gaussian, Inc.),
 the Gaussian(R) 98 system (copyright 1998, Gaussian, Inc.),
 the Gaussian(R) 94 system (copyright 1995, Gaussian, Inc.),
 the Gaussian 92(TM) system (copyright 1992, Gaussian, Inc.),
 the Gaussian 90(TM) system (copyright 1990, Gaussian, Inc.),
 the Gaussian 88(TM) system (copyright 1988, Gaussian, Inc.),
 the Gaussian 86(TM) system (copyright 1986, Carnegie Mellon
 University), and the Gaussian 82(TM) system (copyright 1983,
 Carnegie Mellon University). Gaussian is a federally registered
 trademark of Gaussian, Inc.
  
 This software contains proprietary and confidential information,
 including trade secrets, belonging to Gaussian, Inc.
  
 This software is provided under written license and may be
 used, copied, transmitted, or stored only in accord with that
 written license.
  
 The following legend is applicable only to US Government
 contracts under FAR:
  
                    RESTRICTED RIGHTS LEGEND
  
 Use, reproduction and disclosure by the US Government is
 subject to restrictions as set forth in subparagraphs (a)
 and (c) of the Commercial Computer Software - Restricted
 Rights clause in FAR 52.227-19.
  
 Gaussian, Inc.
 340 Quinnipiac St., Bldg. 40, Wallingford CT 06492
  
  
 ---------------------------------------------------------------
 Warning -- This program may not be used in any manner that
 competes with the business of Gaussian, Inc. or will provide
 assistance to any competitor of Gaussian, Inc.  The licensee
 of this program is prohibited from giving any competitor of
 Gaussian, Inc. access to this program.  By using this program,
 the user acknowledges that Gaussian, Inc. is engaged in the
 business of creating and licensing software in the field of
 computational chemistry and represents and warrants to the
 licensee that it is not a competitor of Gaussian, Inc. and that
 it will not use this program in any manner prohibited above.
 ---------------------------------------------------------------
  

 Cite this work as:
 Gaussian 16, Revision A.03,
 M. J. Frisch, G. W. Trucks, H. B. Schlegel, G. E. Scuseria, 
 M. A. Robb, J. R. Cheeseman, G. Scalmani, V. Barone, 
 G. A. Petersson, H. Nakatsuji, X. Li, M. Caricato, A. V. Marenich, 
 J. Bloino, B. G. Janesko, R. Gomperts, B. Mennucci, H. P. Hratchian, 
 J. V. Ortiz, A. F. Izmaylov, J. L. Sonnenberg, D. Williams-Young, 
 F. Ding, F. Lipparini, F. Egidi, J. Goings, B. Peng, A. Petrone, 
 T. Henderson, D. Ranasinghe, V. G. Zakrzewski, J. Gao, N. Rega, 
 G. Zheng, W. Liang, M. Hada, M. Ehara, K. Toyota, R. Fukuda, 
 J. Hasegawa, M. Ishida, T. Nakajima, Y. Honda, O. Kitao, H. Nakai, 
 T. Vreven, K. Throssell, J. A. Montgomery, Jr., J. E. Peralta, 
 F. Ogliaro, M. J. Bearpark, J. J. Heyd, E. N. Brothers, K. N. Kudin, 
 V. N. Staroverov, T. A. Keith, R. Kobayashi, J. Normand, 
 K. Raghavachari, A. P. Rendell, J. C. Burant, S. S. Iyengar, 
 J. Tomasi, M. Cossi, J. M. Millam, M. Klene, C. Adamo, R. Cammi, 
 J. W. Ochterski, R. L. Martin, K. Morokuma, O. Farkas, 
 J. B. Foresman, and D. J. Fox, Gaussian, Inc., Wallingford CT, 2016.
 
 ******************************************
 Gaussian 16:  ES64L-G16RevA.03 25-Dec-2016
                12-Feb-2020 
 ******************************************
 %chk=checkpoint.chk
 %mem=3GB
 %nprocshared=4
 Will use up to    4 processors via shared memory.
 --------------------------------
 #t pop=none jul-cc-pvdz upbe1pbe
 --------------------------------
 ------------------------
 theory_abbreviation pbe0
 ------------------------
 Symbolic Z-matrix:
 Charge =  0 Multiplicity = 6
 O                     0.20078   0.41093  -0.86185 
 C                     0.94398   1.39409  -0.65127 
 C                     3.15684   0.03207   0.51949 
 C                     2.62711  -0.94771  -0.23769 
 C                     3.02292  -1.12441  -1.67969 
 Fe                   -1.47705  -0.16647   0.02478 
 Cl                   -2.07728  -1.95829  -1.04662 
 C                     1.68299  -1.99856   0.27185 
 Cl                   -2.71421   1.60544  -0.32225 
 Cl                   -1.0693   -0.47043   2.15751 
 H                     3.88799   0.68879   0.04572 
 H                     2.18667  -2.9749    0.27517 
 H                     1.3133   -1.8078    1.27899 
 H                     0.82144  -2.10521  -0.39828 
 H                     3.48982  -2.10749  -1.82476 
 H                     2.13998  -1.10457  -2.33199 
 H                     3.73317  -0.36297  -2.01556 
 C                     2.98103   0.23124   2.00005 
 H                     3.81999  -0.21866   2.5487 
 H                     2.97426   1.29502   2.26243 
 H                     2.06044  -0.21542   2.38405 
 C                     0.80955   2.21863   0.5886 
 H                     1.69014   2.83781   0.76447 
 H                    -0.05783   2.87737   0.43255 
 H                     0.59241   1.59857   1.45923 
 C                     1.76639   1.92466  -1.78342 
 H                     1.21831   2.78879  -2.18725 
 H                     2.73965   2.28265  -1.44313 
 H                     1.87574   1.18445  -2.57412 
 
                    Distance matrix (angstroms):
                    1          2          3          4          5
     1  O    0.000000
     2  C    1.250311   0.000000
     3  C    3.284792   2.850001   0.000000
     4  C    2.850004   2.913418   1.346811   0.000000
     5  C    3.315207   3.423810   2.488324   1.505747   0.000000
     6  Fe   1.983582   2.958668   4.664446   4.186088   4.906385
     7  Cl   3.291944   4.530199   5.814653   4.879230   5.206553
     8  C    3.047592   3.592817   2.521312   1.501752   2.523504
     9  Cl   3.196126   3.679029   6.136221   5.920762   6.496878
    10  Cl   3.392108   3.926695   4.560246   4.430370   5.647839
    11  H    3.807406   3.106516   1.091012   2.085247   2.648212
    12  H    4.086608   4.635798   3.169041   2.136937   2.818709
    13  H    3.277746   3.756914   2.713050   2.183155   3.484777
    14  H    2.632684   3.510563   3.296107   2.150817   2.729564
    15  H    4.252925   4.485466   3.191253   2.146664   1.097945
    16  H    2.866797   3.240140   3.233706   2.155921   1.097941
    17  H    3.795750   3.567650   2.629575   2.173964   1.094089
    18  C    3.994058   3.539961   1.504212   2.553947   3.921739
    19  H    5.012664   4.594800   2.149495   3.117434   4.397152
    20  H    4.270234   3.552680   2.160145   3.376529   4.625616
    21  H    3.792945   3.612502   2.177142   2.780440   4.273945
    22  C    2.396288   1.495073   3.208675   3.743264   4.606530
    23  H    3.279155   2.155327   3.175433   4.026463   4.842459
    24  H    2.797442   2.092467   4.293877   4.721163   5.474197
    25  H    2.636519   2.149328   3.148537   3.674646   4.814018
    26  C    2.364702   1.496539   3.289164   3.373523   3.299462
    27  H    2.906252   2.092768   4.322471   4.443754   4.339049
    28  H    3.207350   2.154306   3.015129   3.449785   3.426989
    29  H    2.517082   2.146970   3.541127   3.251092   2.728890
                    6          7          8          9         10
     6  Fe   0.000000
     7  Cl   2.172282   0.000000
     8  C    3.661075   3.984922   0.000000
     9  Cl   2.188754   3.691961   5.716393   0.000000
    10  Cl   2.192536   3.673721   3.669606   3.628247   0.000000
    11  H    5.432816   6.616992   3.483527   6.675677   5.511634
    12  H    4.623077   4.578412   1.098612   6.734617   4.518512
    13  H    3.471753   4.114256   1.089679   5.516793   2.870038
    14  H    3.036567   2.973970   1.096682   5.125963   3.574834
    15  H    5.644302   5.623196   2.769888   7.384671   6.270887
    16  H    4.417834   4.490684   2.790700   5.911544   5.554923
    17  H    5.598923   6.102881   3.480027   6.950586   6.363153
    18  C    4.892272   6.297832   3.105409   6.302164   4.113666
    19  H    5.867834   7.122523   3.594276   7.366506   4.911365
    20  H    5.192033   6.859440   4.059245   6.255850   4.413410
    21  H    4.252334   5.650462   2.789877   5.782459   3.148263
    22  C    3.351881   5.334267   4.318326   3.690871   3.636282
    23  H    4.427630   6.362082   4.861398   4.700853   4.527634
    24  H    3.383102   5.445155   5.179863   3.040373   3.899526
    25  H    3.075004   5.104679   3.941895   3.755991   2.744013
    26  C    4.261721   5.513072   4.429756   4.723631   5.413731
    27  H    4.570729   5.890395   5.402018   4.510353   5.893434
    28  H    5.092491   6.430055   4.731432   5.608885   5.920483
    29  H    4.452013   5.276022   4.274135   5.129893   5.813793
                   11         12         13         14         15
    11  H    0.000000
    12  H    4.045953   0.000000
    13  H    3.792486   1.769908   0.000000
    14  H    4.172195   1.753210   1.773019   0.000000
    15  H    3.387678   2.619220   3.802679   3.025743   0.000000
    16  H    3.453278   3.208980   3.770557   2.545396   1.756469
    17  H    2.319270   3.802793   4.335593   3.758873   1.771706
    18  C    2.202580   3.726333   2.731104   3.984312   4.511952
    19  H    2.663267   3.928554   3.228161   4.608142   4.775335
    20  H    2.473102   4.775121   3.654242   4.824473   5.343034
    21  H    3.102473   3.475347   2.077265   3.584368   4.830852
    22  C    3.480224   5.382148   4.116135   4.435047   5.632363
    23  H    3.156810   5.854365   4.689185   5.151700   5.865062
    24  H    4.528691   6.269901   4.954524   5.127323   6.521510
    25  H    3.699529   4.986007   3.486474   4.149781   5.737105
    26  C    3.061747   5.331053   4.849220   4.364787   4.385218
    27  H    4.064885   6.342030   5.757820   5.225813   5.409683
    28  H    2.464903   5.558795   5.116273   4.901483   4.470091
    29  H    3.340414   5.051267   4.910843   4.082604   3.742141
                   16         17         18         19         20
    16  H    0.000000
    17  H    1.785595   0.000000
    18  C    4.610672   4.128429   0.000000
    19  H    5.237205   4.567359   1.098758   0.000000
    20  H    5.250022   4.650383   1.095688   1.757395   0.000000
    21  H    4.799779   4.709176   1.092908   1.767243   1.769555
    22  C    4.619912   4.689768   3.264546   4.341095   2.888034
    23  H    5.033168   4.706119   3.160265   4.130582   2.504602
    24  H    5.322488   5.555604   4.323631   5.394533   3.878905
    25  H    4.906648   5.078002   2.804918   3.860893   2.531893
    26  C    3.101088   3.025787   4.319455   5.251505   4.268991
    27  H    4.003585   4.035789   5.213608   6.184060   5.011417
    28  H    3.552880   2.883417   4.015230   4.833048   3.842084
    29  H    2.316908   2.481240   4.801390   5.656153   4.960967
                   21         22         23         24         25
    21  H    0.000000
    22  C    3.273067   0.000000
    23  H    3.475972   1.090760   0.000000
    24  H    4.226204   1.100290   1.779650   0.000000
    25  H    2.510168   1.090692   1.795386   1.764152   0.000000
    26  C    4.694060   2.574580   2.707656   3.024226   3.464000
    27  H    5.534546   2.863130   2.989592   2.915425   3.886533
    28  H    4.620498   2.803095   2.506627   3.420199   3.674543
    29  H    5.155307   3.494158   3.730183   3.955343   4.252800
                   26         27         28         29
    26  C    0.000000
    27  H    1.100083   0.000000
    28  H    1.091417   1.767583   0.000000
    29  H    1.088616   1.776457   1.797648   0.000000
 Framework group  C1[X(C8H16Cl3FeO)]
 Deg. of freedom    81
                         Standard orientation:                         
 ---------------------------------------------------------------------
 Center     Atomic      Atomic             Coordinates (Angstroms)
 Number     Number       Type             X           Y           Z
 ---------------------------------------------------------------------
      1          8           0        0.200784    0.410925   -0.861845
      2          6           0        0.943976    1.394085   -0.651273
      3          6           0        3.156838    0.032074    0.519485
      4          6           0        2.627109   -0.947712   -0.237685
      5          6           0        3.022925   -1.124406   -1.679692
      6         26           0       -1.477048   -0.166466    0.024776
      7         17           0       -2.077276   -1.958293   -1.046620
      8          6           0        1.682993   -1.998559    0.271849
      9         17           0       -2.714211    1.605438   -0.322251
     10         17           0       -1.069296   -0.470426    2.157511
     11          1           0        3.887987    0.688786    0.045715
     12          1           0        2.186671   -2.974902    0.275165
     13          1           0        1.313297   -1.807802    1.278992
     14          1           0        0.821442   -2.105205   -0.398276
     15          1           0        3.489821   -2.107486   -1.824764
     16          1           0        2.139979   -1.104572   -2.331986
     17          1           0        3.733169   -0.362974   -2.015558
     18          6           0        2.981028    0.231236    2.000052
     19          1           0        3.819988   -0.218659    2.548695
     20          1           0        2.974263    1.295024    2.262428
     21          1           0        2.060435   -0.215424    2.384047
     22          6           0        0.809546    2.218632    0.588604
     23          1           0        1.690140    2.837810    0.764472
     24          1           0       -0.057834    2.877370    0.432545
     25          1           0        0.592413    1.598566    1.459225
     26          6           0        1.766389    1.924661   -1.783419
     27          1           0        1.218314    2.788791   -2.187246
     28          1           0        2.739650    2.282652   -1.443130
     29          1           0        1.875739    1.184447   -2.574122
 ---------------------------------------------------------------------
 Rotational constants (GHZ):           0.5645377           0.3220541           0.3034195
   427 basis functions,  1056 primitive gaussians,   461 cartesian basis functions
    77 alpha electrons       72 beta electrons
       nuclear repulsion energy      1620.7453825794 Hartrees.
 NAtoms=   29 NActive=   29 NUniq=   29 SFac= 1.00D+00 NAtFMM=   60 NAOKFM=F Big=F
 ExpMin= 1.40D-02 ExpMax= 4.32D+06 ExpMxC= 4.91D+03 IAcc=3 IRadAn=         5 AccDes= 0.00D+00
 Harris functional with IExCor= 1009 and IRadAn=       5 diagonalized for initial guess.
 HarFok:  IExCor= 1009 AccDes= 0.00D+00 IRadAn=         5 IDoV= 1 UseB2=F ITyADJ=14
 ICtDFT=  3500011 ScaDFX=  1.000000  1.000000  1.000000  1.000000
 FoFCou: FMM=F IPFlag=           0 FMFlag=      100000 FMFlg1=           0
         NFxFlg=           0 DoJE=T BraDBF=F KetDBF=T FulRan=T
         wScrn=  0.000000 ICntrl=       500 IOpCl=  0 I1Cent=   200000004 NGrid=           0
         NMat0=    1 NMatS0=      1 NMatT0=    0 NMatD0=    1 NMtDS0=    0 NMtDT0=    0
 Petite list used in FoFCou.
 Initial guess <Sx>= 0.0000 <Sy>= 0.0000 <Sz>= 2.5000 <S**2>= 8.7500 S= 2.5000
 EnCoef did   100 forward-backward iterations
 SCF Done:  E(UPBE1PBE) =  -3033.13785441     A.U. after   20 cycles
            NFock= 20  Conv=0.87D-08     -V/T= 2.0021
 <Sx>= 0.0000 <Sy>= 0.0000 <Sz>= 2.5000 <S**2>= 8.7629 S= 2.5022
 <L.S>= 0.000000000000E+00
 Annihilation of the first spin contaminant:
 S**2 before annihilation     8.7629,   after     8.7501
 1\1\GINC-HOLY7C02409\SP\UPBE1PBE\Jul-CC-pVDZ\C8H16Cl3Fe1O1(6)\EKWAN\12
 -Feb-2020\0\\#t pop=none jul-cc-pvdz upbe1pbe\\theory_abbreviation pbe
 0\\0,6\O,0,0.200784,0.410925,-0.861845\C,0,0.943976,1.394085,-0.651273
 \C,0,3.156838,0.032074,0.519485\C,0,2.627109,-0.947712,-0.237685\C,0,3
 .022925,-1.124406,-1.679692\Fe,0,-1.477048,-0.166466,0.024776\Cl,0,-2.
 077276,-1.958293,-1.04662\C,0,1.682993,-1.998559,0.271849\Cl,0,-2.7142
 11,1.605438,-0.322251\Cl,0,-1.069296,-0.470426,2.157511\H,0,3.887987,0
 .688786,0.045715\H,0,2.186671,-2.974902,0.275165\H,0,1.313297,-1.80780
 2,1.278992\H,0,0.821442,-2.105205,-0.398276\H,0,3.489821,-2.107486,-1.
 824764\H,0,2.139979,-1.104572,-2.331986\H,0,3.733169,-0.362974,-2.0155
 58\C,0,2.981028,0.231236,2.000052\H,0,3.819988,-0.218659,2.548695\H,0,
 2.974263,1.295024,2.262428\H,0,2.060435,-0.215424,2.384047\C,0,0.80954
 6,2.218632,0.588604\H,0,1.69014,2.83781,0.764472\H,0,-0.057834,2.87737
 ,0.432545\H,0,0.592413,1.598566,1.459225\C,0,1.766389,1.924661,-1.7834
 19\H,0,1.218314,2.788791,-2.187246\H,0,2.73965,2.282652,-1.44313\H,0,1
 .875739,1.184447,-2.574122\\Version=ES64L-G16RevA.03\HF=-3033.1378544\
 S2=8.76294\S2-1=0.\S2A=8.750052\RMSD=8.660e-09\PG=C01 [X(C8H16Cl3Fe1O1
 )]\\@


 YOU KNOW YOU'RE A TEACHER WHEN YOU SAY 2, WRITE 3, AND MEAN 4.
 -- RONALD ANSTROM, HIGH SCHOOL TEACHER, UNDERWOOD, N.D. 1974
 Job cpu time:       0 days  1 hours 16 minutes 54.5 seconds.
 Elapsed time:       0 days  0 hours 19 minutes 17.1 seconds.
 File lengths (MBytes):  RWF=    173 Int=      0 D2E=      0 Chk=     13 Scr=      1
 Normal termination of Gaussian 16 at Wed Feb 12 14:10:28 2020.
 Initial command:
 /n/sw/g16_nehalem/g16/l1.exe "/scratch/Gau-240160.inp" -scrdir="/scratch/"
 Entering Link 1 = /n/sw/g16_nehalem/g16/l1.exe PID=    241622.
  
 Copyright (c) 1988,1990,1992,1993,1995,1998,2003,2009,2016,
            Gaussian, Inc.  All Rights Reserved.
  
 This is part of the Gaussian(R) 16 program.  It is based on
 the Gaussian(R) 09 system (copyright 2009, Gaussian, Inc.),
 the Gaussian(R) 03 system (copyright 2003, Gaussian, Inc.),
 the Gaussian(R) 98 system (copyright 1998, Gaussian, Inc.),
 the Gaussian(R) 94 system (copyright 1995, Gaussian, Inc.),
 the Gaussian 92(TM) system (copyright 1992, Gaussian, Inc.),
 the Gaussian 90(TM) system (copyright 1990, Gaussian, Inc.),
 the Gaussian 88(TM) system (copyright 1988, Gaussian, Inc.),
 the Gaussian 86(TM) system (copyright 1986, Carnegie Mellon
 University), and the Gaussian 82(TM) system (copyright 1983,
 Carnegie Mellon University). Gaussian is a federally registered
 trademark of Gaussian, Inc.
  
 This software contains proprietary and confidential information,
 including trade secrets, belonging to Gaussian, Inc.
  
 This software is provided under written license and may be
 used, copied, transmitted, or stored only in accord with that
 written license.
  
 The following legend is applicable only to US Government
 contracts under FAR:
  
                    RESTRICTED RIGHTS LEGEND
  
 Use, reproduction and disclosure by the US Government is
 subject to restrictions as set forth in subparagraphs (a)
 and (c) of the Commercial Computer Software - Restricted
 Rights clause in FAR 52.227-19.
  
 Gaussian, Inc.
 340 Quinnipiac St., Bldg. 40, Wallingford CT 06492
  
  
 ---------------------------------------------------------------
 Warning -- This program may not be used in any manner that
 competes with the business of Gaussian, Inc. or will provide
 assistance to any competitor of Gaussian, Inc.  The licensee
 of this program is prohibited from giving any competitor of
 Gaussian, Inc. access to this program.  By using this program,
 the user acknowledges that Gaussian, Inc. is engaged in the
 business of creating and licensing software in the field of
 computational chemistry and represents and warrants to the
 licensee that it is not a competitor of Gaussian, Inc. and that
 it will not use this program in any manner prohibited above.
 ---------------------------------------------------------------
  

 Cite this work as:
 Gaussian 16, Revision A.03,
 M. J. Frisch, G. W. Trucks, H. B. Schlegel, G. E. Scuseria, 
 M. A. Robb, J. R. Cheeseman, G. Scalmani, V. Barone, 
 G. A. Petersson, H. Nakatsuji, X. Li, M. Caricato, A. V. Marenich, 
 J. Bloino, B. G. Janesko, R. Gomperts, B. Mennucci, H. P. Hratchian, 
 J. V. Ortiz, A. F. Izmaylov, J. L. Sonnenberg, D. Williams-Young, 
 F. Ding, F. Lipparini, F. Egidi, J. Goings, B. Peng, A. Petrone, 
 T. Henderson, D. Ranasinghe, V. G. Zakrzewski, J. Gao, N. Rega, 
 G. Zheng, W. Liang, M. Hada, M. Ehara, K. Toyota, R. Fukuda, 
 J. Hasegawa, M. Ishida, T. Nakajima, Y. Honda, O. Kitao, H. Nakai, 
 T. Vreven, K. Throssell, J. A. Montgomery, Jr., J. E. Peralta, 
 F. Ogliaro, M. J. Bearpark, J. J. Heyd, E. N. Brothers, K. N. Kudin, 
 V. N. Staroverov, T. A. Keith, R. Kobayashi, J. Normand, 
 K. Raghavachari, A. P. Rendell, J. C. Burant, S. S. Iyengar, 
 J. Tomasi, M. Cossi, J. M. Millam, M. Klene, C. Adamo, R. Cammi, 
 J. W. Ochterski, R. L. Martin, K. Morokuma, O. Farkas, 
 J. B. Foresman, and D. J. Fox, Gaussian, Inc., Wallingford CT, 2016.
 
 ******************************************
 Gaussian 16:  ES64L-G16RevA.03 25-Dec-2016
                12-Feb-2020 
 ******************************************
 %chk=checkpoint.chk
 %mem=3GB
 %nprocshared=4
 Will use up to    4 processors via shared memory.
 ---------------------------------------------------------------------
 #t pop=none jul-cc-pvdz guess=read upbe1pbe empiricaldispersion=gd3bj
 ---------------------------------------------------------------------
 -----------------------------
 theory_abbreviation pbe0_d3bj
 -----------------------------
 Symbolic Z-matrix:
 Charge =  0 Multiplicity = 6
 O                     0.20078   0.41093  -0.86185 
 C                     0.94398   1.39409  -0.65127 
 C                     3.15684   0.03207   0.51949 
 C                     2.62711  -0.94771  -0.23769 
 C                     3.02292  -1.12441  -1.67969 
 Fe                   -1.47705  -0.16647   0.02478 
 Cl                   -2.07728  -1.95829  -1.04662 
 C                     1.68299  -1.99856   0.27185 
 Cl                   -2.71421   1.60544  -0.32225 
 Cl                   -1.0693   -0.47043   2.15751 
 H                     3.88799   0.68879   0.04572 
 H                     2.18667  -2.9749    0.27517 
 H                     1.3133   -1.8078    1.27899 
 H                     0.82144  -2.10521  -0.39828 
 H                     3.48982  -2.10749  -1.82476 
 H                     2.13998  -1.10457  -2.33199 
 H                     3.73317  -0.36297  -2.01556 
 C                     2.98103   0.23124   2.00005 
 H                     3.81999  -0.21866   2.5487 
 H                     2.97426   1.29502   2.26243 
 H                     2.06044  -0.21542   2.38405 
 C                     0.80955   2.21863   0.5886 
 H                     1.69014   2.83781   0.76447 
 H                    -0.05783   2.87737   0.43255 
 H                     0.59241   1.59857   1.45923 
 C                     1.76639   1.92466  -1.78342 
 H                     1.21831   2.78879  -2.18725 
 H                     2.73965   2.28265  -1.44313 
 H                     1.87574   1.18445  -2.57412 
 
                    Distance matrix (angstroms):
                    1          2          3          4          5
     1  O    0.000000
     2  C    1.250311   0.000000
     3  C    3.284792   2.850001   0.000000
     4  C    2.850004   2.913418   1.346811   0.000000
     5  C    3.315207   3.423810   2.488324   1.505747   0.000000
     6  Fe   1.983582   2.958668   4.664446   4.186088   4.906385
     7  Cl   3.291944   4.530199   5.814653   4.879230   5.206553
     8  C    3.047592   3.592817   2.521312   1.501752   2.523504
     9  Cl   3.196126   3.679029   6.136221   5.920762   6.496878
    10  Cl   3.392108   3.926695   4.560246   4.430370   5.647839
    11  H    3.807406   3.106516   1.091012   2.085247   2.648212
    12  H    4.086608   4.635798   3.169041   2.136937   2.818709
    13  H    3.277746   3.756914   2.713050   2.183155   3.484777
    14  H    2.632684   3.510563   3.296107   2.150817   2.729564
    15  H    4.252925   4.485466   3.191253   2.146664   1.097945
    16  H    2.866797   3.240140   3.233706   2.155921   1.097941
    17  H    3.795750   3.567650   2.629575   2.173964   1.094089
    18  C    3.994058   3.539961   1.504212   2.553947   3.921739
    19  H    5.012664   4.594800   2.149495   3.117434   4.397152
    20  H    4.270234   3.552680   2.160145   3.376529   4.625616
    21  H    3.792945   3.612502   2.177142   2.780440   4.273945
    22  C    2.396288   1.495073   3.208675   3.743264   4.606530
    23  H    3.279155   2.155327   3.175433   4.026463   4.842459
    24  H    2.797442   2.092467   4.293877   4.721163   5.474197
    25  H    2.636519   2.149328   3.148537   3.674646   4.814018
    26  C    2.364702   1.496539   3.289164   3.373523   3.299462
    27  H    2.906252   2.092768   4.322471   4.443754   4.339049
    28  H    3.207350   2.154306   3.015129   3.449785   3.426989
    29  H    2.517082   2.146970   3.541127   3.251092   2.728890
                    6          7          8          9         10
     6  Fe   0.000000
     7  Cl   2.172282   0.000000
     8  C    3.661075   3.984922   0.000000
     9  Cl   2.188754   3.691961   5.716393   0.000000
    10  Cl   2.192536   3.673721   3.669606   3.628247   0.000000
    11  H    5.432816   6.616992   3.483527   6.675677   5.511634
    12  H    4.623077   4.578412   1.098612   6.734617   4.518512
    13  H    3.471753   4.114256   1.089679   5.516793   2.870038
    14  H    3.036567   2.973970   1.096682   5.125963   3.574834
    15  H    5.644302   5.623196   2.769888   7.384671   6.270887
    16  H    4.417834   4.490684   2.790700   5.911544   5.554923
    17  H    5.598923   6.102881   3.480027   6.950586   6.363153
    18  C    4.892272   6.297832   3.105409   6.302164   4.113666
    19  H    5.867834   7.122523   3.594276   7.366506   4.911365
    20  H    5.192033   6.859440   4.059245   6.255850   4.413410
    21  H    4.252334   5.650462   2.789877   5.782459   3.148263
    22  C    3.351881   5.334267   4.318326   3.690871   3.636282
    23  H    4.427630   6.362082   4.861398   4.700853   4.527634
    24  H    3.383102   5.445155   5.179863   3.040373   3.899526
    25  H    3.075004   5.104679   3.941895   3.755991   2.744013
    26  C    4.261721   5.513072   4.429756   4.723631   5.413731
    27  H    4.570729   5.890395   5.402018   4.510353   5.893434
    28  H    5.092491   6.430055   4.731432   5.608885   5.920483
    29  H    4.452013   5.276022   4.274135   5.129893   5.813793
                   11         12         13         14         15
    11  H    0.000000
    12  H    4.045953   0.000000
    13  H    3.792486   1.769908   0.000000
    14  H    4.172195   1.753210   1.773019   0.000000
    15  H    3.387678   2.619220   3.802679   3.025743   0.000000
    16  H    3.453278   3.208980   3.770557   2.545396   1.756469
    17  H    2.319270   3.802793   4.335593   3.758873   1.771706
    18  C    2.202580   3.726333   2.731104   3.984312   4.511952
    19  H    2.663267   3.928554   3.228161   4.608142   4.775335
    20  H    2.473102   4.775121   3.654242   4.824473   5.343034
    21  H    3.102473   3.475347   2.077265   3.584368   4.830852
    22  C    3.480224   5.382148   4.116135   4.435047   5.632363
    23  H    3.156810   5.854365   4.689185   5.151700   5.865062
    24  H    4.528691   6.269901   4.954524   5.127323   6.521510
    25  H    3.699529   4.986007   3.486474   4.149781   5.737105
    26  C    3.061747   5.331053   4.849220   4.364787   4.385218
    27  H    4.064885   6.342030   5.757820   5.225813   5.409683
    28  H    2.464903   5.558795   5.116273   4.901483   4.470091
    29  H    3.340414   5.051267   4.910843   4.082604   3.742141
                   16         17         18         19         20
    16  H    0.000000
    17  H    1.785595   0.000000
    18  C    4.610672   4.128429   0.000000
    19  H    5.237205   4.567359   1.098758   0.000000
    20  H    5.250022   4.650383   1.095688   1.757395   0.000000
    21  H    4.799779   4.709176   1.092908   1.767243   1.769555
    22  C    4.619912   4.689768   3.264546   4.341095   2.888034
    23  H    5.033168   4.706119   3.160265   4.130582   2.504602
    24  H    5.322488   5.555604   4.323631   5.394533   3.878905
    25  H    4.906648   5.078002   2.804918   3.860893   2.531893
    26  C    3.101088   3.025787   4.319455   5.251505   4.268991
    27  H    4.003585   4.035789   5.213608   6.184060   5.011417
    28  H    3.552880   2.883417   4.015230   4.833048   3.842084
    29  H    2.316908   2.481240   4.801390   5.656153   4.960967
                   21         22         23         24         25
    21  H    0.000000
    22  C    3.273067   0.000000
    23  H    3.475972   1.090760   0.000000
    24  H    4.226204   1.100290   1.779650   0.000000
    25  H    2.510168   1.090692   1.795386   1.764152   0.000000
    26  C    4.694060   2.574580   2.707656   3.024226   3.464000
    27  H    5.534546   2.863130   2.989592   2.915425   3.886533
    28  H    4.620498   2.803095   2.506627   3.420199   3.674543
    29  H    5.155307   3.494158   3.730183   3.955343   4.252800
                   26         27         28         29
    26  C    0.000000
    27  H    1.100083   0.000000
    28  H    1.091417   1.767583   0.000000
    29  H    1.088616   1.776457   1.797648   0.000000
 Framework group  C1[X(C8H16Cl3FeO)]
 Deg. of freedom    81
                         Standard orientation:                         
 ---------------------------------------------------------------------
 Center     Atomic      Atomic             Coordinates (Angstroms)
 Number     Number       Type             X           Y           Z
 ---------------------------------------------------------------------
      1          8           0        0.200784    0.410925   -0.861845
      2          6           0        0.943976    1.394085   -0.651273
      3          6           0        3.156838    0.032074    0.519485
      4          6           0        2.627109   -0.947712   -0.237685
      5          6           0        3.022925   -1.124406   -1.679692
      6         26           0       -1.477048   -0.166466    0.024776
      7         17           0       -2.077276   -1.958293   -1.046620
      8          6           0        1.682993   -1.998559    0.271849
      9         17           0       -2.714211    1.605438   -0.322251
     10         17           0       -1.069296   -0.470426    2.157511
     11          1           0        3.887987    0.688786    0.045715
     12          1           0        2.186671   -2.974902    0.275165
     13          1           0        1.313297   -1.807802    1.278992
     14          1           0        0.821442   -2.105205   -0.398276
     15          1           0        3.489821   -2.107486   -1.824764
     16          1           0        2.139979   -1.104572   -2.331986
     17          1           0        3.733169   -0.362974   -2.015558
     18          6           0        2.981028    0.231236    2.000052
     19          1           0        3.819988   -0.218659    2.548695
     20          1           0        2.974263    1.295024    2.262428
     21          1           0        2.060435   -0.215424    2.384047
     22          6           0        0.809546    2.218632    0.588604
     23          1           0        1.690140    2.837810    0.764472
     24          1           0       -0.057834    2.877370    0.432545
     25          1           0        0.592413    1.598566    1.459225
     26          6           0        1.766389    1.924661   -1.783419
     27          1           0        1.218314    2.788791   -2.187246
     28          1           0        2.739650    2.282652   -1.443130
     29          1           0        1.875739    1.184447   -2.574122
 ---------------------------------------------------------------------
 Rotational constants (GHZ):           0.5645377           0.3220541           0.3034195
   427 basis functions,  1056 primitive gaussians,   461 cartesian basis functions
    77 alpha electrons       72 beta electrons
       nuclear repulsion energy      1620.7453825794 Hartrees.
 NAtoms=   29 NActive=   29 NUniq=   29 SFac= 1.00D+00 NAtFMM=   60 NAOKFM=F Big=F
 Nuclear repulsion after empirical dispersion term =     1620.7091272944 Hartrees.
 Initial guess from the checkpoint file:  "checkpoint.chk"
 B after Tr=     0.000000    0.000000    0.000000
         Rot=    1.000000    0.000000    0.000000    0.000000 Ang=   0.00 deg.
 Initial guess <Sx>= 0.0000 <Sy>= 0.0000 <Sz>= 2.5000 <S**2>= 8.7629 S= 2.5022
 SCF Done:  E(UPBE1PBE) =  -3033.17410970     A.U. after    1 cycles
            NFock=  1  Conv=0.41D-08     -V/T= 2.0021
 <Sx>= 0.0000 <Sy>= 0.0000 <Sz>= 2.5000 <S**2>= 8.7629 S= 2.5022
 <L.S>= 0.000000000000E+00
 Annihilation of the first spin contaminant:
 S**2 before annihilation     8.7629,   after     8.7501
 1\1\GINC-HOLY7C02409\SP\UPBE1PBE\Jul-CC-pVDZ\C8H16Cl3Fe1O1(6)\EKWAN\12
 -Feb-2020\0\\#t pop=none jul-cc-pvdz guess=read upbe1pbe empiricaldisp
 ersion=gd3bj\\theory_abbreviation pbe0_d3bj\\0,6\O,0,0.200784,0.410925
 ,-0.861845\C,0,0.943976,1.394085,-0.651273\C,0,3.156838,0.032074,0.519
 485\C,0,2.627109,-0.947712,-0.237685\C,0,3.022925,-1.124406,-1.679692\
 Fe,0,-1.477048,-0.166466,0.024776\Cl,0,-2.077276,-1.958293,-1.04662\C,
 0,1.682993,-1.998559,0.271849\Cl,0,-2.714211,1.605438,-0.322251\Cl,0,-
 1.069296,-0.470426,2.157511\H,0,3.887987,0.688786,0.045715\H,0,2.18667
 1,-2.974902,0.275165\H,0,1.313297,-1.807802,1.278992\H,0,0.821442,-2.1
 05205,-0.398276\H,0,3.489821,-2.107486,-1.824764\H,0,2.139979,-1.10457
 2,-2.331986\H,0,3.733169,-0.362974,-2.015558\C,0,2.981028,0.231236,2.0
 00052\H,0,3.819988,-0.218659,2.548695\H,0,2.974263,1.295024,2.262428\H
 ,0,2.060435,-0.215424,2.384047\C,0,0.809546,2.218632,0.588604\H,0,1.69
 014,2.83781,0.764472\H,0,-0.057834,2.87737,0.432545\H,0,0.592413,1.598
 566,1.459225\C,0,1.766389,1.924661,-1.783419\H,0,1.218314,2.788791,-2.
 187246\H,0,2.73965,2.282652,-1.44313\H,0,1.875739,1.184447,-2.574122\\
 Version=ES64L-G16RevA.03\HF=-3033.1741097\S2=8.76294\S2-1=0.\S2A=8.750
 052\RMSD=4.109e-09\PG=C01 [X(C8H16Cl3Fe1O1)]\\@


 LEARN FROM YESTERDAY,
 LIVE FOR TODAY,
 LOOK TO TOMORROW,
 REST THIS AFTERNOON.

           -- SNOOPY
 Job cpu time:       0 days  0 hours  4 minutes 10.7 seconds.
 Elapsed time:       0 days  0 hours  1 minutes  3.2 seconds.
 File lengths (MBytes):  RWF=    170 Int=      0 D2E=      0 Chk=     13 Scr=      1
 Normal termination of Gaussian 16 at Wed Feb 12 14:11:32 2020.
 Initial command:
 /n/sw/g16_nehalem/g16/l1.exe "/scratch/Gau-240160.inp" -scrdir="/scratch/"
 Entering Link 1 = /n/sw/g16_nehalem/g16/l1.exe PID=    241751.
  
 Copyright (c) 1988,1990,1992,1993,1995,1998,2003,2009,2016,
            Gaussian, Inc.  All Rights Reserved.
  
 This is part of the Gaussian(R) 16 program.  It is based on
 the Gaussian(R) 09 system (copyright 2009, Gaussian, Inc.),
 the Gaussian(R) 03 system (copyright 2003, Gaussian, Inc.),
 the Gaussian(R) 98 system (copyright 1998, Gaussian, Inc.),
 the Gaussian(R) 94 system (copyright 1995, Gaussian, Inc.),
 the Gaussian 92(TM) system (copyright 1992, Gaussian, Inc.),
 the Gaussian 90(TM) system (copyright 1990, Gaussian, Inc.),
 the Gaussian 88(TM) system (copyright 1988, Gaussian, Inc.),
 the Gaussian 86(TM) system (copyright 1986, Carnegie Mellon
 University), and the Gaussian 82(TM) system (copyright 1983,
 Carnegie Mellon University). Gaussian is a federally registered
 trademark of Gaussian, Inc.
  
 This software contains proprietary and confidential information,
 including trade secrets, belonging to Gaussian, Inc.
  
 This software is provided under written license and may be
 used, copied, transmitted, or stored only in accord with that
 written license.
  
 The following legend is applicable only to US Government
 contracts under FAR:
  
                    RESTRICTED RIGHTS LEGEND
  
 Use, reproduction and disclosure by the US Government is
 subject to restrictions as set forth in subparagraphs (a)
 and (c) of the Commercial Computer Software - Restricted
 Rights clause in FAR 52.227-19.
  
 Gaussian, Inc.
 340 Quinnipiac St., Bldg. 40, Wallingford CT 06492
  
  
 ---------------------------------------------------------------
 Warning -- This program may not be used in any manner that
 competes with the business of Gaussian, Inc. or will provide
 assistance to any competitor of Gaussian, Inc.  The licensee
 of this program is prohibited from giving any competitor of
 Gaussian, Inc. access to this program.  By using this program,
 the user acknowledges that Gaussian, Inc. is engaged in the
 business of creating and licensing software in the field of
 computational chemistry and represents and warrants to the
 licensee that it is not a competitor of Gaussian, Inc. and that
 it will not use this program in any manner prohibited above.
 ---------------------------------------------------------------
  

 Cite this work as:
 Gaussian 16, Revision A.03,
 M. J. Frisch, G. W. Trucks, H. B. Schlegel, G. E. Scuseria, 
 M. A. Robb, J. R. Cheeseman, G. Scalmani, V. Barone, 
 G. A. Petersson, H. Nakatsuji, X. Li, M. Caricato, A. V. Marenich, 
 J. Bloino, B. G. Janesko, R. Gomperts, B. Mennucci, H. P. Hratchian, 
 J. V. Ortiz, A. F. Izmaylov, J. L. Sonnenberg, D. Williams-Young, 
 F. Ding, F. Lipparini, F. Egidi, J. Goings, B. Peng, A. Petrone, 
 T. Henderson, D. Ranasinghe, V. G. Zakrzewski, J. Gao, N. Rega, 
 G. Zheng, W. Liang, M. Hada, M. Ehara, K. Toyota, R. Fukuda, 
 J. Hasegawa, M. Ishida, T. Nakajima, Y. Honda, O. Kitao, H. Nakai, 
 T. Vreven, K. Throssell, J. A. Montgomery, Jr., J. E. Peralta, 
 F. Ogliaro, M. J. Bearpark, J. J. Heyd, E. N. Brothers, K. N. Kudin, 
 V. N. Staroverov, T. A. Keith, R. Kobayashi, J. Normand, 
 K. Raghavachari, A. P. Rendell, J. C. Burant, S. S. Iyengar, 
 J. Tomasi, M. Cossi, J. M. Millam, M. Klene, C. Adamo, R. Cammi, 
 J. W. Ochterski, R. L. Martin, K. Morokuma, O. Farkas, 
 J. B. Foresman, and D. J. Fox, Gaussian, Inc., Wallingford CT, 2016.
 
 ******************************************
 Gaussian 16:  ES64L-G16RevA.03 25-Dec-2016
                12-Feb-2020 
 ******************************************
 %chk=checkpoint.chk
 %mem=3GB
 %nprocshared=4
 Will use up to    4 processors via shared memory.
 -----------------------------------------
 #t pop=none jul-cc-pvdz guess=read ub3lyp
 -----------------------------------------
 -------------------------
 theory_abbreviation b3lyp
 -------------------------
 Symbolic Z-matrix:
 Charge =  0 Multiplicity = 6
 O                     0.20078   0.41093  -0.86185 
 C                     0.94398   1.39409  -0.65127 
 C                     3.15684   0.03207   0.51949 
 C                     2.62711  -0.94771  -0.23769 
 C                     3.02292  -1.12441  -1.67969 
 Fe                   -1.47705  -0.16647   0.02478 
 Cl                   -2.07728  -1.95829  -1.04662 
 C                     1.68299  -1.99856   0.27185 
 Cl                   -2.71421   1.60544  -0.32225 
 Cl                   -1.0693   -0.47043   2.15751 
 H                     3.88799   0.68879   0.04572 
 H                     2.18667  -2.9749    0.27517 
 H                     1.3133   -1.8078    1.27899 
 H                     0.82144  -2.10521  -0.39828 
 H                     3.48982  -2.10749  -1.82476 
 H                     2.13998  -1.10457  -2.33199 
 H                     3.73317  -0.36297  -2.01556 
 C                     2.98103   0.23124   2.00005 
 H                     3.81999  -0.21866   2.5487 
 H                     2.97426   1.29502   2.26243 
 H                     2.06044  -0.21542   2.38405 
 C                     0.80955   2.21863   0.5886 
 H                     1.69014   2.83781   0.76447 
 H                    -0.05783   2.87737   0.43255 
 H                     0.59241   1.59857   1.45923 
 C                     1.76639   1.92466  -1.78342 
 H                     1.21831   2.78879  -2.18725 
 H                     2.73965   2.28265  -1.44313 
 H                     1.87574   1.18445  -2.57412 
 
                    Distance matrix (angstroms):
                    1          2          3          4          5
     1  O    0.000000
     2  C    1.250311   0.000000
     3  C    3.284792   2.850001   0.000000
     4  C    2.850004   2.913418   1.346811   0.000000
     5  C    3.315207   3.423810   2.488324   1.505747   0.000000
     6  Fe   1.983582   2.958668   4.664446   4.186088   4.906385
     7  Cl   3.291944   4.530199   5.814653   4.879230   5.206553
     8  C    3.047592   3.592817   2.521312   1.501752   2.523504
     9  Cl   3.196126   3.679029   6.136221   5.920762   6.496878
    10  Cl   3.392108   3.926695   4.560246   4.430370   5.647839
    11  H    3.807406   3.106516   1.091012   2.085247   2.648212
    12  H    4.086608   4.635798   3.169041   2.136937   2.818709
    13  H    3.277746   3.756914   2.713050   2.183155   3.484777
    14  H    2.632684   3.510563   3.296107   2.150817   2.729564
    15  H    4.252925   4.485466   3.191253   2.146664   1.097945
    16  H    2.866797   3.240140   3.233706   2.155921   1.097941
    17  H    3.795750   3.567650   2.629575   2.173964   1.094089
    18  C    3.994058   3.539961   1.504212   2.553947   3.921739
    19  H    5.012664   4.594800   2.149495   3.117434   4.397152
    20  H    4.270234   3.552680   2.160145   3.376529   4.625616
    21  H    3.792945   3.612502   2.177142   2.780440   4.273945
    22  C    2.396288   1.495073   3.208675   3.743264   4.606530
    23  H    3.279155   2.155327   3.175433   4.026463   4.842459
    24  H    2.797442   2.092467   4.293877   4.721163   5.474197
    25  H    2.636519   2.149328   3.148537   3.674646   4.814018
    26  C    2.364702   1.496539   3.289164   3.373523   3.299462
    27  H    2.906252   2.092768   4.322471   4.443754   4.339049
    28  H    3.207350   2.154306   3.015129   3.449785   3.426989
    29  H    2.517082   2.146970   3.541127   3.251092   2.728890
                    6          7          8          9         10
     6  Fe   0.000000
     7  Cl   2.172282   0.000000
     8  C    3.661075   3.984922   0.000000
     9  Cl   2.188754   3.691961   5.716393   0.000000
    10  Cl   2.192536   3.673721   3.669606   3.628247   0.000000
    11  H    5.432816   6.616992   3.483527   6.675677   5.511634
    12  H    4.623077   4.578412   1.098612   6.734617   4.518512
    13  H    3.471753   4.114256   1.089679   5.516793   2.870038
    14  H    3.036567   2.973970   1.096682   5.125963   3.574834
    15  H    5.644302   5.623196   2.769888   7.384671   6.270887
    16  H    4.417834   4.490684   2.790700   5.911544   5.554923
    17  H    5.598923   6.102881   3.480027   6.950586   6.363153
    18  C    4.892272   6.297832   3.105409   6.302164   4.113666
    19  H    5.867834   7.122523   3.594276   7.366506   4.911365
    20  H    5.192033   6.859440   4.059245   6.255850   4.413410
    21  H    4.252334   5.650462   2.789877   5.782459   3.148263
    22  C    3.351881   5.334267   4.318326   3.690871   3.636282
    23  H    4.427630   6.362082   4.861398   4.700853   4.527634
    24  H    3.383102   5.445155   5.179863   3.040373   3.899526
    25  H    3.075004   5.104679   3.941895   3.755991   2.744013
    26  C    4.261721   5.513072   4.429756   4.723631   5.413731
    27  H    4.570729   5.890395   5.402018   4.510353   5.893434
    28  H    5.092491   6.430055   4.731432   5.608885   5.920483
    29  H    4.452013   5.276022   4.274135   5.129893   5.813793
                   11         12         13         14         15
    11  H    0.000000
    12  H    4.045953   0.000000
    13  H    3.792486   1.769908   0.000000
    14  H    4.172195   1.753210   1.773019   0.000000
    15  H    3.387678   2.619220   3.802679   3.025743   0.000000
    16  H    3.453278   3.208980   3.770557   2.545396   1.756469
    17  H    2.319270   3.802793   4.335593   3.758873   1.771706
    18  C    2.202580   3.726333   2.731104   3.984312   4.511952
    19  H    2.663267   3.928554   3.228161   4.608142   4.775335
    20  H    2.473102   4.775121   3.654242   4.824473   5.343034
    21  H    3.102473   3.475347   2.077265   3.584368   4.830852
    22  C    3.480224   5.382148   4.116135   4.435047   5.632363
    23  H    3.156810   5.854365   4.689185   5.151700   5.865062
    24  H    4.528691   6.269901   4.954524   5.127323   6.521510
    25  H    3.699529   4.986007   3.486474   4.149781   5.737105
    26  C    3.061747   5.331053   4.849220   4.364787   4.385218
    27  H    4.064885   6.342030   5.757820   5.225813   5.409683
    28  H    2.464903   5.558795   5.116273   4.901483   4.470091
    29  H    3.340414   5.051267   4.910843   4.082604   3.742141
                   16         17         18         19         20
    16  H    0.000000
    17  H    1.785595   0.000000
    18  C    4.610672   4.128429   0.000000
    19  H    5.237205   4.567359   1.098758   0.000000
    20  H    5.250022   4.650383   1.095688   1.757395   0.000000
    21  H    4.799779   4.709176   1.092908   1.767243   1.769555
    22  C    4.619912   4.689768   3.264546   4.341095   2.888034
    23  H    5.033168   4.706119   3.160265   4.130582   2.504602
    24  H    5.322488   5.555604   4.323631   5.394533   3.878905
    25  H    4.906648   5.078002   2.804918   3.860893   2.531893
    26  C    3.101088   3.025787   4.319455   5.251505   4.268991
    27  H    4.003585   4.035789   5.213608   6.184060   5.011417
    28  H    3.552880   2.883417   4.015230   4.833048   3.842084
    29  H    2.316908   2.481240   4.801390   5.656153   4.960967
                   21         22         23         24         25
    21  H    0.000000
    22  C    3.273067   0.000000
    23  H    3.475972   1.090760   0.000000
    24  H    4.226204   1.100290   1.779650   0.000000
    25  H    2.510168   1.090692   1.795386   1.764152   0.000000
    26  C    4.694060   2.574580   2.707656   3.024226   3.464000
    27  H    5.534546   2.863130   2.989592   2.915425   3.886533
    28  H    4.620498   2.803095   2.506627   3.420199   3.674543
    29  H    5.155307   3.494158   3.730183   3.955343   4.252800
                   26         27         28         29
    26  C    0.000000
    27  H    1.100083   0.000000
    28  H    1.091417   1.767583   0.000000
    29  H    1.088616   1.776457   1.797648   0.000000
 Framework group  C1[X(C8H16Cl3FeO)]
 Deg. of freedom    81
                         Standard orientation:                         
 ---------------------------------------------------------------------
 Center     Atomic      Atomic             Coordinates (Angstroms)
 Number     Number       Type             X           Y           Z
 ---------------------------------------------------------------------
      1          8           0        0.200784    0.410925   -0.861845
      2          6           0        0.943976    1.394085   -0.651273
      3          6           0        3.156838    0.032074    0.519485
      4          6           0        2.627109   -0.947712   -0.237685
      5          6           0        3.022925   -1.124406   -1.679692
      6         26           0       -1.477048   -0.166466    0.024776
      7         17           0       -2.077276   -1.958293   -1.046620
      8          6           0        1.682993   -1.998559    0.271849
      9         17           0       -2.714211    1.605438   -0.322251
     10         17           0       -1.069296   -0.470426    2.157511
     11          1           0        3.887987    0.688786    0.045715
     12          1           0        2.186671   -2.974902    0.275165
     13          1           0        1.313297   -1.807802    1.278992
     14          1           0        0.821442   -2.105205   -0.398276
     15          1           0        3.489821   -2.107486   -1.824764
     16          1           0        2.139979   -1.104572   -2.331986
     17          1           0        3.733169   -0.362974   -2.015558
     18          6           0        2.981028    0.231236    2.000052
     19          1           0        3.819988   -0.218659    2.548695
     20          1           0        2.974263    1.295024    2.262428
     21          1           0        2.060435   -0.215424    2.384047
     22          6           0        0.809546    2.218632    0.588604
     23          1           0        1.690140    2.837810    0.764472
     24          1           0       -0.057834    2.877370    0.432545
     25          1           0        0.592413    1.598566    1.459225
     26          6           0        1.766389    1.924661   -1.783419
     27          1           0        1.218314    2.788791   -2.187246
     28          1           0        2.739650    2.282652   -1.443130
     29          1           0        1.875739    1.184447   -2.574122
 ---------------------------------------------------------------------
 Rotational constants (GHZ):           0.5645377           0.3220541           0.3034195
   427 basis functions,  1056 primitive gaussians,   461 cartesian basis functions
    77 alpha electrons       72 beta electrons
       nuclear repulsion energy      1620.7453825794 Hartrees.
 NAtoms=   29 NActive=   29 NUniq=   29 SFac= 1.00D+00 NAtFMM=   60 NAOKFM=F Big=F
 Initial guess from the checkpoint file:  "checkpoint.chk"
 B after Tr=     0.000000    0.000000    0.000000
         Rot=    1.000000    0.000000    0.000000    0.000000 Ang=   0.00 deg.
 Initial guess <Sx>= 0.0000 <Sy>= 0.0000 <Sz>= 2.5000 <S**2>= 8.7629 S= 2.5022
 SCF Done:  E(UB3LYP) =  -3034.35637308     A.U. after   13 cycles
            NFock= 13  Conv=0.80D-08     -V/T= 2.0024
 <Sx>= 0.0000 <Sy>= 0.0000 <Sz>= 2.5000 <S**2>= 8.7622 S= 2.5020
 <L.S>= 0.000000000000E+00
 Annihilation of the first spin contaminant:
 S**2 before annihilation     8.7622,   after     8.7500
 1\1\GINC-HOLY7C02409\SP\UB3LYP\Jul-CC-pVDZ\C8H16Cl3Fe1O1(6)\EKWAN\12-F
 eb-2020\0\\#t pop=none jul-cc-pvdz guess=read ub3lyp\\theory_abbreviat
 ion b3lyp\\0,6\O,0,0.200784,0.410925,-0.861845\C,0,0.943976,1.394085,-
 0.651273\C,0,3.156838,0.032074,0.519485\C,0,2.627109,-0.947712,-0.2376
 85\C,0,3.022925,-1.124406,-1.679692\Fe,0,-1.477048,-0.166466,0.024776\
 Cl,0,-2.077276,-1.958293,-1.04662\C,0,1.682993,-1.998559,0.271849\Cl,0
 ,-2.714211,1.605438,-0.322251\Cl,0,-1.069296,-0.470426,2.157511\H,0,3.
 887987,0.688786,0.045715\H,0,2.186671,-2.974902,0.275165\H,0,1.313297,
 -1.807802,1.278992\H,0,0.821442,-2.105205,-0.398276\H,0,3.489821,-2.10
 7486,-1.824764\H,0,2.139979,-1.104572,-2.331986\H,0,3.733169,-0.362974
 ,-2.015558\C,0,2.981028,0.231236,2.000052\H,0,3.819988,-0.218659,2.548
 695\H,0,2.974263,1.295024,2.262428\H,0,2.060435,-0.215424,2.384047\C,0
 ,0.809546,2.218632,0.588604\H,0,1.69014,2.83781,0.764472\H,0,-0.057834
 ,2.87737,0.432545\H,0,0.592413,1.598566,1.459225\C,0,1.766389,1.924661
 ,-1.783419\H,0,1.218314,2.788791,-2.187246\H,0,2.73965,2.282652,-1.443
 13\H,0,1.875739,1.184447,-2.574122\\Version=ES64L-G16RevA.03\HF=-3034.
 3563731\S2=8.762219\S2-1=0.\S2A=8.750046\RMSD=8.006e-09\PG=C01 [X(C8H1
 6Cl3Fe1O1)]\\@


 A MAN SHOULD NEVER BE ASHAMED TO OWN HE HAS BEEN IN THE WRONG
 WHICH IS BUT SAYING IN OTHER WORDS,
 THAT HE IS WISER TODAY THAN HE WAS YESTERDAY.

                          -- JONATHAN SWIFT
 Job cpu time:       0 days  0 hours 49 minutes 23.6 seconds.
 Elapsed time:       0 days  0 hours 12 minutes 23.2 seconds.
 File lengths (MBytes):  RWF=    174 Int=      0 D2E=      0 Chk=     13 Scr=      1
 Normal termination of Gaussian 16 at Wed Feb 12 14:23:57 2020.
 Initial command:
 /n/sw/g16_nehalem/g16/l1.exe "/scratch/Gau-240160.inp" -scrdir="/scratch/"
 Entering Link 1 = /n/sw/g16_nehalem/g16/l1.exe PID=    242557.
  
 Copyright (c) 1988,1990,1992,1993,1995,1998,2003,2009,2016,
            Gaussian, Inc.  All Rights Reserved.
  
 This is part of the Gaussian(R) 16 program.  It is based on
 the Gaussian(R) 09 system (copyright 2009, Gaussian, Inc.),
 the Gaussian(R) 03 system (copyright 2003, Gaussian, Inc.),
 the Gaussian(R) 98 system (copyright 1998, Gaussian, Inc.),
 the Gaussian(R) 94 system (copyright 1995, Gaussian, Inc.),
 the Gaussian 92(TM) system (copyright 1992, Gaussian, Inc.),
 the Gaussian 90(TM) system (copyright 1990, Gaussian, Inc.),
 the Gaussian 88(TM) system (copyright 1988, Gaussian, Inc.),
 the Gaussian 86(TM) system (copyright 1986, Carnegie Mellon
 University), and the Gaussian 82(TM) system (copyright 1983,
 Carnegie Mellon University). Gaussian is a federally registered
 trademark of Gaussian, Inc.
  
 This software contains proprietary and confidential information,
 including trade secrets, belonging to Gaussian, Inc.
  
 This software is provided under written license and may be
 used, copied, transmitted, or stored only in accord with that
 written license.
  
 The following legend is applicable only to US Government
 contracts under FAR:
  
                    RESTRICTED RIGHTS LEGEND
  
 Use, reproduction and disclosure by the US Government is
 subject to restrictions as set forth in subparagraphs (a)
 and (c) of the Commercial Computer Software - Restricted
 Rights clause in FAR 52.227-19.
  
 Gaussian, Inc.
 340 Quinnipiac St., Bldg. 40, Wallingford CT 06492
  
  
 ---------------------------------------------------------------
 Warning -- This program may not be used in any manner that
 competes with the business of Gaussian, Inc. or will provide
 assistance to any competitor of Gaussian, Inc.  The licensee
 of this program is prohibited from giving any competitor of
 Gaussian, Inc. access to this program.  By using this program,
 the user acknowledges that Gaussian, Inc. is engaged in the
 business of creating and licensing software in the field of
 computational chemistry and represents and warrants to the
 licensee that it is not a competitor of Gaussian, Inc. and that
 it will not use this program in any manner prohibited above.
 ---------------------------------------------------------------
  

 Cite this work as:
 Gaussian 16, Revision A.03,
 M. J. Frisch, G. W. Trucks, H. B. Schlegel, G. E. Scuseria, 
 M. A. Robb, J. R. Cheeseman, G. Scalmani, V. Barone, 
 G. A. Petersson, H. Nakatsuji, X. Li, M. Caricato, A. V. Marenich, 
 J. Bloino, B. G. Janesko, R. Gomperts, B. Mennucci, H. P. Hratchian, 
 J. V. Ortiz, A. F. Izmaylov, J. L. Sonnenberg, D. Williams-Young, 
 F. Ding, F. Lipparini, F. Egidi, J. Goings, B. Peng, A. Petrone, 
 T. Henderson, D. Ranasinghe, V. G. Zakrzewski, J. Gao, N. Rega, 
 G. Zheng, W. Liang, M. Hada, M. Ehara, K. Toyota, R. Fukuda, 
 J. Hasegawa, M. Ishida, T. Nakajima, Y. Honda, O. Kitao, H. Nakai, 
 T. Vreven, K. Throssell, J. A. Montgomery, Jr., J. E. Peralta, 
 F. Ogliaro, M. J. Bearpark, J. J. Heyd, E. N. Brothers, K. N. Kudin, 
 V. N. Staroverov, T. A. Keith, R. Kobayashi, J. Normand, 
 K. Raghavachari, A. P. Rendell, J. C. Burant, S. S. Iyengar, 
 J. Tomasi, M. Cossi, J. M. Millam, M. Klene, C. Adamo, R. Cammi, 
 J. W. Ochterski, R. L. Martin, K. Morokuma, O. Farkas, 
 J. B. Foresman, and D. J. Fox, Gaussian, Inc., Wallingford CT, 2016.
 
 ******************************************
 Gaussian 16:  ES64L-G16RevA.03 25-Dec-2016
                12-Feb-2020 
 ******************************************
 %chk=checkpoint.chk
 %mem=3GB
 %nprocshared=4
 Will use up to    4 processors via shared memory.
 -------------------------------------------------------------------
 #t pop=none jul-cc-pvdz guess=read ub3lyp empiricaldispersion=gd3bj
 -------------------------------------------------------------------
 ------------------------------
 theory_abbreviation b3lyp_d3bj
 ------------------------------
 Symbolic Z-matrix:
 Charge =  0 Multiplicity = 6
 O                     0.20078   0.41093  -0.86185 
 C                     0.94398   1.39409  -0.65127 
 C                     3.15684   0.03207   0.51949 
 C                     2.62711  -0.94771  -0.23769 
 C                     3.02292  -1.12441  -1.67969 
 Fe                   -1.47705  -0.16647   0.02478 
 Cl                   -2.07728  -1.95829  -1.04662 
 C                     1.68299  -1.99856   0.27185 
 Cl                   -2.71421   1.60544  -0.32225 
 Cl                   -1.0693   -0.47043   2.15751 
 H                     3.88799   0.68879   0.04572 
 H                     2.18667  -2.9749    0.27517 
 H                     1.3133   -1.8078    1.27899 
 H                     0.82144  -2.10521  -0.39828 
 H                     3.48982  -2.10749  -1.82476 
 H                     2.13998  -1.10457  -2.33199 
 H                     3.73317  -0.36297  -2.01556 
 C                     2.98103   0.23124   2.00005 
 H                     3.81999  -0.21866   2.5487 
 H                     2.97426   1.29502   2.26243 
 H                     2.06044  -0.21542   2.38405 
 C                     0.80955   2.21863   0.5886 
 H                     1.69014   2.83781   0.76447 
 H                    -0.05783   2.87737   0.43255 
 H                     0.59241   1.59857   1.45923 
 C                     1.76639   1.92466  -1.78342 
 H                     1.21831   2.78879  -2.18725 
 H                     2.73965   2.28265  -1.44313 
 H                     1.87574   1.18445  -2.57412 
 
                    Distance matrix (angstroms):
                    1          2          3          4          5
     1  O    0.000000
     2  C    1.250311   0.000000
     3  C    3.284792   2.850001   0.000000
     4  C    2.850004   2.913418   1.346811   0.000000
     5  C    3.315207   3.423810   2.488324   1.505747   0.000000
     6  Fe   1.983582   2.958668   4.664446   4.186088   4.906385
     7  Cl   3.291944   4.530199   5.814653   4.879230   5.206553
     8  C    3.047592   3.592817   2.521312   1.501752   2.523504
     9  Cl   3.196126   3.679029   6.136221   5.920762   6.496878
    10  Cl   3.392108   3.926695   4.560246   4.430370   5.647839
    11  H    3.807406   3.106516   1.091012   2.085247   2.648212
    12  H    4.086608   4.635798   3.169041   2.136937   2.818709
    13  H    3.277746   3.756914   2.713050   2.183155   3.484777
    14  H    2.632684   3.510563   3.296107   2.150817   2.729564
    15  H    4.252925   4.485466   3.191253   2.146664   1.097945
    16  H    2.866797   3.240140   3.233706   2.155921   1.097941
    17  H    3.795750   3.567650   2.629575   2.173964   1.094089
    18  C    3.994058   3.539961   1.504212   2.553947   3.921739
    19  H    5.012664   4.594800   2.149495   3.117434   4.397152
    20  H    4.270234   3.552680   2.160145   3.376529   4.625616
    21  H    3.792945   3.612502   2.177142   2.780440   4.273945
    22  C    2.396288   1.495073   3.208675   3.743264   4.606530
    23  H    3.279155   2.155327   3.175433   4.026463   4.842459
    24  H    2.797442   2.092467   4.293877   4.721163   5.474197
    25  H    2.636519   2.149328   3.148537   3.674646   4.814018
    26  C    2.364702   1.496539   3.289164   3.373523   3.299462
    27  H    2.906252   2.092768   4.322471   4.443754   4.339049
    28  H    3.207350   2.154306   3.015129   3.449785   3.426989
    29  H    2.517082   2.146970   3.541127   3.251092   2.728890
                    6          7          8          9         10
     6  Fe   0.000000
     7  Cl   2.172282   0.000000
     8  C    3.661075   3.984922   0.000000
     9  Cl   2.188754   3.691961   5.716393   0.000000
    10  Cl   2.192536   3.673721   3.669606   3.628247   0.000000
    11  H    5.432816   6.616992   3.483527   6.675677   5.511634
    12  H    4.623077   4.578412   1.098612   6.734617   4.518512
    13  H    3.471753   4.114256   1.089679   5.516793   2.870038
    14  H    3.036567   2.973970   1.096682   5.125963   3.574834
    15  H    5.644302   5.623196   2.769888   7.384671   6.270887
    16  H    4.417834   4.490684   2.790700   5.911544   5.554923
    17  H    5.598923   6.102881   3.480027   6.950586   6.363153
    18  C    4.892272   6.297832   3.105409   6.302164   4.113666
    19  H    5.867834   7.122523   3.594276   7.366506   4.911365
    20  H    5.192033   6.859440   4.059245   6.255850   4.413410
    21  H    4.252334   5.650462   2.789877   5.782459   3.148263
    22  C    3.351881   5.334267   4.318326   3.690871   3.636282
    23  H    4.427630   6.362082   4.861398   4.700853   4.527634
    24  H    3.383102   5.445155   5.179863   3.040373   3.899526
    25  H    3.075004   5.104679   3.941895   3.755991   2.744013
    26  C    4.261721   5.513072   4.429756   4.723631   5.413731
    27  H    4.570729   5.890395   5.402018   4.510353   5.893434
    28  H    5.092491   6.430055   4.731432   5.608885   5.920483
    29  H    4.452013   5.276022   4.274135   5.129893   5.813793
                   11         12         13         14         15
    11  H    0.000000
    12  H    4.045953   0.000000
    13  H    3.792486   1.769908   0.000000
    14  H    4.172195   1.753210   1.773019   0.000000
    15  H    3.387678   2.619220   3.802679   3.025743   0.000000
    16  H    3.453278   3.208980   3.770557   2.545396   1.756469
    17  H    2.319270   3.802793   4.335593   3.758873   1.771706
    18  C    2.202580   3.726333   2.731104   3.984312   4.511952
    19  H    2.663267   3.928554   3.228161   4.608142   4.775335
    20  H    2.473102   4.775121   3.654242   4.824473   5.343034
    21  H    3.102473   3.475347   2.077265   3.584368   4.830852
    22  C    3.480224   5.382148   4.116135   4.435047   5.632363
    23  H    3.156810   5.854365   4.689185   5.151700   5.865062
    24  H    4.528691   6.269901   4.954524   5.127323   6.521510
    25  H    3.699529   4.986007   3.486474   4.149781   5.737105
    26  C    3.061747   5.331053   4.849220   4.364787   4.385218
    27  H    4.064885   6.342030   5.757820   5.225813   5.409683
    28  H    2.464903   5.558795   5.116273   4.901483   4.470091
    29  H    3.340414   5.051267   4.910843   4.082604   3.742141
                   16         17         18         19         20
    16  H    0.000000
    17  H    1.785595   0.000000
    18  C    4.610672   4.128429   0.000000
    19  H    5.237205   4.567359   1.098758   0.000000
    20  H    5.250022   4.650383   1.095688   1.757395   0.000000
    21  H    4.799779   4.709176   1.092908   1.767243   1.769555
    22  C    4.619912   4.689768   3.264546   4.341095   2.888034
    23  H    5.033168   4.706119   3.160265   4.130582   2.504602
    24  H    5.322488   5.555604   4.323631   5.394533   3.878905
    25  H    4.906648   5.078002   2.804918   3.860893   2.531893
    26  C    3.101088   3.025787   4.319455   5.251505   4.268991
    27  H    4.003585   4.035789   5.213608   6.184060   5.011417
    28  H    3.552880   2.883417   4.015230   4.833048   3.842084
    29  H    2.316908   2.481240   4.801390   5.656153   4.960967
                   21         22         23         24         25
    21  H    0.000000
    22  C    3.273067   0.000000
    23  H    3.475972   1.090760   0.000000
    24  H    4.226204   1.100290   1.779650   0.000000
    25  H    2.510168   1.090692   1.795386   1.764152   0.000000
    26  C    4.694060   2.574580   2.707656   3.024226   3.464000
    27  H    5.534546   2.863130   2.989592   2.915425   3.886533
    28  H    4.620498   2.803095   2.506627   3.420199   3.674543
    29  H    5.155307   3.494158   3.730183   3.955343   4.252800
                   26         27         28         29
    26  C    0.000000
    27  H    1.100083   0.000000
    28  H    1.091417   1.767583   0.000000
    29  H    1.088616   1.776457   1.797648   0.000000
 Framework group  C1[X(C8H16Cl3FeO)]
 Deg. of freedom    81
                         Standard orientation:                         
 ---------------------------------------------------------------------
 Center     Atomic      Atomic             Coordinates (Angstroms)
 Number     Number       Type             X           Y           Z
 ---------------------------------------------------------------------
      1          8           0        0.200784    0.410925   -0.861845
      2          6           0        0.943976    1.394085   -0.651273
      3          6           0        3.156838    0.032074    0.519485
      4          6           0        2.627109   -0.947712   -0.237685
      5          6           0        3.022925   -1.124406   -1.679692
      6         26           0       -1.477048   -0.166466    0.024776
      7         17           0       -2.077276   -1.958293   -1.046620
      8          6           0        1.682993   -1.998559    0.271849
      9         17           0       -2.714211    1.605438   -0.322251
     10         17           0       -1.069296   -0.470426    2.157511
     11          1           0        3.887987    0.688786    0.045715
     12          1           0        2.186671   -2.974902    0.275165
     13          1           0        1.313297   -1.807802    1.278992
     14          1           0        0.821442   -2.105205   -0.398276
     15          1           0        3.489821   -2.107486   -1.824764
     16          1           0        2.139979   -1.104572   -2.331986
     17          1           0        3.733169   -0.362974   -2.015558
     18          6           0        2.981028    0.231236    2.000052
     19          1           0        3.819988   -0.218659    2.548695
     20          1           0        2.974263    1.295024    2.262428
     21          1           0        2.060435   -0.215424    2.384047
     22          6           0        0.809546    2.218632    0.588604
     23          1           0        1.690140    2.837810    0.764472
     24          1           0       -0.057834    2.877370    0.432545
     25          1           0        0.592413    1.598566    1.459225
     26          6           0        1.766389    1.924661   -1.783419
     27          1           0        1.218314    2.788791   -2.187246
     28          1           0        2.739650    2.282652   -1.443130
     29          1           0        1.875739    1.184447   -2.574122
 ---------------------------------------------------------------------
 Rotational constants (GHZ):           0.5645377           0.3220541           0.3034195
   427 basis functions,  1056 primitive gaussians,   461 cartesian basis functions
    77 alpha electrons       72 beta electrons
       nuclear repulsion energy      1620.7453825794 Hartrees.
 NAtoms=   29 NActive=   29 NUniq=   29 SFac= 1.00D+00 NAtFMM=   60 NAOKFM=F Big=F
 Nuclear repulsion after empirical dispersion term =     1620.6783055617 Hartrees.
 Initial guess from the checkpoint file:  "checkpoint.chk"
 B after Tr=     0.000000    0.000000    0.000000
         Rot=    1.000000    0.000000    0.000000    0.000000 Ang=   0.00 deg.
 Initial guess <Sx>= 0.0000 <Sy>= 0.0000 <Sz>= 2.5000 <S**2>= 8.7622 S= 2.5020
 SCF Done:  E(UB3LYP) =  -3034.42345010     A.U. after    1 cycles
            NFock=  1  Conv=0.60D-08     -V/T= 2.0024
 <Sx>= 0.0000 <Sy>= 0.0000 <Sz>= 2.5000 <S**2>= 8.7622 S= 2.5020
 <L.S>= 0.000000000000E+00
 Annihilation of the first spin contaminant:
 S**2 before annihilation     8.7622,   after     8.7500
 1\1\GINC-HOLY7C02409\SP\UB3LYP\Jul-CC-pVDZ\C8H16Cl3Fe1O1(6)\EKWAN\12-F
 eb-2020\0\\#t pop=none jul-cc-pvdz guess=read ub3lyp empiricaldispersi
 on=gd3bj\\theory_abbreviation b3lyp_d3bj\\0,6\O,0,0.200784,0.410925,-0
 .861845\C,0,0.943976,1.394085,-0.651273\C,0,3.156838,0.032074,0.519485
 \C,0,2.627109,-0.947712,-0.237685\C,0,3.022925,-1.124406,-1.679692\Fe,
 0,-1.477048,-0.166466,0.024776\Cl,0,-2.077276,-1.958293,-1.04662\C,0,1
 .682993,-1.998559,0.271849\Cl,0,-2.714211,1.605438,-0.322251\Cl,0,-1.0
 69296,-0.470426,2.157511\H,0,3.887987,0.688786,0.045715\H,0,2.186671,-
 2.974902,0.275165\H,0,1.313297,-1.807802,1.278992\H,0,0.821442,-2.1052
 05,-0.398276\H,0,3.489821,-2.107486,-1.824764\H,0,2.139979,-1.104572,-
 2.331986\H,0,3.733169,-0.362974,-2.015558\C,0,2.981028,0.231236,2.0000
 52\H,0,3.819988,-0.218659,2.548695\H,0,2.974263,1.295024,2.262428\H,0,
 2.060435,-0.215424,2.384047\C,0,0.809546,2.218632,0.588604\H,0,1.69014
 ,2.83781,0.764472\H,0,-0.057834,2.87737,0.432545\H,0,0.592413,1.598566
 ,1.459225\C,0,1.766389,1.924661,-1.783419\H,0,1.218314,2.788791,-2.187
 246\H,0,2.73965,2.282652,-1.44313\H,0,1.875739,1.184447,-2.574122\\Ver
 sion=ES64L-G16RevA.03\HF=-3034.4234501\S2=8.762219\S2-1=0.\S2A=8.75004
 6\RMSD=5.974e-09\PG=C01 [X(C8H16Cl3Fe1O1)]\\@


 A DANDELION FROM A LOVER MEANS MORE THAN AN ORCHID FROM A FRIEND.
 Job cpu time:       0 days  0 hours  4 minutes 10.3 seconds.
 Elapsed time:       0 days  0 hours  1 minutes  2.9 seconds.
 File lengths (MBytes):  RWF=    170 Int=      0 D2E=      0 Chk=     13 Scr=      1
 Normal termination of Gaussian 16 at Wed Feb 12 14:25:00 2020.
 Initial command:
 /n/sw/g16_nehalem/g16/l1.exe "/scratch/Gau-240160.inp" -scrdir="/scratch/"
 Entering Link 1 = /n/sw/g16_nehalem/g16/l1.exe PID=    242667.
  
 Copyright (c) 1988,1990,1992,1993,1995,1998,2003,2009,2016,
            Gaussian, Inc.  All Rights Reserved.
  
 This is part of the Gaussian(R) 16 program.  It is based on
 the Gaussian(R) 09 system (copyright 2009, Gaussian, Inc.),
 the Gaussian(R) 03 system (copyright 2003, Gaussian, Inc.),
 the Gaussian(R) 98 system (copyright 1998, Gaussian, Inc.),
 the Gaussian(R) 94 system (copyright 1995, Gaussian, Inc.),
 the Gaussian 92(TM) system (copyright 1992, Gaussian, Inc.),
 the Gaussian 90(TM) system (copyright 1990, Gaussian, Inc.),
 the Gaussian 88(TM) system (copyright 1988, Gaussian, Inc.),
 the Gaussian 86(TM) system (copyright 1986, Carnegie Mellon
 University), and the Gaussian 82(TM) system (copyright 1983,
 Carnegie Mellon University). Gaussian is a federally registered
 trademark of Gaussian, Inc.
  
 This software contains proprietary and confidential information,
 including trade secrets, belonging to Gaussian, Inc.
  
 This software is provided under written license and may be
 used, copied, transmitted, or stored only in accord with that
 written license.
  
 The following legend is applicable only to US Government
 contracts under FAR:
  
                    RESTRICTED RIGHTS LEGEND
  
 Use, reproduction and disclosure by the US Government is
 subject to restrictions as set forth in subparagraphs (a)
 and (c) of the Commercial Computer Software - Restricted
 Rights clause in FAR 52.227-19.
  
 Gaussian, Inc.
 340 Quinnipiac St., Bldg. 40, Wallingford CT 06492
  
  
 ---------------------------------------------------------------
 Warning -- This program may not be used in any manner that
 competes with the business of Gaussian, Inc. or will provide
 assistance to any competitor of Gaussian, Inc.  The licensee
 of this program is prohibited from giving any competitor of
 Gaussian, Inc. access to this program.  By using this program,
 the user acknowledges that Gaussian, Inc. is engaged in the
 business of creating and licensing software in the field of
 computational chemistry and represents and warrants to the
 licensee that it is not a competitor of Gaussian, Inc. and that
 it will not use this program in any manner prohibited above.
 ---------------------------------------------------------------
  

 Cite this work as:
 Gaussian 16, Revision A.03,
 M. J. Frisch, G. W. Trucks, H. B. Schlegel, G. E. Scuseria, 
 M. A. Robb, J. R. Cheeseman, G. Scalmani, V. Barone, 
 G. A. Petersson, H. Nakatsuji, X. Li, M. Caricato, A. V. Marenich, 
 J. Bloino, B. G. Janesko, R. Gomperts, B. Mennucci, H. P. Hratchian, 
 J. V. Ortiz, A. F. Izmaylov, J. L. Sonnenberg, D. Williams-Young, 
 F. Ding, F. Lipparini, F. Egidi, J. Goings, B. Peng, A. Petrone, 
 T. Henderson, D. Ranasinghe, V. G. Zakrzewski, J. Gao, N. Rega, 
 G. Zheng, W. Liang, M. Hada, M. Ehara, K. Toyota, R. Fukuda, 
 J. Hasegawa, M. Ishida, T. Nakajima, Y. Honda, O. Kitao, H. Nakai, 
 T. Vreven, K. Throssell, J. A. Montgomery, Jr., J. E. Peralta, 
 F. Ogliaro, M. J. Bearpark, J. J. Heyd, E. N. Brothers, K. N. Kudin, 
 V. N. Staroverov, T. A. Keith, R. Kobayashi, J. Normand, 
 K. Raghavachari, A. P. Rendell, J. C. Burant, S. S. Iyengar, 
 J. Tomasi, M. Cossi, J. M. Millam, M. Klene, C. Adamo, R. Cammi, 
 J. W. Ochterski, R. L. Martin, K. Morokuma, O. Farkas, 
 J. B. Foresman, and D. J. Fox, Gaussian, Inc., Wallingford CT, 2016.
 
 ******************************************
 Gaussian 16:  ES64L-G16RevA.03 25-Dec-2016
                12-Feb-2020 
 ******************************************
 %chk=checkpoint.chk
 %mem=3GB
 %nprocshared=4
 Will use up to    4 processors via shared memory.
 ----------------------------------------
 #t pop=none jul-cc-pvdz guess=read ub97d
 ----------------------------------------
 ------------------------
 theory_abbreviation b97d
 ------------------------
 Symbolic Z-matrix:
 Charge =  0 Multiplicity = 6
 O                     0.20078   0.41093  -0.86185 
 C                     0.94398   1.39409  -0.65127 
 C                     3.15684   0.03207   0.51949 
 C                     2.62711  -0.94771  -0.23769 
 C                     3.02292  -1.12441  -1.67969 
 Fe                   -1.47705  -0.16647   0.02478 
 Cl                   -2.07728  -1.95829  -1.04662 
 C                     1.68299  -1.99856   0.27185 
 Cl                   -2.71421   1.60544  -0.32225 
 Cl                   -1.0693   -0.47043   2.15751 
 H                     3.88799   0.68879   0.04572 
 H                     2.18667  -2.9749    0.27517 
 H                     1.3133   -1.8078    1.27899 
 H                     0.82144  -2.10521  -0.39828 
 H                     3.48982  -2.10749  -1.82476 
 H                     2.13998  -1.10457  -2.33199 
 H                     3.73317  -0.36297  -2.01556 
 C                     2.98103   0.23124   2.00005 
 H                     3.81999  -0.21866   2.5487 
 H                     2.97426   1.29502   2.26243 
 H                     2.06044  -0.21542   2.38405 
 C                     0.80955   2.21863   0.5886 
 H                     1.69014   2.83781   0.76447 
 H                    -0.05783   2.87737   0.43255 
 H                     0.59241   1.59857   1.45923 
 C                     1.76639   1.92466  -1.78342 
 H                     1.21831   2.78879  -2.18725 
 H                     2.73965   2.28265  -1.44313 
 H                     1.87574   1.18445  -2.57412 
 
                    Distance matrix (angstroms):
                    1          2          3          4          5
     1  O    0.000000
     2  C    1.250311   0.000000
     3  C    3.284792   2.850001   0.000000
     4  C    2.850004   2.913418   1.346811   0.000000
     5  C    3.315207   3.423810   2.488324   1.505747   0.000000
     6  Fe   1.983582   2.958668   4.664446   4.186088   4.906385
     7  Cl   3.291944   4.530199   5.814653   4.879230   5.206553
     8  C    3.047592   3.592817   2.521312   1.501752   2.523504
     9  Cl   3.196126   3.679029   6.136221   5.920762   6.496878
    10  Cl   3.392108   3.926695   4.560246   4.430370   5.647839
    11  H    3.807406   3.106516   1.091012   2.085247   2.648212
    12  H    4.086608   4.635798   3.169041   2.136937   2.818709
    13  H    3.277746   3.756914   2.713050   2.183155   3.484777
    14  H    2.632684   3.510563   3.296107   2.150817   2.729564
    15  H    4.252925   4.485466   3.191253   2.146664   1.097945
    16  H    2.866797   3.240140   3.233706   2.155921   1.097941
    17  H    3.795750   3.567650   2.629575   2.173964   1.094089
    18  C    3.994058   3.539961   1.504212   2.553947   3.921739
    19  H    5.012664   4.594800   2.149495   3.117434   4.397152
    20  H    4.270234   3.552680   2.160145   3.376529   4.625616
    21  H    3.792945   3.612502   2.177142   2.780440   4.273945
    22  C    2.396288   1.495073   3.208675   3.743264   4.606530
    23  H    3.279155   2.155327   3.175433   4.026463   4.842459
    24  H    2.797442   2.092467   4.293877   4.721163   5.474197
    25  H    2.636519   2.149328   3.148537   3.674646   4.814018
    26  C    2.364702   1.496539   3.289164   3.373523   3.299462
    27  H    2.906252   2.092768   4.322471   4.443754   4.339049
    28  H    3.207350   2.154306   3.015129   3.449785   3.426989
    29  H    2.517082   2.146970   3.541127   3.251092   2.728890
                    6          7          8          9         10
     6  Fe   0.000000
     7  Cl   2.172282   0.000000
     8  C    3.661075   3.984922   0.000000
     9  Cl   2.188754   3.691961   5.716393   0.000000
    10  Cl   2.192536   3.673721   3.669606   3.628247   0.000000
    11  H    5.432816   6.616992   3.483527   6.675677   5.511634
    12  H    4.623077   4.578412   1.098612   6.734617   4.518512
    13  H    3.471753   4.114256   1.089679   5.516793   2.870038
    14  H    3.036567   2.973970   1.096682   5.125963   3.574834
    15  H    5.644302   5.623196   2.769888   7.384671   6.270887
    16  H    4.417834   4.490684   2.790700   5.911544   5.554923
    17  H    5.598923   6.102881   3.480027   6.950586   6.363153
    18  C    4.892272   6.297832   3.105409   6.302164   4.113666
    19  H    5.867834   7.122523   3.594276   7.366506   4.911365
    20  H    5.192033   6.859440   4.059245   6.255850   4.413410
    21  H    4.252334   5.650462   2.789877   5.782459   3.148263
    22  C    3.351881   5.334267   4.318326   3.690871   3.636282
    23  H    4.427630   6.362082   4.861398   4.700853   4.527634
    24  H    3.383102   5.445155   5.179863   3.040373   3.899526
    25  H    3.075004   5.104679   3.941895   3.755991   2.744013
    26  C    4.261721   5.513072   4.429756   4.723631   5.413731
    27  H    4.570729   5.890395   5.402018   4.510353   5.893434
    28  H    5.092491   6.430055   4.731432   5.608885   5.920483
    29  H    4.452013   5.276022   4.274135   5.129893   5.813793
                   11         12         13         14         15
    11  H    0.000000
    12  H    4.045953   0.000000
    13  H    3.792486   1.769908   0.000000
    14  H    4.172195   1.753210   1.773019   0.000000
    15  H    3.387678   2.619220   3.802679   3.025743   0.000000
    16  H    3.453278   3.208980   3.770557   2.545396   1.756469
    17  H    2.319270   3.802793   4.335593   3.758873   1.771706
    18  C    2.202580   3.726333   2.731104   3.984312   4.511952
    19  H    2.663267   3.928554   3.228161   4.608142   4.775335
    20  H    2.473102   4.775121   3.654242   4.824473   5.343034
    21  H    3.102473   3.475347   2.077265   3.584368   4.830852
    22  C    3.480224   5.382148   4.116135   4.435047   5.632363
    23  H    3.156810   5.854365   4.689185   5.151700   5.865062
    24  H    4.528691   6.269901   4.954524   5.127323   6.521510
    25  H    3.699529   4.986007   3.486474   4.149781   5.737105
    26  C    3.061747   5.331053   4.849220   4.364787   4.385218
    27  H    4.064885   6.342030   5.757820   5.225813   5.409683
    28  H    2.464903   5.558795   5.116273   4.901483   4.470091
    29  H    3.340414   5.051267   4.910843   4.082604   3.742141
                   16         17         18         19         20
    16  H    0.000000
    17  H    1.785595   0.000000
    18  C    4.610672   4.128429   0.000000
    19  H    5.237205   4.567359   1.098758   0.000000
    20  H    5.250022   4.650383   1.095688   1.757395   0.000000
    21  H    4.799779   4.709176   1.092908   1.767243   1.769555
    22  C    4.619912   4.689768   3.264546   4.341095   2.888034
    23  H    5.033168   4.706119   3.160265   4.130582   2.504602
    24  H    5.322488   5.555604   4.323631   5.394533   3.878905
    25  H    4.906648   5.078002   2.804918   3.860893   2.531893
    26  C    3.101088   3.025787   4.319455   5.251505   4.268991
    27  H    4.003585   4.035789   5.213608   6.184060   5.011417
[...]
     29          1           0        1.875739    1.184447   -2.574122
 ---------------------------------------------------------------------
 Rotational constants (GHZ):           0.5645377           0.3220541           0.3034195
   427 basis functions,  1056 primitive gaussians,   461 cartesian basis functions
    77 alpha electrons       72 beta electrons
       nuclear repulsion energy      1620.7453825794 Hartrees.
 NAtoms=   29 NActive=   29 NUniq=   29 SFac= 1.00D+00 NAtFMM=   60 NAOKFM=F Big=F
 Nuclear repulsion after empirical dispersion term =     1620.7428848254 Hartrees.
 Initial guess from the checkpoint file:  "checkpoint.chk"
 B after Tr=     0.000000    0.000000    0.000000
         Rot=    1.000000    0.000000    0.000000    0.000000 Ang=   0.00 deg.
 Initial guess <Sx>= 0.0000 <Sy>= 0.0000 <Sz>= 2.5000 <S**2>= 8.7619 S= 2.5020
 SCF Done:  E(UM06L) =  -3034.22375500     A.U. after   17 cycles
            NFock= 17  Conv=0.80D-08     -V/T= 2.0020
 <Sx>= 0.0000 <Sy>= 0.0000 <Sz>= 2.5000 <S**2>= 8.7617 S= 2.5020
 <L.S>= 0.000000000000E+00
 Annihilation of the first spin contaminant:
 S**2 before annihilation     8.7617,   after     8.7500
 1\1\GINC-HOLY7C02409\SP\UM06L\Jul-CC-pVDZ\C8H16Cl3Fe1O1(6)\EKWAN\12-Fe
 b-2020\0\\#t pop=none jul-cc-pvdz guess=read um06l empiricaldispersion
 =gd3\\theory_abbreviation m06l_d3\\0,6\O,0,0.200784,0.410925,-0.861845
 \C,0,0.943976,1.394085,-0.651273\C,0,3.156838,0.032074,0.519485\C,0,2.
 627109,-0.947712,-0.237685\C,0,3.022925,-1.124406,-1.679692\Fe,0,-1.47
 7048,-0.166466,0.024776\Cl,0,-2.077276,-1.958293,-1.04662\C,0,1.682993
 ,-1.998559,0.271849\Cl,0,-2.714211,1.605438,-0.322251\Cl,0,-1.069296,-
 0.470426,2.157511\H,0,3.887987,0.688786,0.045715\H,0,2.186671,-2.97490
 2,0.275165\H,0,1.313297,-1.807802,1.278992\H,0,0.821442,-2.105205,-0.3
 98276\H,0,3.489821,-2.107486,-1.824764\H,0,2.139979,-1.104572,-2.33198
 6\H,0,3.733169,-0.362974,-2.015558\C,0,2.981028,0.231236,2.000052\H,0,
 3.819988,-0.218659,2.548695\H,0,2.974263,1.295024,2.262428\H,0,2.06043
 5,-0.215424,2.384047\C,0,0.809546,2.218632,0.588604\H,0,1.69014,2.8378
 1,0.764472\H,0,-0.057834,2.87737,0.432545\H,0,0.592413,1.598566,1.4592
 25\C,0,1.766389,1.924661,-1.783419\H,0,1.218314,2.788791,-2.187246\H,0
 ,2.73965,2.282652,-1.44313\H,0,1.875739,1.184447,-2.574122\\Version=ES
 64L-G16RevA.03\HF=-3034.223755\S2=8.761743\S2-1=0.\S2A=8.750044\RMSD=8
 .049e-09\PG=C01 [X(C8H16Cl3Fe1O1)]\\@


 IT'S WHAT YOU LEARN AFTER YOU KNOW IT ALL
 THAT COUNTS.
 Job cpu time:       0 days  1 hours 11 minutes 10.0 seconds.
 Elapsed time:       0 days  0 hours 17 minutes 50.5 seconds.
 File lengths (MBytes):  RWF=    174 Int=      0 D2E=      0 Chk=     13 Scr=      1
 Normal termination of Gaussian 16 at Wed Feb 12 22:15:06 2020.
 Initial command:
 /n/sw/g16_nehalem/g16/l1.exe "/scratch/Gau-240160.inp" -scrdir="/scratch/"
 Entering Link 1 = /n/sw/g16_nehalem/g16/l1.exe PID=    285336.
  
 Copyright (c) 1988,1990,1992,1993,1995,1998,2003,2009,2016,
            Gaussian, Inc.  All Rights Reserved.
  
 This is part of the Gaussian(R) 16 program.  It is based on
 the Gaussian(R) 09 system (copyright 2009, Gaussian, Inc.),
 the Gaussian(R) 03 system (copyright 2003, Gaussian, Inc.),
 the Gaussian(R) 98 system (copyright 1998, Gaussian, Inc.),
 the Gaussian(R) 94 system (copyright 1995, Gaussian, Inc.),
 the Gaussian 92(TM) system (copyright 1992, Gaussian, Inc.),
 the Gaussian 90(TM) system (copyright 1990, Gaussian, Inc.),
 the Gaussian 88(TM) system (copyright 1988, Gaussian, Inc.),
 the Gaussian 86(TM) system (copyright 1986, Carnegie Mellon
 University), and the Gaussian 82(TM) system (copyright 1983,
 Carnegie Mellon University). Gaussian is a federally registered
 trademark of Gaussian, Inc.
  
 This software contains proprietary and confidential information,
 including trade secrets, belonging to Gaussian, Inc.
  
 This software is provided under written license and may be
 used, copied, transmitted, or stored only in accord with that
 written license.
  
 The following legend is applicable only to US Government
 contracts under FAR:
  
                    RESTRICTED RIGHTS LEGEND
  
 Use, reproduction and disclosure by the US Government is
 subject to restrictions as set forth in subparagraphs (a)
 and (c) of the Commercial Computer Software - Restricted
 Rights clause in FAR 52.227-19.
  
 Gaussian, Inc.
 340 Quinnipiac St., Bldg. 40, Wallingford CT 06492
  
  
 ---------------------------------------------------------------
 Warning -- This program may not be used in any manner that
 competes with the business of Gaussian, Inc. or will provide
 assistance to any competitor of Gaussian, Inc.  The licensee
 of this program is prohibited from giving any competitor of
 Gaussian, Inc. access to this program.  By using this program,
 the user acknowledges that Gaussian, Inc. is engaged in the
 business of creating and licensing software in the field of
 computational chemistry and represents and warrants to the
 licensee that it is not a competitor of Gaussian, Inc. and that
 it will not use this program in any manner prohibited above.
 ---------------------------------------------------------------
  

 Cite this work as:
 Gaussian 16, Revision A.03,
 M. J. Frisch, G. W. Trucks, H. B. Schlegel, G. E. Scuseria, 
 M. A. Robb, J. R. Cheeseman, G. Scalmani, V. Barone, 
 G. A. Petersson, H. Nakatsuji, X. Li, M. Caricato, A. V. Marenich, 
 J. Bloino, B. G. Janesko, R. Gomperts, B. Mennucci, H. P. Hratchian, 
 J. V. Ortiz, A. F. Izmaylov, J. L. Sonnenberg, D. Williams-Young, 
 F. Ding, F. Lipparini, F. Egidi, J. Goings, B. Peng, A. Petrone, 
 T. Henderson, D. Ranasinghe, V. G. Zakrzewski, J. Gao, N. Rega, 
 G. Zheng, W. Liang, M. Hada, M. Ehara, K. Toyota, R. Fukuda, 
 J. Hasegawa, M. Ishida, T. Nakajima, Y. Honda, O. Kitao, H. Nakai, 
 T. Vreven, K. Throssell, J. A. Montgomery, Jr., J. E. Peralta, 
 F. Ogliaro, M. J. Bearpark, J. J. Heyd, E. N. Brothers, K. N. Kudin, 
 V. N. Staroverov, T. A. Keith, R. Kobayashi, J. Normand, 
 K. Raghavachari, A. P. Rendell, J. C. Burant, S. S. Iyengar, 
 J. Tomasi, M. Cossi, J. M. Millam, M. Klene, C. Adamo, R. Cammi, 
 J. W. Ochterski, R. L. Martin, K. Morokuma, O. Farkas, 
 J. B. Foresman, and D. J. Fox, Gaussian, Inc., Wallingford CT, 2016.
 
 ******************************************
 Gaussian 16:  ES64L-G16RevA.03 25-Dec-2016
                12-Feb-2020 
 ******************************************
 %chk=checkpoint.chk
 %mem=3GB
 %nprocshared=4
 Will use up to    4 processors via shared memory.
 -------------------------------------------------------------------
 #t pop=none jul-cc-pvdz guess=read ub97d3 empiricaldispersion=gd3bj
 -------------------------------------------------------------------
 ------------------------------
 theory_abbreviation b97d3_d3bj
 ------------------------------
 Symbolic Z-matrix:
 Charge =  0 Multiplicity = 6
 O                     0.20078   0.41093  -0.86185 
 C                     0.94398   1.39409  -0.65127 
 C                     3.15684   0.03207   0.51949 
 C                     2.62711  -0.94771  -0.23769 
 C                     3.02292  -1.12441  -1.67969 
 Fe                   -1.47705  -0.16647   0.02478 
 Cl                   -2.07728  -1.95829  -1.04662 
 C                     1.68299  -1.99856   0.27185 
 Cl                   -2.71421   1.60544  -0.32225 
 Cl                   -1.0693   -0.47043   2.15751 
 H                     3.88799   0.68879   0.04572 
 H                     2.18667  -2.9749    0.27517 
 H                     1.3133   -1.8078    1.27899 
 H                     0.82144  -2.10521  -0.39828 
 H                     3.48982  -2.10749  -1.82476 
 H                     2.13998  -1.10457  -2.33199 
 H                     3.73317  -0.36297  -2.01556 
 C                     2.98103   0.23124   2.00005 
 H                     3.81999  -0.21866   2.5487 
 H                     2.97426   1.29502   2.26243 
 H                     2.06044  -0.21542   2.38405 
 C                     0.80955   2.21863   0.5886 
 H                     1.69014   2.83781   0.76447 
 H                    -0.05783   2.87737   0.43255 
 H                     0.59241   1.59857   1.45923 
 C                     1.76639   1.92466  -1.78342 
 H                     1.21831   2.78879  -2.18725 
 H                     2.73965   2.28265  -1.44313 
 H                     1.87574   1.18445  -2.57412 
 
                    Distance matrix (angstroms):
                    1          2          3          4          5
     1  O    0.000000
     2  C    1.250311   0.000000
     3  C    3.284792   2.850001   0.000000
     4  C    2.850004   2.913418   1.346811   0.000000
     5  C    3.315207   3.423810   2.488324   1.505747   0.000000
     6  Fe   1.983582   2.958668   4.664446   4.186088   4.906385
     7  Cl   3.291944   4.530199   5.814653   4.879230   5.206553
     8  C    3.047592   3.592817   2.521312   1.501752   2.523504
     9  Cl   3.196126   3.679029   6.136221   5.920762   6.496878
    10  Cl   3.392108   3.926695   4.560246   4.430370   5.647839
    11  H    3.807406   3.106516   1.091012   2.085247   2.648212
    12  H    4.086608   4.635798   3.169041   2.136937   2.818709
    13  H    3.277746   3.756914   2.713050   2.183155   3.484777
    14  H    2.632684   3.510563   3.296107   2.150817   2.729564
    15  H    4.252925   4.485466   3.191253   2.146664   1.097945
    16  H    2.866797   3.240140   3.233706   2.155921   1.097941
    17  H    3.795750   3.567650   2.629575   2.173964   1.094089
    18  C    3.994058   3.539961   1.504212   2.553947   3.921739
    19  H    5.012664   4.594800   2.149495   3.117434   4.397152
    20  H    4.270234   3.552680   2.160145   3.376529   4.625616
    21  H    3.792945   3.612502   2.177142   2.780440   4.273945
    22  C    2.396288   1.495073   3.208675   3.743264   4.606530
    23  H    3.279155   2.155327   3.175433   4.026463   4.842459
    24  H    2.797442   2.092467   4.293877   4.721163   5.474197
    25  H    2.636519   2.149328   3.148537   3.674646   4.814018
    26  C    2.364702   1.496539   3.289164   3.373523   3.299462
    27  H    2.906252   2.092768   4.322471   4.443754   4.339049
    28  H    3.207350   2.154306   3.015129   3.449785   3.426989
    29  H    2.517082   2.146970   3.541127   3.251092   2.728890
                    6          7          8          9         10
     6  Fe   0.000000
     7  Cl   2.172282   0.000000
     8  C    3.661075   3.984922   0.000000
     9  Cl   2.188754   3.691961   5.716393   0.000000
    10  Cl   2.192536   3.673721   3.669606   3.628247   0.000000
    11  H    5.432816   6.616992   3.483527   6.675677   5.511634
    12  H    4.623077   4.578412   1.098612   6.734617   4.518512
    13  H    3.471753   4.114256   1.089679   5.516793   2.870038
    14  H    3.036567   2.973970   1.096682   5.125963   3.574834
    15  H    5.644302   5.623196   2.769888   7.384671   6.270887
    16  H    4.417834   4.490684   2.790700   5.911544   5.554923
    17  H    5.598923   6.102881   3.480027   6.950586   6.363153
    18  C    4.892272   6.297832   3.105409   6.302164   4.113666
    19  H    5.867834   7.122523   3.594276   7.366506   4.911365
    20  H    5.192033   6.859440   4.059245   6.255850   4.413410
    21  H    4.252334   5.650462   2.789877   5.782459   3.148263
    22  C    3.351881   5.334267   4.318326   3.690871   3.636282
    23  H    4.427630   6.362082   4.861398   4.700853   4.527634
    24  H    3.383102   5.445155   5.179863   3.040373   3.899526
    25  H    3.075004   5.104679   3.941895   3.755991   2.744013
    26  C    4.261721   5.513072   4.429756   4.723631   5.413731
    27  H    4.570729   5.890395   5.402018   4.510353   5.893434
    28  H    5.092491   6.430055   4.731432   5.608885   5.920483
    29  H    4.452013   5.276022   4.274135   5.129893   5.813793
                   11         12         13         14         15
    11  H    0.000000
    12  H    4.045953   0.000000
    13  H    3.792486   1.769908   0.000000
    14  H    4.172195   1.753210   1.773019   0.000000
    15  H    3.387678   2.619220   3.802679   3.025743   0.000000
    16  H    3.453278   3.208980   3.770557   2.545396   1.756469
    17  H    2.319270   3.802793   4.335593   3.758873   1.771706
    18  C    2.202580   3.726333   2.731104   3.984312   4.511952
    19  H    2.663267   3.928554   3.228161   4.608142   4.775335
    20  H    2.473102   4.775121   3.654242   4.824473   5.343034
    21  H    3.102473   3.475347   2.077265   3.584368   4.830852
    22  C    3.480224   5.382148   4.116135   4.435047   5.632363
    23  H    3.156810   5.854365   4.689185   5.151700   5.865062
    24  H    4.528691   6.269901   4.954524   5.127323   6.521510
    25  H    3.699529   4.986007   3.486474   4.149781   5.737105
    26  C    3.061747   5.331053   4.849220   4.364787   4.385218
    27  H    4.064885   6.342030   5.757820   5.225813   5.409683
    28  H    2.464903   5.558795   5.116273   4.901483   4.470091
    29  H    3.340414   5.051267   4.910843   4.082604   3.742141
                   16         17         18         19         20
    16  H    0.000000
    17  H    1.785595   0.000000
    18  C    4.610672   4.128429   0.000000
    19  H    5.237205   4.567359   1.098758   0.000000
    20  H    5.250022   4.650383   1.095688   1.757395   0.000000
    21  H    4.799779   4.709176   1.092908   1.767243   1.769555
    22  C    4.619912   4.689768   3.264546   4.341095   2.888034
    23  H    5.033168   4.706119   3.160265   4.130582   2.504602
    24  H    5.322488   5.555604   4.323631   5.394533   3.878905
    25  H    4.906648   5.078002   2.804918   3.860893   2.531893
    26  C    3.101088   3.025787   4.319455   5.251505   4.268991
    27  H    4.003585   4.035789   5.213608   6.184060   5.011417
    28  H    3.552880   2.883417   4.015230   4.833048   3.842084
    29  H    2.316908   2.481240   4.801390   5.656153   4.960967
                   21         22         23         24         25
    21  H    0.000000
    22  C    3.273067   0.000000
    23  H    3.475972   1.090760   0.000000
    24  H    4.226204   1.100290   1.779650   0.000000
    25  H    2.510168   1.090692   1.795386   1.764152   0.000000
    26  C    4.694060   2.574580   2.707656   3.024226   3.464000
    27  H    5.534546   2.863130   2.989592   2.915425   3.886533
    28  H    4.620498   2.803095   2.506627   3.420199   3.674543
    29  H    5.155307   3.494158   3.730183   3.955343   4.252800
                   26         27         28         29
    26  C    0.000000
    27  H    1.100083   0.000000
    28  H    1.091417   1.767583   0.000000
    29  H    1.088616   1.776457   1.797648   0.000000
 Framework group  C1[X(C8H16Cl3FeO)]
 Deg. of freedom    81
                         Standard orientation:                         
 ---------------------------------------------------------------------
 Center     Atomic      Atomic             Coordinates (Angstroms)
 Number     Number       Type             X           Y           Z
 ---------------------------------------------------------------------
      1          8           0        0.200784    0.410925   -0.861845
      2          6           0        0.943976    1.394085   -0.651273
      3          6           0        3.156838    0.032074    0.519485
      4          6           0        2.627109   -0.947712   -0.237685
      5          6           0        3.022925   -1.124406   -1.679692
      6         26           0       -1.477048   -0.166466    0.024776
      7         17           0       -2.077276   -1.958293   -1.046620
      8          6           0        1.682993   -1.998559    0.271849
      9         17           0       -2.714211    1.605438   -0.322251
     10         17           0       -1.069296   -0.470426    2.157511
     11          1           0        3.887987    0.688786    0.045715
     12          1           0        2.186671   -2.974902    0.275165
     13          1           0        1.313297   -1.807802    1.278992
     14          1           0        0.821442   -2.105205   -0.398276
     15          1           0        3.489821   -2.107486   -1.824764
     16          1           0        2.139979   -1.104572   -2.331986
     17          1           0        3.733169   -0.362974   -2.015558
     18          6           0        2.981028    0.231236    2.000052
     19          1           0        3.819988   -0.218659    2.548695
     20          1           0        2.974263    1.295024    2.262428
     21          1           0        2.060435   -0.215424    2.384047
     22          6           0        0.809546    2.218632    0.588604
     23          1           0        1.690140    2.837810    0.764472
     24          1           0       -0.057834    2.877370    0.432545
     25          1           0        0.592413    1.598566    1.459225
     26          6           0        1.766389    1.924661   -1.783419
     27          1           0        1.218314    2.788791   -2.187246
     28          1           0        2.739650    2.282652   -1.443130
     29          1           0        1.875739    1.184447   -2.574122
 ---------------------------------------------------------------------
 Rotational constants (GHZ):           0.5645377           0.3220541           0.3034195
   427 basis functions,  1056 primitive gaussians,   461 cartesian basis functions
    77 alpha electrons       72 beta electrons
       nuclear repulsion energy      1620.7453825794 Hartrees.
 NAtoms=   29 NActive=   29 NUniq=   29 SFac= 1.00D+00 NAtFMM=   60 NAOKFM=F Big=F
 Nuclear repulsion after empirical dispersion term =     1620.6475338790 Hartrees.
 Initial guess from the checkpoint file:  "checkpoint.chk"
 B after Tr=     0.000000    0.000000    0.000000
         Rot=    1.000000    0.000000    0.000000    0.000000 Ang=   0.00 deg.
 Initial guess <Sx>= 0.0000 <Sy>= 0.0000 <Sz>= 2.5000 <S**2>= 8.7617 S= 2.5020
 SCF Done:  E(UB97D3) =  -3034.64251815     A.U. after   16 cycles
            NFock= 16  Conv=0.55D-08     -V/T= 2.0019
 <Sx>= 0.0000 <Sy>= 0.0000 <Sz>= 2.5000 <S**2>= 8.7599 S= 2.5017
 <L.S>= 0.000000000000E+00
 Annihilation of the first spin contaminant:
 S**2 before annihilation     8.7599,   after     8.7500
 1\1\GINC-HOLY7C02409\SP\UB97D3\Jul-CC-pVDZ\C8H16Cl3Fe1O1(6)\EKWAN\12-F
 eb-2020\0\\#t pop=none jul-cc-pvdz guess=read ub97d3 empiricaldispersi
 on=gd3bj\\theory_abbreviation b97d3_d3bj\\0,6\O,0,0.200784,0.410925,-0
 .861845\C,0,0.943976,1.394085,-0.651273\C,0,3.156838,0.032074,0.519485
 \C,0,2.627109,-0.947712,-0.237685\C,0,3.022925,-1.124406,-1.679692\Fe,
 0,-1.477048,-0.166466,0.024776\Cl,0,-2.077276,-1.958293,-1.04662\C,0,1
 .682993,-1.998559,0.271849\Cl,0,-2.714211,1.605438,-0.322251\Cl,0,-1.0
 69296,-0.470426,2.157511\H,0,3.887987,0.688786,0.045715\H,0,2.186671,-
 2.974902,0.275165\H,0,1.313297,-1.807802,1.278992\H,0,0.821442,-2.1052
 05,-0.398276\H,0,3.489821,-2.107486,-1.824764\H,0,2.139979,-1.104572,-
 2.331986\H,0,3.733169,-0.362974,-2.015558\C,0,2.981028,0.231236,2.0000
 52\H,0,3.819988,-0.218659,2.548695\H,0,2.974263,1.295024,2.262428\H,0,
 2.060435,-0.215424,2.384047\C,0,0.809546,2.218632,0.588604\H,0,1.69014
 ,2.83781,0.764472\H,0,-0.057834,2.87737,0.432545\H,0,0.592413,1.598566
 ,1.459225\C,0,1.766389,1.924661,-1.783419\H,0,1.218314,2.788791,-2.187
 246\H,0,2.73965,2.282652,-1.44313\H,0,1.875739,1.184447,-2.574122\\Ver
 sion=ES64L-G16RevA.03\HF=-3034.6425181\S2=8.759944\S2-1=0.\S2A=8.75003
 1\RMSD=5.525e-09\PG=C01 [X(C8H16Cl3Fe1O1)]\\@


 ERWIN WITH HIS PSI CAN DO
 CALCULATIONS QUITE A FEW.
 BUT ONE THING HAS NOT BEEN SEEN
 JUST WHAT DOES PSI REALLY MEAN.
 -- WALTER HUCKEL, TRANS. BY FELIX BLOCH
 Job cpu time:       0 days  0 hours 48 minutes 18.9 seconds.
 Elapsed time:       0 days  0 hours 12 minutes  6.9 seconds.
 File lengths (MBytes):  RWF=    174 Int=      0 D2E=      0 Chk=     13 Scr=      1
 Normal termination of Gaussian 16 at Wed Feb 12 22:27:14 2020.
