 Entering Gaussian System, Link 0=g16
 Input=simple-grid-265-270-b3lyp_d3bj-631gd-gas-singlepoint-DFT-juldz2-gas.gjf
 Output=simple-grid-265-270-b3lyp_d3bj-631gd-gas-singlepoint-DFT-juldz2-gas.out
 Initial command:
 /n/sw/g16_nehalem/g16/l1.exe "/scratch/Gau-83042.inp" -scrdir="/scratch/"
 Entering Link 1 = /n/sw/g16_nehalem/g16/l1.exe PID=     83045.
  
 Copyright (c) 1988,1990,1992,1993,1995,1998,2003,2009,2016,
            Gaussian, Inc.  All Rights Reserved.
  
 This is part of the Gaussian(R) 16 program.  It is based on
 the Gaussian(R) 09 system (copyright 2009, Gaussian, Inc.),
 the Gaussian(R) 03 system (copyright 2003, Gaussian, Inc.),
 the Gaussian(R) 98 system (copyright 1998, Gaussian, Inc.),
 the Gaussian(R) 94 system (copyright 1995, Gaussian, Inc.),
 the Gaussian 92(TM) system (copyright 1992, Gaussian, Inc.),
 the Gaussian 90(TM) system (copyright 1990, Gaussian, Inc.),
 the Gaussian 88(TM) system (copyright 1988, Gaussian, Inc.),
 the Gaussian 86(TM) system (copyright 1986, Carnegie Mellon
 University), and the Gaussian 82(TM) system (copyright 1983,
 Carnegie Mellon University). Gaussian is a federally registered
 trademark of Gaussian, Inc.
  
 This software contains proprietary and confidential information,
 including trade secrets, belonging to Gaussian, Inc.
  
 This software is provided under written license and may be
 used, copied, transmitted, or stored only in accord with that
 written license.
  
 The following legend is applicable only to US Government
 contracts under FAR:
  
                    RESTRICTED RIGHTS LEGEND
  
 Use, reproduction and disclosure by the US Government is
 subject to restrictions as set forth in subparagraphs (a)
 and (c) of the Commercial Computer Software - Restricted
 Rights clause in FAR 52.227-19.
  
 Gaussian, Inc.
 340 Quinnipiac St., Bldg. 40, Wallingford CT 06492
  
  
 ---------------------------------------------------------------
 Warning -- This program may not be used in any manner that
 competes with the business of Gaussian, Inc. or will provide
 assistance to any competitor of Gaussian, Inc.  The licensee
 of this program is prohibited from giving any competitor of
 Gaussian, Inc. access to this program.  By using this program,
 the user acknowledges that Gaussian, Inc. is engaged in the
 business of creating and licensing software in the field of
 computational chemistry and represents and warrants to the
 licensee that it is not a competitor of Gaussian, Inc. and that
 it will not use this program in any manner prohibited above.
 ---------------------------------------------------------------
  

 Cite this work as:
 Gaussian 16, Revision A.03,
 M. J. Frisch, G. W. Trucks, H. B. Schlegel, G. E. Scuseria, 
 M. A. Robb, J. R. Cheeseman, G. Scalmani, V. Barone, 
 G. A. Petersson, H. Nakatsuji, X. Li, M. Caricato, A. V. Marenich, 
 J. Bloino, B. G. Janesko, R. Gomperts, B. Mennucci, H. P. Hratchian, 
 J. V. Ortiz, A. F. Izmaylov, J. L. Sonnenberg, D. Williams-Young, 
 F. Ding, F. Lipparini, F. Egidi, J. Goings, B. Peng, A. Petrone, 
 T. Henderson, D. Ranasinghe, V. G. Zakrzewski, J. Gao, N. Rega, 
 G. Zheng, W. Liang, M. Hada, M. Ehara, K. Toyota, R. Fukuda, 
 J. Hasegawa, M. Ishida, T. Nakajima, Y. Honda, O. Kitao, H. Nakai, 
 T. Vreven, K. Throssell, J. A. Montgomery, Jr., J. E. Peralta, 
 F. Ogliaro, M. J. Bearpark, J. J. Heyd, E. N. Brothers, K. N. Kudin, 
 V. N. Staroverov, T. A. Keith, R. Kobayashi, J. Normand, 
 K. Raghavachari, A. P. Rendell, J. C. Burant, S. S. Iyengar, 
 J. Tomasi, M. Cossi, J. M. Millam, M. Klene, C. Adamo, R. Cammi, 
 J. W. Ochterski, R. L. Martin, K. Morokuma, O. Farkas, 
 J. B. Foresman, and D. J. Fox, Gaussian, Inc., Wallingford CT, 2016.
 
 ******************************************
 Gaussian 16:  ES64L-G16RevA.03 25-Dec-2016
                11-Feb-2020 
 ******************************************
 %chk=checkpoint.chk
 %mem=3GB
 %nprocshared=4
 Will use up to    4 processors via shared memory.
 --------------------------------
 #t pop=none jul-cc-pvdz upbe1pbe
 --------------------------------
 ------------------------
 theory_abbreviation pbe0
 ------------------------
 Symbolic Z-matrix:
 Charge =  0 Multiplicity = 6
 O                     0.25124   0.31222  -0.82422 
 C                     1.03224   1.28057  -0.65246 
 C                     3.11609   0.05158   0.42903 
 C                     2.53799  -0.98586  -0.2112 
 C                     2.85253  -1.29977  -1.64761 
 Fe                   -1.46388  -0.13848   0.03157 
 Cl                   -2.09662  -1.97592  -0.94635 
 C                     1.61768  -1.9725    0.44434 
 Cl                   -2.63079   1.64923  -0.45858 
 Cl                   -1.13734  -0.32845   2.1946 
 H                     3.83559   0.64701  -0.13318 
 H                     2.14128  -2.93118   0.56305 
 H                     1.26184  -1.66089   1.42583 
 H                     0.74896  -2.17699  -0.19193 
 H                     3.26085  -2.31576  -1.7247 
 H                     1.93864  -1.28768  -2.25566 
 H                     3.58385  -0.61057  -2.07919 
 C                     3.05516   0.33969   1.90511 
 H                     3.90075  -0.139     2.41772 
 H                     3.13309   1.41236   2.10995 
 H                     2.13918  -0.02814   2.37454 
 C                     0.89531   2.17861   0.53656 
 H                     1.7839    2.79091   0.69337 
 H                     0.04733   2.84449   0.31586 
 H                     0.64288   1.6219    1.43918 
 C                     1.80246   1.78459  -1.83554 
 H                     1.172     2.56226  -2.29198 
 H                     2.74718   2.24828  -1.54834 
 H                     1.95749   1.00161  -2.57544 
 
                    Distance matrix (angstroms):
                    1          2          3          4          5
     1  O    0.000000
     2  C    1.255849   0.000000
     3  C    3.137822   2.650000   0.000000
     4  C    2.699999   2.756574   1.349217   0.000000
     5  C    3.169095   3.310881   2.491600   1.503579   0.000000
     6  Fe   1.969043   2.951641   4.601108   4.097790   4.774888
     7  Cl   3.280699   4.525581   5.759759   4.795860   5.044107
     8  C    2.948955   3.482553   2.518400   1.500051   2.520652
     9  Cl   3.198029   3.686630   6.030502   5.806990   6.338543
    10  Cl   3.384064   3.924508   4.620968   4.441637   5.623624
    11  H    3.665671   2.920588   1.090086   2.087128   2.655157
    12  H    4.002050   4.521760   3.140875   2.130994   2.838035
    13  H    3.158670   3.608907   2.713742   2.182678   3.479473
    14  H    2.616046   3.499584   3.309898   2.149367   2.704351
    15  H    4.095712   4.364630   3.203717   2.140519   1.097684
    16  H    2.730573   3.160340   3.222977   2.151769   1.097747
    17  H    3.678685   3.481763   2.635982   2.173481   1.093652
    18  C    3.913044   3.393910   1.505164   2.550161   3.917999
    19  H    4.902313   4.435037   2.146367   3.079862   4.355815
    20  H    4.257313   3.473022   2.162752   3.390186   4.642591
    21  H    3.729910   3.478620   2.178465   2.786100   4.278275
    22  C    2.397907   1.496326   3.076961   3.642994   4.549772
    23  H    3.285724   2.158091   3.057541   3.956121   4.832785
    24  H    2.784551   2.086507   4.150955   4.599208   5.375797
    25  H    2.644166   2.154778   3.098884   3.621548   4.790301
    26  C    2.365784   1.498985   3.139623   3.294671   3.263622
    27  H    2.839854   2.085731   4.181735   4.334129   4.260822
    28  H    3.240739   2.163354   2.978524   3.505903   3.550997
    29  H    2.540332   2.152148   3.357345   3.142708   2.637858
                    6          7          8          9         10
     6  Fe   0.000000
     7  Cl   2.175519   0.000000
     8  C    3.609708   3.966120   0.000000
     9  Cl   2.190401   3.696623   5.655236   0.000000
    10  Cl   2.195774   3.674234   3.654652   3.630557   0.000000
    11  H    5.359891   6.536980   3.480577   6.551666   5.576745
    12  H    4.591161   4.598978   1.098782   6.693020   4.492832
    13  H    3.419245   4.123806   1.089510   5.446145   2.850005
    14  H    3.016974   2.950752   1.096056   5.112125   3.559610
    15  H    5.490718   5.424367   2.742725   7.213568   6.217264
    16  H    4.257839   4.297826   2.803925   5.721421   5.494237
    17  H    5.491596   5.951067   3.476900   6.808431   6.374518
    18  C    4.915329   6.327221   3.089720   6.295386   4.255264
    19  H    5.871366   7.117569   3.531056   7.357434   5.046589
    20  H    5.277964   6.940560   4.065459   6.314726   4.612394
    21  H    4.299271   5.724006   2.788934   5.795926   3.295176
    22  C    3.345102   5.330183   4.214501   3.701879   3.628514
    23  H    4.423497   6.361587   4.772807   4.703170   4.529649
    24  H    3.355990   5.424579   5.068120   3.033264   3.873063
    25  H    3.085245   5.112726   3.854819   3.784061   2.746578
    26  C    4.225312   5.489535   4.398604   4.644140   5.417509
    27  H    4.431781   5.752360   5.315079   4.319275   5.815377
    28  H    5.091733   6.455130   4.802240   5.519872   5.978183
    29  H    4.449942   5.287287   4.252040   5.094383   5.839543
                   11         12         13         14         15
    11  H    0.000000
    12  H    4.019809   0.000000
    13  H    3.792235   1.769582   0.000000
    14  H    4.183978   1.754233   1.773852   0.000000
    15  H    3.411928   2.620299   3.788226   2.945874   0.000000
    16  H    3.441854   3.269142   3.761740   2.542672   1.757012
    17  H    2.330629   3.801010   4.333589   3.748596   1.771347
    18  C    2.204113   3.651699   2.729106   4.006220   4.502133
    19  H    2.670041   3.785746   3.203727   4.571378   4.723072
    20  H    2.472020   4.716244   3.662578   4.885303   5.349740
    21  H    3.101977   3.421865   2.082227   3.624510   4.826498
    22  C    3.382245   5.259575   3.958148   4.418531   5.559534
    23  H    3.080412   5.734724   4.541762   5.151204   5.840077
    24  H    4.402436   6.148501   4.796407   5.095626   6.412386
    25  H    3.690001   4.872716   3.340662   4.135622   5.689379
    26  C    2.885433   5.301563   4.774949   4.416500   4.353398
    27  H    3.927254   6.266464   5.627179   5.200927   5.336679
    28  H    2.398208   5.626006   5.131623   5.041405   4.596239
    29  H    3.101233   5.034953   4.856229   4.152728   3.664351
                   16         17         18         19         20
    16  H    0.000000
    17  H    1.787824   0.000000
    18  C    4.605099   4.130025   0.000000
    19  H    5.197100   4.532659   1.098607   0.000000
    20  H    5.270246   4.673789   1.094830   1.758043   0.000000
    21  H    4.802649   4.718260   1.093013   1.765581   1.770000
    22  C    4.571676   4.674385   3.149523   4.235886   2.840840
    23  H    5.035436   4.743094   3.015447   4.004850   2.393212
    24  H    5.221550   5.493687   4.224541   5.307337   3.845997
    25  H    4.878168   5.100208   2.771325   3.830407   2.587471
    26  C    3.103857   2.994911   4.201120   5.117929   4.180432
    27  H    3.925695   3.991129   5.108977   6.076523   4.954308
    28  H    3.695545   3.025693   3.957764   4.770688   3.772376
    29  H    2.311597   2.343169   4.660290   5.478036   4.848054
                   21         22         23         24         25
    21  H    0.000000
    22  C    3.129720   0.000000
    23  H    3.301459   1.090448   0.000000
    24  H    4.106824   1.100532   1.777930   0.000000
    25  H    2.415876   1.090126   1.795758   1.763873   0.000000
    26  C    4.596101   2.570022   2.721830   2.971930   3.477769
    27  H    5.424207   2.867817   3.055975   2.854007   3.884044
    28  H    4.576110   2.789462   2.499526   3.334653   3.707526
    29  H    5.059218   3.492572   3.730521   3.924852   4.269672
                   26         27         28         29
    26  C    0.000000
    27  H    1.100267   0.000000
    28  H    1.090860   1.769966   0.000000
    29  H    1.088368   1.770013   1.797976   0.000000
 Framework group  C1[X(C8H16Cl3FeO)]
 Deg. of freedom    81
                         Standard orientation:                         
 ---------------------------------------------------------------------
 Center     Atomic      Atomic             Coordinates (Angstroms)
 Number     Number       Type             X           Y           Z
 ---------------------------------------------------------------------
      1          8           0        0.251243    0.312220   -0.824217
      2          6           0        1.032237    1.280571   -0.652459
      3          6           0        3.116091    0.051578    0.429034
      4          6           0        2.537987   -0.985860   -0.211203
      5          6           0        2.852526   -1.299768   -1.647614
      6         26           0       -1.463875   -0.138483    0.031568
      7         17           0       -2.096622   -1.975923   -0.946353
      8          6           0        1.617683   -1.972497    0.444343
      9         17           0       -2.630786    1.649234   -0.458577
     10         17           0       -1.137343   -0.328445    2.194602
     11          1           0        3.835587    0.647005   -0.133175
     12          1           0        2.141275   -2.931184    0.563052
     13          1           0        1.261843   -1.660894    1.425828
     14          1           0        0.748963   -2.176994   -0.191931
     15          1           0        3.260845   -2.315762   -1.724695
     16          1           0        1.938642   -1.287683   -2.255659
     17          1           0        3.583845   -0.610571   -2.079186
     18          6           0        3.055158    0.339688    1.905109
     19          1           0        3.900751   -0.138995    2.417722
     20          1           0        3.133093    1.412357    2.109953
     21          1           0        2.139183   -0.028141    2.374543
     22          6           0        0.895312    2.178611    0.536561
     23          1           0        1.783895    2.790910    0.693366
     24          1           0        0.047331    2.844486    0.315860
     25          1           0        0.642879    1.621899    1.439182
     26          6           0        1.802464    1.784593   -1.835535
     27          1           0        1.171998    2.562255   -2.291979
     28          1           0        2.747182    2.248278   -1.548343
     29          1           0        1.957485    1.001611   -2.575435
 ---------------------------------------------------------------------
 Rotational constants (GHZ):           0.5700330           0.3276145           0.3087771
   427 basis functions,  1056 primitive gaussians,   461 cartesian basis functions
    77 alpha electrons       72 beta electrons
       nuclear repulsion energy      1630.0754659267 Hartrees.
 NAtoms=   29 NActive=   29 NUniq=   29 SFac= 1.00D+00 NAtFMM=   60 NAOKFM=F Big=F
 ExpMin= 1.40D-02 ExpMax= 4.32D+06 ExpMxC= 4.91D+03 IAcc=3 IRadAn=         5 AccDes= 0.00D+00
 Harris functional with IExCor= 1009 and IRadAn=       5 diagonalized for initial guess.
 HarFok:  IExCor= 1009 AccDes= 0.00D+00 IRadAn=         5 IDoV= 1 UseB2=F ITyADJ=14
 ICtDFT=  3500011 ScaDFX=  1.000000  1.000000  1.000000  1.000000
 FoFCou: FMM=F IPFlag=           0 FMFlag=      100000 FMFlg1=           0
         NFxFlg=           0 DoJE=T BraDBF=F KetDBF=T FulRan=T
         wScrn=  0.000000 ICntrl=       500 IOpCl=  0 I1Cent=   200000004 NGrid=           0
         NMat0=    1 NMatS0=      1 NMatT0=    0 NMatD0=    1 NMtDS0=    0 NMtDT0=    0
 Petite list used in FoFCou.
 Initial guess <Sx>= 0.0000 <Sy>= 0.0000 <Sz>= 2.5000 <S**2>= 8.7500 S= 2.5000
 EnCoef did   100 forward-backward iterations
 SCF Done:  E(UPBE1PBE) =  -3033.13224877     A.U. after   19 cycles
            NFock= 19  Conv=0.87D-08     -V/T= 2.0021
 <Sx>= 0.0000 <Sy>= 0.0000 <Sz>= 2.5000 <S**2>= 8.7628 S= 2.5021
 <L.S>= 0.000000000000E+00
 Annihilation of the first spin contaminant:
 S**2 before annihilation     8.7628,   after     8.7501
 1\1\GINC-HOLY7C04410\SP\UPBE1PBE\Jul-CC-pVDZ\C8H16Cl3Fe1O1(6)\EKWAN\11
 -Feb-2020\0\\#t pop=none jul-cc-pvdz upbe1pbe\\theory_abbreviation pbe
 0\\0,6\O,0,0.251243,0.31222,-0.824217\C,0,1.032237,1.280571,-0.652459\
 C,0,3.116091,0.051578,0.429034\C,0,2.537987,-0.98586,-0.211203\C,0,2.8
 52526,-1.299768,-1.647614\Fe,0,-1.463875,-0.138483,0.031568\Cl,0,-2.09
 6622,-1.975923,-0.946353\C,0,1.617683,-1.972497,0.444343\Cl,0,-2.63078
 6,1.649234,-0.458577\Cl,0,-1.137343,-0.328445,2.194602\H,0,3.835587,0.
 647005,-0.133175\H,0,2.141275,-2.931184,0.563052\H,0,1.261843,-1.66089
 4,1.425828\H,0,0.748963,-2.176994,-0.191931\H,0,3.260845,-2.315762,-1.
 724695\H,0,1.938642,-1.287683,-2.255659\H,0,3.583845,-0.610571,-2.0791
 86\C,0,3.055158,0.339688,1.905109\H,0,3.900751,-0.138995,2.417722\H,0,
 3.133093,1.412357,2.109953\H,0,2.139183,-0.028141,2.374543\C,0,0.89531
 2,2.178611,0.536561\H,0,1.783895,2.79091,0.693366\H,0,0.047331,2.84448
 6,0.31586\H,0,0.642879,1.621899,1.439182\C,0,1.802464,1.784593,-1.8355
 35\H,0,1.171998,2.562255,-2.291979\H,0,2.747182,2.248278,-1.548343\H,0
 ,1.957485,1.001611,-2.575435\\Version=ES64L-G16RevA.03\HF=-3033.132248
 8\S2=8.762841\S2-1=0.\S2A=8.750051\RMSD=8.747e-09\PG=C01 [X(C8H16Cl3Fe
 1O1)]\\@


 EXPERIMENTALISTS THINK SILICON IS REALLY FUN TO USE
     ITS PLACE IN NOVEL COMPOUNDS IS CERTAIN TO AMUSE
 THEY SIT ALL DAY IN LABORATORIES MAKING ALL THIS SLUDGE
     "LOADED WITH THE SILICON THEY SAY", TO ME IT LOOKS LIKE FUDGE.
 FOR HAPPY THOUGH THEY BE WITH CRUD, I'D LIKE TO KNOW A LITTLE
      ABOUT THE PI BONDS ON THE EDGE AND SIGMAS IN THE MIDDLE.

 SO LETS DERIVE A WAVEFUNCTION.....6-31G*
     USE AN OPTIMAL GEOMETRY AND SEE WHERE ELECTRONS ARE.
 BUT WHAT OF CORRELATION?  ASKS THE WIRY LITTLE SKEPTIC.
     WE'LL THROW IN PERTURBATION AS AN ELECTRON ANTISEPTIC.
 AND WHEN THE PROGRAM GIVES US ANSWERS IN THEM WE CAN TRUST
     SINCE NOBODY CAN MAKE THE STUFF, WE HAVE NO CHOICE, WE MUST.

 SO THEORY GUYS HAVE GOT IT MADE, IN ROOMS FREE OF POLLUTION.
     INSTEAD OF PROBLEMS WITH THE REFLUX, THEY HAVE ONLY SOLUTIONS.
 AND WHEN THE FEDS ANNOUNCE THE LIST OF CARCINOGENIC TERRORS,
     THE THEORISTS SIT SAFELY AT THEIR TERMINALS FIXING ERRORS.
 IN OTHER WORDS, EXPERIMENTALISTS WILL LIKELY DIE OF CANCER
     FROM WORKING HARD YET FRUITLESSLY...TILL THEORY GIVES THE ANSWER.
          -- THOMAS A. HOLME, 1983
 Job cpu time:       0 days  1 hours 21 minutes 42.2 seconds.
 Elapsed time:       0 days  0 hours 20 minutes 30.3 seconds.
 File lengths (MBytes):  RWF=    173 Int=      0 D2E=      0 Chk=     13 Scr=      1
 Normal termination of Gaussian 16 at Tue Feb 11 14:45:54 2020.
 Initial command:
 /n/sw/g16_nehalem/g16/l1.exe "/scratch/Gau-83042.inp" -scrdir="/scratch/"
 Entering Link 1 = /n/sw/g16_nehalem/g16/l1.exe PID=     85465.
  
 Copyright (c) 1988,1990,1992,1993,1995,1998,2003,2009,2016,
            Gaussian, Inc.  All Rights Reserved.
  
 This is part of the Gaussian(R) 16 program.  It is based on
 the Gaussian(R) 09 system (copyright 2009, Gaussian, Inc.),
 the Gaussian(R) 03 system (copyright 2003, Gaussian, Inc.),
 the Gaussian(R) 98 system (copyright 1998, Gaussian, Inc.),
 the Gaussian(R) 94 system (copyright 1995, Gaussian, Inc.),
 the Gaussian 92(TM) system (copyright 1992, Gaussian, Inc.),
 the Gaussian 90(TM) system (copyright 1990, Gaussian, Inc.),
 the Gaussian 88(TM) system (copyright 1988, Gaussian, Inc.),
 the Gaussian 86(TM) system (copyright 1986, Carnegie Mellon
 University), and the Gaussian 82(TM) system (copyright 1983,
 Carnegie Mellon University). Gaussian is a federally registered
 trademark of Gaussian, Inc.
  
 This software contains proprietary and confidential information,
 including trade secrets, belonging to Gaussian, Inc.
  
 This software is provided under written license and may be
 used, copied, transmitted, or stored only in accord with that
 written license.
  
 The following legend is applicable only to US Government
 contracts under FAR:
  
                    RESTRICTED RIGHTS LEGEND
  
 Use, reproduction and disclosure by the US Government is
 subject to restrictions as set forth in subparagraphs (a)
 and (c) of the Commercial Computer Software - Restricted
 Rights clause in FAR 52.227-19.
  
 Gaussian, Inc.
 340 Quinnipiac St., Bldg. 40, Wallingford CT 06492
  
  
 ---------------------------------------------------------------
 Warning -- This program may not be used in any manner that
 competes with the business of Gaussian, Inc. or will provide
 assistance to any competitor of Gaussian, Inc.  The licensee
 of this program is prohibited from giving any competitor of
 Gaussian, Inc. access to this program.  By using this program,
 the user acknowledges that Gaussian, Inc. is engaged in the
 business of creating and licensing software in the field of
 computational chemistry and represents and warrants to the
 licensee that it is not a competitor of Gaussian, Inc. and that
 it will not use this program in any manner prohibited above.
 ---------------------------------------------------------------
  

 Cite this work as:
 Gaussian 16, Revision A.03,
 M. J. Frisch, G. W. Trucks, H. B. Schlegel, G. E. Scuseria, 
 M. A. Robb, J. R. Cheeseman, G. Scalmani, V. Barone, 
 G. A. Petersson, H. Nakatsuji, X. Li, M. Caricato, A. V. Marenich, 
 J. Bloino, B. G. Janesko, R. Gomperts, B. Mennucci, H. P. Hratchian, 
 J. V. Ortiz, A. F. Izmaylov, J. L. Sonnenberg, D. Williams-Young, 
 F. Ding, F. Lipparini, F. Egidi, J. Goings, B. Peng, A. Petrone, 
 T. Henderson, D. Ranasinghe, V. G. Zakrzewski, J. Gao, N. Rega, 
 G. Zheng, W. Liang, M. Hada, M. Ehara, K. Toyota, R. Fukuda, 
 J. Hasegawa, M. Ishida, T. Nakajima, Y. Honda, O. Kitao, H. Nakai, 
 T. Vreven, K. Throssell, J. A. Montgomery, Jr., J. E. Peralta, 
 F. Ogliaro, M. J. Bearpark, J. J. Heyd, E. N. Brothers, K. N. Kudin, 
 V. N. Staroverov, T. A. Keith, R. Kobayashi, J. Normand, 
 K. Raghavachari, A. P. Rendell, J. C. Burant, S. S. Iyengar, 
 J. Tomasi, M. Cossi, J. M. Millam, M. Klene, C. Adamo, R. Cammi, 
 J. W. Ochterski, R. L. Martin, K. Morokuma, O. Farkas, 
 J. B. Foresman, and D. J. Fox, Gaussian, Inc., Wallingford CT, 2016.
 
 ******************************************
 Gaussian 16:  ES64L-G16RevA.03 25-Dec-2016
                11-Feb-2020 
 ******************************************
 %chk=checkpoint.chk
 %mem=3GB
 %nprocshared=4
 Will use up to    4 processors via shared memory.
 ---------------------------------------------------------------------
 #t pop=none jul-cc-pvdz guess=read upbe1pbe empiricaldispersion=gd3bj
 ---------------------------------------------------------------------
 -----------------------------
 theory_abbreviation pbe0_d3bj
 -----------------------------
 Symbolic Z-matrix:
 Charge =  0 Multiplicity = 6
 O                     0.25124   0.31222  -0.82422 
 C                     1.03224   1.28057  -0.65246 
 C                     3.11609   0.05158   0.42903 
 C                     2.53799  -0.98586  -0.2112 
 C                     2.85253  -1.29977  -1.64761 
 Fe                   -1.46388  -0.13848   0.03157 
 Cl                   -2.09662  -1.97592  -0.94635 
 C                     1.61768  -1.9725    0.44434 
 Cl                   -2.63079   1.64923  -0.45858 
 Cl                   -1.13734  -0.32845   2.1946 
 H                     3.83559   0.64701  -0.13318 
 H                     2.14128  -2.93118   0.56305 
 H                     1.26184  -1.66089   1.42583 
 H                     0.74896  -2.17699  -0.19193 
 H                     3.26085  -2.31576  -1.7247 
 H                     1.93864  -1.28768  -2.25566 
 H                     3.58385  -0.61057  -2.07919 
 C                     3.05516   0.33969   1.90511 
 H                     3.90075  -0.139     2.41772 
 H                     3.13309   1.41236   2.10995 
 H                     2.13918  -0.02814   2.37454 
 C                     0.89531   2.17861   0.53656 
 H                     1.7839    2.79091   0.69337 
 H                     0.04733   2.84449   0.31586 
 H                     0.64288   1.6219    1.43918 
 C                     1.80246   1.78459  -1.83554 
 H                     1.172     2.56226  -2.29198 
 H                     2.74718   2.24828  -1.54834 
 H                     1.95749   1.00161  -2.57544 
 
                    Distance matrix (angstroms):
                    1          2          3          4          5
     1  O    0.000000
     2  C    1.255849   0.000000
     3  C    3.137822   2.650000   0.000000
     4  C    2.699999   2.756574   1.349217   0.000000
     5  C    3.169095   3.310881   2.491600   1.503579   0.000000
     6  Fe   1.969043   2.951641   4.601108   4.097790   4.774888
     7  Cl   3.280699   4.525581   5.759759   4.795860   5.044107
     8  C    2.948955   3.482553   2.518400   1.500051   2.520652
     9  Cl   3.198029   3.686630   6.030502   5.806990   6.338543
    10  Cl   3.384064   3.924508   4.620968   4.441637   5.623624
    11  H    3.665671   2.920588   1.090086   2.087128   2.655157
    12  H    4.002050   4.521760   3.140875   2.130994   2.838035
    13  H    3.158670   3.608907   2.713742   2.182678   3.479473
    14  H    2.616046   3.499584   3.309898   2.149367   2.704351
    15  H    4.095712   4.364630   3.203717   2.140519   1.097684
    16  H    2.730573   3.160340   3.222977   2.151769   1.097747
    17  H    3.678685   3.481763   2.635982   2.173481   1.093652
    18  C    3.913044   3.393910   1.505164   2.550161   3.917999
    19  H    4.902313   4.435037   2.146367   3.079862   4.355815
    20  H    4.257313   3.473022   2.162752   3.390186   4.642591
    21  H    3.729910   3.478620   2.178465   2.786100   4.278275
    22  C    2.397907   1.496326   3.076961   3.642994   4.549772
    23  H    3.285724   2.158091   3.057541   3.956121   4.832785
    24  H    2.784551   2.086507   4.150955   4.599208   5.375797
    25  H    2.644166   2.154778   3.098884   3.621548   4.790301
    26  C    2.365784   1.498985   3.139623   3.294671   3.263622
    27  H    2.839854   2.085731   4.181735   4.334129   4.260822
    28  H    3.240739   2.163354   2.978524   3.505903   3.550997
    29  H    2.540332   2.152148   3.357345   3.142708   2.637858
                    6          7          8          9         10
     6  Fe   0.000000
     7  Cl   2.175519   0.000000
     8  C    3.609708   3.966120   0.000000
     9  Cl   2.190401   3.696623   5.655236   0.000000
    10  Cl   2.195774   3.674234   3.654652   3.630557   0.000000
    11  H    5.359891   6.536980   3.480577   6.551666   5.576745
    12  H    4.591161   4.598978   1.098782   6.693020   4.492832
    13  H    3.419245   4.123806   1.089510   5.446145   2.850005
    14  H    3.016974   2.950752   1.096056   5.112125   3.559610
    15  H    5.490718   5.424367   2.742725   7.213568   6.217264
    16  H    4.257839   4.297826   2.803925   5.721421   5.494237
    17  H    5.491596   5.951067   3.476900   6.808431   6.374518
    18  C    4.915329   6.327221   3.089720   6.295386   4.255264
    19  H    5.871366   7.117569   3.531056   7.357434   5.046589
    20  H    5.277964   6.940560   4.065459   6.314726   4.612394
    21  H    4.299271   5.724006   2.788934   5.795926   3.295176
    22  C    3.345102   5.330183   4.214501   3.701879   3.628514
    23  H    4.423497   6.361587   4.772807   4.703170   4.529649
    24  H    3.355990   5.424579   5.068120   3.033264   3.873063
    25  H    3.085245   5.112726   3.854819   3.784061   2.746578
    26  C    4.225312   5.489535   4.398604   4.644140   5.417509
    27  H    4.431781   5.752360   5.315079   4.319275   5.815377
    28  H    5.091733   6.455130   4.802240   5.519872   5.978183
    29  H    4.449942   5.287287   4.252040   5.094383   5.839543
                   11         12         13         14         15
    11  H    0.000000
    12  H    4.019809   0.000000
    13  H    3.792235   1.769582   0.000000
    14  H    4.183978   1.754233   1.773852   0.000000
    15  H    3.411928   2.620299   3.788226   2.945874   0.000000
    16  H    3.441854   3.269142   3.761740   2.542672   1.757012
    17  H    2.330629   3.801010   4.333589   3.748596   1.771347
    18  C    2.204113   3.651699   2.729106   4.006220   4.502133
    19  H    2.670041   3.785746   3.203727   4.571378   4.723072
    20  H    2.472020   4.716244   3.662578   4.885303   5.349740
    21  H    3.101977   3.421865   2.082227   3.624510   4.826498
    22  C    3.382245   5.259575   3.958148   4.418531   5.559534
    23  H    3.080412   5.734724   4.541762   5.151204   5.840077
    24  H    4.402436   6.148501   4.796407   5.095626   6.412386
    25  H    3.690001   4.872716   3.340662   4.135622   5.689379
    26  C    2.885433   5.301563   4.774949   4.416500   4.353398
    27  H    3.927254   6.266464   5.627179   5.200927   5.336679
    28  H    2.398208   5.626006   5.131623   5.041405   4.596239
    29  H    3.101233   5.034953   4.856229   4.152728   3.664351
                   16         17         18         19         20
    16  H    0.000000
    17  H    1.787824   0.000000
    18  C    4.605099   4.130025   0.000000
    19  H    5.197100   4.532659   1.098607   0.000000
    20  H    5.270246   4.673789   1.094830   1.758043   0.000000
    21  H    4.802649   4.718260   1.093013   1.765581   1.770000
    22  C    4.571676   4.674385   3.149523   4.235886   2.840840
    23  H    5.035436   4.743094   3.015447   4.004850   2.393212
    24  H    5.221550   5.493687   4.224541   5.307337   3.845997
    25  H    4.878168   5.100208   2.771325   3.830407   2.587471
    26  C    3.103857   2.994911   4.201120   5.117929   4.180432
    27  H    3.925695   3.991129   5.108977   6.076523   4.954308
    28  H    3.695545   3.025693   3.957764   4.770688   3.772376
    29  H    2.311597   2.343169   4.660290   5.478036   4.848054
                   21         22         23         24         25
    21  H    0.000000
    22  C    3.129720   0.000000
    23  H    3.301459   1.090448   0.000000
    24  H    4.106824   1.100532   1.777930   0.000000
    25  H    2.415876   1.090126   1.795758   1.763873   0.000000
    26  C    4.596101   2.570022   2.721830   2.971930   3.477769
    27  H    5.424207   2.867817   3.055975   2.854007   3.884044
    28  H    4.576110   2.789462   2.499526   3.334653   3.707526
    29  H    5.059218   3.492572   3.730521   3.924852   4.269672
                   26         27         28         29
    26  C    0.000000
    27  H    1.100267   0.000000
    28  H    1.090860   1.769966   0.000000
    29  H    1.088368   1.770013   1.797976   0.000000
 Framework group  C1[X(C8H16Cl3FeO)]
 Deg. of freedom    81
                         Standard orientation:                         
 ---------------------------------------------------------------------
 Center     Atomic      Atomic             Coordinates (Angstroms)
 Number     Number       Type             X           Y           Z
 ---------------------------------------------------------------------
      1          8           0        0.251243    0.312220   -0.824217
      2          6           0        1.032237    1.280571   -0.652459
      3          6           0        3.116091    0.051578    0.429034
      4          6           0        2.537987   -0.985860   -0.211203
      5          6           0        2.852526   -1.299768   -1.647614
      6         26           0       -1.463875   -0.138483    0.031568
      7         17           0       -2.096622   -1.975923   -0.946353
      8          6           0        1.617683   -1.972497    0.444343
      9         17           0       -2.630786    1.649234   -0.458577
     10         17           0       -1.137343   -0.328445    2.194602
     11          1           0        3.835587    0.647005   -0.133175
     12          1           0        2.141275   -2.931184    0.563052
     13          1           0        1.261843   -1.660894    1.425828
     14          1           0        0.748963   -2.176994   -0.191931
     15          1           0        3.260845   -2.315762   -1.724695
     16          1           0        1.938642   -1.287683   -2.255659
     17          1           0        3.583845   -0.610571   -2.079186
     18          6           0        3.055158    0.339688    1.905109
     19          1           0        3.900751   -0.138995    2.417722
     20          1           0        3.133093    1.412357    2.109953
     21          1           0        2.139183   -0.028141    2.374543
     22          6           0        0.895312    2.178611    0.536561
     23          1           0        1.783895    2.790910    0.693366
     24          1           0        0.047331    2.844486    0.315860
     25          1           0        0.642879    1.621899    1.439182
     26          6           0        1.802464    1.784593   -1.835535
     27          1           0        1.171998    2.562255   -2.291979
     28          1           0        2.747182    2.248278   -1.548343
     29          1           0        1.957485    1.001611   -2.575435
 ---------------------------------------------------------------------
 Rotational constants (GHZ):           0.5700330           0.3276145           0.3087771
   427 basis functions,  1056 primitive gaussians,   461 cartesian basis functions
    77 alpha electrons       72 beta electrons
       nuclear repulsion energy      1630.0754659267 Hartrees.
 NAtoms=   29 NActive=   29 NUniq=   29 SFac= 1.00D+00 NAtFMM=   60 NAOKFM=F Big=F
 Nuclear repulsion after empirical dispersion term =     1630.0385674860 Hartrees.
 Initial guess from the checkpoint file:  "checkpoint.chk"
 B after Tr=     0.000000    0.000000    0.000000
         Rot=    1.000000    0.000000    0.000000    0.000000 Ang=   0.00 deg.
 Initial guess <Sx>= 0.0000 <Sy>= 0.0000 <Sz>= 2.5000 <S**2>= 8.7628 S= 2.5021
 SCF Done:  E(UPBE1PBE) =  -3033.16914722     A.U. after    1 cycles
            NFock=  1  Conv=0.57D-08     -V/T= 2.0021
 <Sx>= 0.0000 <Sy>= 0.0000 <Sz>= 2.5000 <S**2>= 8.7628 S= 2.5021
 <L.S>= 0.000000000000E+00
 Annihilation of the first spin contaminant:
 S**2 before annihilation     8.7628,   after     8.7501
 1\1\GINC-HOLY7C04410\SP\UPBE1PBE\Jul-CC-pVDZ\C8H16Cl3Fe1O1(6)\EKWAN\11
 -Feb-2020\0\\#t pop=none jul-cc-pvdz guess=read upbe1pbe empiricaldisp
 ersion=gd3bj\\theory_abbreviation pbe0_d3bj\\0,6\O,0,0.251243,0.31222,
 -0.824217\C,0,1.032237,1.280571,-0.652459\C,0,3.116091,0.051578,0.4290
 34\C,0,2.537987,-0.98586,-0.211203\C,0,2.852526,-1.299768,-1.647614\Fe
 ,0,-1.463875,-0.138483,0.031568\Cl,0,-2.096622,-1.975923,-0.946353\C,0
 ,1.617683,-1.972497,0.444343\Cl,0,-2.630786,1.649234,-0.458577\Cl,0,-1
 .137343,-0.328445,2.194602\H,0,3.835587,0.647005,-0.133175\H,0,2.14127
 5,-2.931184,0.563052\H,0,1.261843,-1.660894,1.425828\H,0,0.748963,-2.1
 76994,-0.191931\H,0,3.260845,-2.315762,-1.724695\H,0,1.938642,-1.28768
 3,-2.255659\H,0,3.583845,-0.610571,-2.079186\C,0,3.055158,0.339688,1.9
 05109\H,0,3.900751,-0.138995,2.417722\H,0,3.133093,1.412357,2.109953\H
 ,0,2.139183,-0.028141,2.374543\C,0,0.895312,2.178611,0.536561\H,0,1.78
 3895,2.79091,0.693366\H,0,0.047331,2.844486,0.31586\H,0,0.642879,1.621
 899,1.439182\C,0,1.802464,1.784593,-1.835535\H,0,1.171998,2.562255,-2.
 291979\H,0,2.747182,2.248278,-1.548343\H,0,1.957485,1.001611,-2.575435
 \\Version=ES64L-G16RevA.03\HF=-3033.1691472\S2=8.762841\S2-1=0.\S2A=8.
 750051\RMSD=5.663e-09\PG=C01 [X(C8H16Cl3Fe1O1)]\\@


 EDUCATION DOESN'T COST 
           ... IT PAYS!

 -- POSTMARK, UNIV. OF MISSISSIPPI, DEC 78
 Job cpu time:       0 days  0 hours  4 minutes 40.4 seconds.
 Elapsed time:       0 days  0 hours  1 minutes 11.2 seconds.
 File lengths (MBytes):  RWF=    170 Int=      0 D2E=      0 Chk=     13 Scr=      1
 Normal termination of Gaussian 16 at Tue Feb 11 14:47:06 2020.
 Initial command:
 /n/sw/g16_nehalem/g16/l1.exe "/scratch/Gau-83042.inp" -scrdir="/scratch/"
 Entering Link 1 = /n/sw/g16_nehalem/g16/l1.exe PID=     85996.
  
 Copyright (c) 1988,1990,1992,1993,1995,1998,2003,2009,2016,
            Gaussian, Inc.  All Rights Reserved.
  
 This is part of the Gaussian(R) 16 program.  It is based on
 the Gaussian(R) 09 system (copyright 2009, Gaussian, Inc.),
 the Gaussian(R) 03 system (copyright 2003, Gaussian, Inc.),
 the Gaussian(R) 98 system (copyright 1998, Gaussian, Inc.),
 the Gaussian(R) 94 system (copyright 1995, Gaussian, Inc.),
 the Gaussian 92(TM) system (copyright 1992, Gaussian, Inc.),
 the Gaussian 90(TM) system (copyright 1990, Gaussian, Inc.),
 the Gaussian 88(TM) system (copyright 1988, Gaussian, Inc.),
 the Gaussian 86(TM) system (copyright 1986, Carnegie Mellon
 University), and the Gaussian 82(TM) system (copyright 1983,
 Carnegie Mellon University). Gaussian is a federally registered
 trademark of Gaussian, Inc.
  
 This software contains proprietary and confidential information,
 including trade secrets, belonging to Gaussian, Inc.
  
 This software is provided under written license and may be
 used, copied, transmitted, or stored only in accord with that
 written license.
  
 The following legend is applicable only to US Government
 contracts under FAR:
  
                    RESTRICTED RIGHTS LEGEND
  
 Use, reproduction and disclosure by the US Government is
 subject to restrictions as set forth in subparagraphs (a)
 and (c) of the Commercial Computer Software - Restricted
 Rights clause in FAR 52.227-19.
  
 Gaussian, Inc.
 340 Quinnipiac St., Bldg. 40, Wallingford CT 06492
  
  
 ---------------------------------------------------------------
 Warning -- This program may not be used in any manner that
 competes with the business of Gaussian, Inc. or will provide
 assistance to any competitor of Gaussian, Inc.  The licensee
 of this program is prohibited from giving any competitor of
 Gaussian, Inc. access to this program.  By using this program,
 the user acknowledges that Gaussian, Inc. is engaged in the
 business of creating and licensing software in the field of
 computational chemistry and represents and warrants to the
 licensee that it is not a competitor of Gaussian, Inc. and that
 it will not use this program in any manner prohibited above.
 ---------------------------------------------------------------
  

 Cite this work as:
 Gaussian 16, Revision A.03,
 M. J. Frisch, G. W. Trucks, H. B. Schlegel, G. E. Scuseria, 
 M. A. Robb, J. R. Cheeseman, G. Scalmani, V. Barone, 
 G. A. Petersson, H. Nakatsuji, X. Li, M. Caricato, A. V. Marenich, 
 J. Bloino, B. G. Janesko, R. Gomperts, B. Mennucci, H. P. Hratchian, 
 J. V. Ortiz, A. F. Izmaylov, J. L. Sonnenberg, D. Williams-Young, 
 F. Ding, F. Lipparini, F. Egidi, J. Goings, B. Peng, A. Petrone, 
 T. Henderson, D. Ranasinghe, V. G. Zakrzewski, J. Gao, N. Rega, 
 G. Zheng, W. Liang, M. Hada, M. Ehara, K. Toyota, R. Fukuda, 
 J. Hasegawa, M. Ishida, T. Nakajima, Y. Honda, O. Kitao, H. Nakai, 
 T. Vreven, K. Throssell, J. A. Montgomery, Jr., J. E. Peralta, 
 F. Ogliaro, M. J. Bearpark, J. J. Heyd, E. N. Brothers, K. N. Kudin, 
 V. N. Staroverov, T. A. Keith, R. Kobayashi, J. Normand, 
 K. Raghavachari, A. P. Rendell, J. C. Burant, S. S. Iyengar, 
 J. Tomasi, M. Cossi, J. M. Millam, M. Klene, C. Adamo, R. Cammi, 
 J. W. Ochterski, R. L. Martin, K. Morokuma, O. Farkas, 
 J. B. Foresman, and D. J. Fox, Gaussian, Inc., Wallingford CT, 2016.
 
 ******************************************
 Gaussian 16:  ES64L-G16RevA.03 25-Dec-2016
                11-Feb-2020 
 ******************************************
 %chk=checkpoint.chk
 %mem=3GB
 %nprocshared=4
 Will use up to    4 processors via shared memory.
 -----------------------------------------
 #t pop=none jul-cc-pvdz guess=read ub3lyp
 -----------------------------------------
 -------------------------
 theory_abbreviation b3lyp
 -------------------------
 Symbolic Z-matrix:
 Charge =  0 Multiplicity = 6
 O                     0.25124   0.31222  -0.82422 
 C                     1.03224   1.28057  -0.65246 
 C                     3.11609   0.05158   0.42903 
 C                     2.53799  -0.98586  -0.2112 
 C                     2.85253  -1.29977  -1.64761 
 Fe                   -1.46388  -0.13848   0.03157 
 Cl                   -2.09662  -1.97592  -0.94635 
 C                     1.61768  -1.9725    0.44434 
 Cl                   -2.63079   1.64923  -0.45858 
 Cl                   -1.13734  -0.32845   2.1946 
 H                     3.83559   0.64701  -0.13318 
 H                     2.14128  -2.93118   0.56305 
 H                     1.26184  -1.66089   1.42583 
 H                     0.74896  -2.17699  -0.19193 
 H                     3.26085  -2.31576  -1.7247 
 H                     1.93864  -1.28768  -2.25566 
 H                     3.58385  -0.61057  -2.07919 
 C                     3.05516   0.33969   1.90511 
 H                     3.90075  -0.139     2.41772 
 H                     3.13309   1.41236   2.10995 
 H                     2.13918  -0.02814   2.37454 
 C                     0.89531   2.17861   0.53656 
 H                     1.7839    2.79091   0.69337 
 H                     0.04733   2.84449   0.31586 
 H                     0.64288   1.6219    1.43918 
 C                     1.80246   1.78459  -1.83554 
 H                     1.172     2.56226  -2.29198 
 H                     2.74718   2.24828  -1.54834 
 H                     1.95749   1.00161  -2.57544 
 
                    Distance matrix (angstroms):
                    1          2          3          4          5
     1  O    0.000000
     2  C    1.255849   0.000000
     3  C    3.137822   2.650000   0.000000
     4  C    2.699999   2.756574   1.349217   0.000000
     5  C    3.169095   3.310881   2.491600   1.503579   0.000000
     6  Fe   1.969043   2.951641   4.601108   4.097790   4.774888
     7  Cl   3.280699   4.525581   5.759759   4.795860   5.044107
     8  C    2.948955   3.482553   2.518400   1.500051   2.520652
     9  Cl   3.198029   3.686630   6.030502   5.806990   6.338543
    10  Cl   3.384064   3.924508   4.620968   4.441637   5.623624
    11  H    3.665671   2.920588   1.090086   2.087128   2.655157
    12  H    4.002050   4.521760   3.140875   2.130994   2.838035
    13  H    3.158670   3.608907   2.713742   2.182678   3.479473
    14  H    2.616046   3.499584   3.309898   2.149367   2.704351
    15  H    4.095712   4.364630   3.203717   2.140519   1.097684
    16  H    2.730573   3.160340   3.222977   2.151769   1.097747
    17  H    3.678685   3.481763   2.635982   2.173481   1.093652
    18  C    3.913044   3.393910   1.505164   2.550161   3.917999
    19  H    4.902313   4.435037   2.146367   3.079862   4.355815
    20  H    4.257313   3.473022   2.162752   3.390186   4.642591
    21  H    3.729910   3.478620   2.178465   2.786100   4.278275
    22  C    2.397907   1.496326   3.076961   3.642994   4.549772
    23  H    3.285724   2.158091   3.057541   3.956121   4.832785
    24  H    2.784551   2.086507   4.150955   4.599208   5.375797
    25  H    2.644166   2.154778   3.098884   3.621548   4.790301
    26  C    2.365784   1.498985   3.139623   3.294671   3.263622
    27  H    2.839854   2.085731   4.181735   4.334129   4.260822
    28  H    3.240739   2.163354   2.978524   3.505903   3.550997
    29  H    2.540332   2.152148   3.357345   3.142708   2.637858
                    6          7          8          9         10
     6  Fe   0.000000
     7  Cl   2.175519   0.000000
     8  C    3.609708   3.966120   0.000000
     9  Cl   2.190401   3.696623   5.655236   0.000000
    10  Cl   2.195774   3.674234   3.654652   3.630557   0.000000
    11  H    5.359891   6.536980   3.480577   6.551666   5.576745
    12  H    4.591161   4.598978   1.098782   6.693020   4.492832
    13  H    3.419245   4.123806   1.089510   5.446145   2.850005
    14  H    3.016974   2.950752   1.096056   5.112125   3.559610
    15  H    5.490718   5.424367   2.742725   7.213568   6.217264
    16  H    4.257839   4.297826   2.803925   5.721421   5.494237
    17  H    5.491596   5.951067   3.476900   6.808431   6.374518
    18  C    4.915329   6.327221   3.089720   6.295386   4.255264
    19  H    5.871366   7.117569   3.531056   7.357434   5.046589
    20  H    5.277964   6.940560   4.065459   6.314726   4.612394
    21  H    4.299271   5.724006   2.788934   5.795926   3.295176
    22  C    3.345102   5.330183   4.214501   3.701879   3.628514
    23  H    4.423497   6.361587   4.772807   4.703170   4.529649
    24  H    3.355990   5.424579   5.068120   3.033264   3.873063
    25  H    3.085245   5.112726   3.854819   3.784061   2.746578
    26  C    4.225312   5.489535   4.398604   4.644140   5.417509
    27  H    4.431781   5.752360   5.315079   4.319275   5.815377
    28  H    5.091733   6.455130   4.802240   5.519872   5.978183
    29  H    4.449942   5.287287   4.252040   5.094383   5.839543
                   11         12         13         14         15
    11  H    0.000000
    12  H    4.019809   0.000000
    13  H    3.792235   1.769582   0.000000
    14  H    4.183978   1.754233   1.773852   0.000000
    15  H    3.411928   2.620299   3.788226   2.945874   0.000000
    16  H    3.441854   3.269142   3.761740   2.542672   1.757012
    17  H    2.330629   3.801010   4.333589   3.748596   1.771347
    18  C    2.204113   3.651699   2.729106   4.006220   4.502133
    19  H    2.670041   3.785746   3.203727   4.571378   4.723072
    20  H    2.472020   4.716244   3.662578   4.885303   5.349740
    21  H    3.101977   3.421865   2.082227   3.624510   4.826498
    22  C    3.382245   5.259575   3.958148   4.418531   5.559534
    23  H    3.080412   5.734724   4.541762   5.151204   5.840077
    24  H    4.402436   6.148501   4.796407   5.095626   6.412386
    25  H    3.690001   4.872716   3.340662   4.135622   5.689379
    26  C    2.885433   5.301563   4.774949   4.416500   4.353398
    27  H    3.927254   6.266464   5.627179   5.200927   5.336679
    28  H    2.398208   5.626006   5.131623   5.041405   4.596239
    29  H    3.101233   5.034953   4.856229   4.152728   3.664351
                   16         17         18         19         20
    16  H    0.000000
    17  H    1.787824   0.000000
    18  C    4.605099   4.130025   0.000000
    19  H    5.197100   4.532659   1.098607   0.000000
    20  H    5.270246   4.673789   1.094830   1.758043   0.000000
    21  H    4.802649   4.718260   1.093013   1.765581   1.770000
    22  C    4.571676   4.674385   3.149523   4.235886   2.840840
    23  H    5.035436   4.743094   3.015447   4.004850   2.393212
    24  H    5.221550   5.493687   4.224541   5.307337   3.845997
    25  H    4.878168   5.100208   2.771325   3.830407   2.587471
    26  C    3.103857   2.994911   4.201120   5.117929   4.180432
    27  H    3.925695   3.991129   5.108977   6.076523   4.954308
    28  H    3.695545   3.025693   3.957764   4.770688   3.772376
    29  H    2.311597   2.343169   4.660290   5.478036   4.848054
                   21         22         23         24         25
    21  H    0.000000
    22  C    3.129720   0.000000
    23  H    3.301459   1.090448   0.000000
    24  H    4.106824   1.100532   1.777930   0.000000
    25  H    2.415876   1.090126   1.795758   1.763873   0.000000
    26  C    4.596101   2.570022   2.721830   2.971930   3.477769
    27  H    5.424207   2.867817   3.055975   2.854007   3.884044
    28  H    4.576110   2.789462   2.499526   3.334653   3.707526
    29  H    5.059218   3.492572   3.730521   3.924852   4.269672
                   26         27         28         29
    26  C    0.000000
    27  H    1.100267   0.000000
    28  H    1.090860   1.769966   0.000000
    29  H    1.088368   1.770013   1.797976   0.000000
 Framework group  C1[X(C8H16Cl3FeO)]
 Deg. of freedom    81
                         Standard orientation:                         
 ---------------------------------------------------------------------
 Center     Atomic      Atomic             Coordinates (Angstroms)
 Number     Number       Type             X           Y           Z
 ---------------------------------------------------------------------
      1          8           0        0.251243    0.312220   -0.824217
      2          6           0        1.032237    1.280571   -0.652459
      3          6           0        3.116091    0.051578    0.429034
      4          6           0        2.537987   -0.985860   -0.211203
      5          6           0        2.852526   -1.299768   -1.647614
      6         26           0       -1.463875   -0.138483    0.031568
      7         17           0       -2.096622   -1.975923   -0.946353
      8          6           0        1.617683   -1.972497    0.444343
      9         17           0       -2.630786    1.649234   -0.458577
     10         17           0       -1.137343   -0.328445    2.194602
     11          1           0        3.835587    0.647005   -0.133175
     12          1           0        2.141275   -2.931184    0.563052
     13          1           0        1.261843   -1.660894    1.425828
     14          1           0        0.748963   -2.176994   -0.191931
     15          1           0        3.260845   -2.315762   -1.724695
     16          1           0        1.938642   -1.287683   -2.255659
     17          1           0        3.583845   -0.610571   -2.079186
     18          6           0        3.055158    0.339688    1.905109
     19          1           0        3.900751   -0.138995    2.417722
     20          1           0        3.133093    1.412357    2.109953
     21          1           0        2.139183   -0.028141    2.374543
     22          6           0        0.895312    2.178611    0.536561
     23          1           0        1.783895    2.790910    0.693366
     24          1           0        0.047331    2.844486    0.315860
     25          1           0        0.642879    1.621899    1.439182
     26          6           0        1.802464    1.784593   -1.835535
     27          1           0        1.171998    2.562255   -2.291979
     28          1           0        2.747182    2.248278   -1.548343
     29          1           0        1.957485    1.001611   -2.575435
 ---------------------------------------------------------------------
 Rotational constants (GHZ):           0.5700330           0.3276145           0.3087771
   427 basis functions,  1056 primitive gaussians,   461 cartesian basis functions
    77 alpha electrons       72 beta electrons
       nuclear repulsion energy      1630.0754659267 Hartrees.
 NAtoms=   29 NActive=   29 NUniq=   29 SFac= 1.00D+00 NAtFMM=   60 NAOKFM=F Big=F
 Initial guess from the checkpoint file:  "checkpoint.chk"
 B after Tr=     0.000000    0.000000    0.000000
         Rot=    1.000000    0.000000    0.000000    0.000000 Ang=   0.00 deg.
 Initial guess <Sx>= 0.0000 <Sy>= 0.0000 <Sz>= 2.5000 <S**2>= 8.7628 S= 2.5021
 SCF Done:  E(UB3LYP) =  -3034.34979746     A.U. after   13 cycles
            NFock= 13  Conv=0.75D-08     -V/T= 2.0024
 <Sx>= 0.0000 <Sy>= 0.0000 <Sz>= 2.5000 <S**2>= 8.7621 S= 2.5020
 <L.S>= 0.000000000000E+00
 Annihilation of the first spin contaminant:
 S**2 before annihilation     8.7621,   after     8.7500
 1\1\GINC-HOLY7C04410\SP\UB3LYP\Jul-CC-pVDZ\C8H16Cl3Fe1O1(6)\EKWAN\11-F
 eb-2020\0\\#t pop=none jul-cc-pvdz guess=read ub3lyp\\theory_abbreviat
 ion b3lyp\\0,6\O,0,0.251243,0.31222,-0.824217\C,0,1.032237,1.280571,-0
 .652459\C,0,3.116091,0.051578,0.429034\C,0,2.537987,-0.98586,-0.211203
 \C,0,2.852526,-1.299768,-1.647614\Fe,0,-1.463875,-0.138483,0.031568\Cl
 ,0,-2.096622,-1.975923,-0.946353\C,0,1.617683,-1.972497,0.444343\Cl,0,
 -2.630786,1.649234,-0.458577\Cl,0,-1.137343,-0.328445,2.194602\H,0,3.8
 35587,0.647005,-0.133175\H,0,2.141275,-2.931184,0.563052\H,0,1.261843,
 -1.660894,1.425828\H,0,0.748963,-2.176994,-0.191931\H,0,3.260845,-2.31
 5762,-1.724695\H,0,1.938642,-1.287683,-2.255659\H,0,3.583845,-0.610571
 ,-2.079186\C,0,3.055158,0.339688,1.905109\H,0,3.900751,-0.138995,2.417
 722\H,0,3.133093,1.412357,2.109953\H,0,2.139183,-0.028141,2.374543\C,0
 ,0.895312,2.178611,0.536561\H,0,1.783895,2.79091,0.693366\H,0,0.047331
 ,2.844486,0.31586\H,0,0.642879,1.621899,1.439182\C,0,1.802464,1.784593
 ,-1.835535\H,0,1.171998,2.562255,-2.291979\H,0,2.747182,2.248278,-1.54
 8343\H,0,1.957485,1.001611,-2.575435\\Version=ES64L-G16RevA.03\HF=-303
 4.3497975\S2=8.762118\S2-1=0.\S2A=8.750045\RMSD=7.548e-09\PG=C01 [X(C8
 H16Cl3Fe1O1)]\\@


 ONE THORN OF EXPERIENCE IS WORTH A WHOLE WILDERNESS OF
 WARNING....  LOWELL - AMONG MY BOOKS
 Job cpu time:       0 days  0 hours 55 minutes  2.0 seconds.
 Elapsed time:       0 days  0 hours 13 minutes 48.2 seconds.
 File lengths (MBytes):  RWF=    174 Int=      0 D2E=      0 Chk=     13 Scr=      1
 Normal termination of Gaussian 16 at Tue Feb 11 15:00:55 2020.
 Initial command:
 /n/sw/g16_nehalem/g16/l1.exe "/scratch/Gau-83042.inp" -scrdir="/scratch/"
 Entering Link 1 = /n/sw/g16_nehalem/g16/l1.exe PID=     86853.
  
 Copyright (c) 1988,1990,1992,1993,1995,1998,2003,2009,2016,
            Gaussian, Inc.  All Rights Reserved.
  
 This is part of the Gaussian(R) 16 program.  It is based on
 the Gaussian(R) 09 system (copyright 2009, Gaussian, Inc.),
 the Gaussian(R) 03 system (copyright 2003, Gaussian, Inc.),
 the Gaussian(R) 98 system (copyright 1998, Gaussian, Inc.),
 the Gaussian(R) 94 system (copyright 1995, Gaussian, Inc.),
 the Gaussian 92(TM) system (copyright 1992, Gaussian, Inc.),
 the Gaussian 90(TM) system (copyright 1990, Gaussian, Inc.),
 the Gaussian 88(TM) system (copyright 1988, Gaussian, Inc.),
 the Gaussian 86(TM) system (copyright 1986, Carnegie Mellon
 University), and the Gaussian 82(TM) system (copyright 1983,
 Carnegie Mellon University). Gaussian is a federally registered
 trademark of Gaussian, Inc.
  
 This software contains proprietary and confidential information,
 including trade secrets, belonging to Gaussian, Inc.
  
 This software is provided under written license and may be
 used, copied, transmitted, or stored only in accord with that
 written license.
  
 The following legend is applicable only to US Government
 contracts under FAR:
  
                    RESTRICTED RIGHTS LEGEND
  
 Use, reproduction and disclosure by the US Government is
 subject to restrictions as set forth in subparagraphs (a)
 and (c) of the Commercial Computer Software - Restricted
 Rights clause in FAR 52.227-19.
  
 Gaussian, Inc.
 340 Quinnipiac St., Bldg. 40, Wallingford CT 06492
  
  
 ---------------------------------------------------------------
 Warning -- This program may not be used in any manner that
 competes with the business of Gaussian, Inc. or will provide
 assistance to any competitor of Gaussian, Inc.  The licensee
 of this program is prohibited from giving any competitor of
 Gaussian, Inc. access to this program.  By using this program,
 the user acknowledges that Gaussian, Inc. is engaged in the
 business of creating and licensing software in the field of
 computational chemistry and represents and warrants to the
 licensee that it is not a competitor of Gaussian, Inc. and that
 it will not use this program in any manner prohibited above.
 ---------------------------------------------------------------
  

 Cite this work as:
 Gaussian 16, Revision A.03,
 M. J. Frisch, G. W. Trucks, H. B. Schlegel, G. E. Scuseria, 
 M. A. Robb, J. R. Cheeseman, G. Scalmani, V. Barone, 
 G. A. Petersson, H. Nakatsuji, X. Li, M. Caricato, A. V. Marenich, 
 J. Bloino, B. G. Janesko, R. Gomperts, B. Mennucci, H. P. Hratchian, 
 J. V. Ortiz, A. F. Izmaylov, J. L. Sonnenberg, D. Williams-Young, 
 F. Ding, F. Lipparini, F. Egidi, J. Goings, B. Peng, A. Petrone, 
 T. Henderson, D. Ranasinghe, V. G. Zakrzewski, J. Gao, N. Rega, 
 G. Zheng, W. Liang, M. Hada, M. Ehara, K. Toyota, R. Fukuda, 
 J. Hasegawa, M. Ishida, T. Nakajima, Y. Honda, O. Kitao, H. Nakai, 
 T. Vreven, K. Throssell, J. A. Montgomery, Jr., J. E. Peralta, 
 F. Ogliaro, M. J. Bearpark, J. J. Heyd, E. N. Brothers, K. N. Kudin, 
 V. N. Staroverov, T. A. Keith, R. Kobayashi, J. Normand, 
 K. Raghavachari, A. P. Rendell, J. C. Burant, S. S. Iyengar, 
 J. Tomasi, M. Cossi, J. M. Millam, M. Klene, C. Adamo, R. Cammi, 
 J. W. Ochterski, R. L. Martin, K. Morokuma, O. Farkas, 
 J. B. Foresman, and D. J. Fox, Gaussian, Inc., Wallingford CT, 2016.
 
 ******************************************
 Gaussian 16:  ES64L-G16RevA.03 25-Dec-2016
                11-Feb-2020 
 ******************************************
 %chk=checkpoint.chk
 %mem=3GB
 %nprocshared=4
 Will use up to    4 processors via shared memory.
 -------------------------------------------------------------------
 #t pop=none jul-cc-pvdz guess=read ub3lyp empiricaldispersion=gd3bj
 -------------------------------------------------------------------
 ------------------------------
 theory_abbreviation b3lyp_d3bj
 ------------------------------
 Symbolic Z-matrix:
 Charge =  0 Multiplicity = 6
 O                     0.25124   0.31222  -0.82422 
 C                     1.03224   1.28057  -0.65246 
 C                     3.11609   0.05158   0.42903 
 C                     2.53799  -0.98586  -0.2112 
 C                     2.85253  -1.29977  -1.64761 
 Fe                   -1.46388  -0.13848   0.03157 
 Cl                   -2.09662  -1.97592  -0.94635 
 C                     1.61768  -1.9725    0.44434 
 Cl                   -2.63079   1.64923  -0.45858 
 Cl                   -1.13734  -0.32845   2.1946 
 H                     3.83559   0.64701  -0.13318 
 H                     2.14128  -2.93118   0.56305 
 H                     1.26184  -1.66089   1.42583 
 H                     0.74896  -2.17699  -0.19193 
 H                     3.26085  -2.31576  -1.7247 
 H                     1.93864  -1.28768  -2.25566 
 H                     3.58385  -0.61057  -2.07919 
 C                     3.05516   0.33969   1.90511 
 H                     3.90075  -0.139     2.41772 
 H                     3.13309   1.41236   2.10995 
 H                     2.13918  -0.02814   2.37454 
 C                     0.89531   2.17861   0.53656 
 H                     1.7839    2.79091   0.69337 
 H                     0.04733   2.84449   0.31586 
 H                     0.64288   1.6219    1.43918 
 C                     1.80246   1.78459  -1.83554 
 H                     1.172     2.56226  -2.29198 
 H                     2.74718   2.24828  -1.54834 
 H                     1.95749   1.00161  -2.57544 
 
                    Distance matrix (angstroms):
                    1          2          3          4          5
     1  O    0.000000
     2  C    1.255849   0.000000
     3  C    3.137822   2.650000   0.000000
     4  C    2.699999   2.756574   1.349217   0.000000
     5  C    3.169095   3.310881   2.491600   1.503579   0.000000
     6  Fe   1.969043   2.951641   4.601108   4.097790   4.774888
     7  Cl   3.280699   4.525581   5.759759   4.795860   5.044107
     8  C    2.948955   3.482553   2.518400   1.500051   2.520652
     9  Cl   3.198029   3.686630   6.030502   5.806990   6.338543
    10  Cl   3.384064   3.924508   4.620968   4.441637   5.623624
    11  H    3.665671   2.920588   1.090086   2.087128   2.655157
    12  H    4.002050   4.521760   3.140875   2.130994   2.838035
    13  H    3.158670   3.608907   2.713742   2.182678   3.479473
    14  H    2.616046   3.499584   3.309898   2.149367   2.704351
    15  H    4.095712   4.364630   3.203717   2.140519   1.097684
    16  H    2.730573   3.160340   3.222977   2.151769   1.097747
    17  H    3.678685   3.481763   2.635982   2.173481   1.093652
    18  C    3.913044   3.393910   1.505164   2.550161   3.917999
    19  H    4.902313   4.435037   2.146367   3.079862   4.355815
    20  H    4.257313   3.473022   2.162752   3.390186   4.642591
    21  H    3.729910   3.478620   2.178465   2.786100   4.278275
    22  C    2.397907   1.496326   3.076961   3.642994   4.549772
    23  H    3.285724   2.158091   3.057541   3.956121   4.832785
    24  H    2.784551   2.086507   4.150955   4.599208   5.375797
    25  H    2.644166   2.154778   3.098884   3.621548   4.790301
    26  C    2.365784   1.498985   3.139623   3.294671   3.263622
    27  H    2.839854   2.085731   4.181735   4.334129   4.260822
    28  H    3.240739   2.163354   2.978524   3.505903   3.550997
    29  H    2.540332   2.152148   3.357345   3.142708   2.637858
                    6          7          8          9         10
     6  Fe   0.000000
     7  Cl   2.175519   0.000000
     8  C    3.609708   3.966120   0.000000
     9  Cl   2.190401   3.696623   5.655236   0.000000
    10  Cl   2.195774   3.674234   3.654652   3.630557   0.000000
    11  H    5.359891   6.536980   3.480577   6.551666   5.576745
    12  H    4.591161   4.598978   1.098782   6.693020   4.492832
    13  H    3.419245   4.123806   1.089510   5.446145   2.850005
    14  H    3.016974   2.950752   1.096056   5.112125   3.559610
    15  H    5.490718   5.424367   2.742725   7.213568   6.217264
    16  H    4.257839   4.297826   2.803925   5.721421   5.494237
    17  H    5.491596   5.951067   3.476900   6.808431   6.374518
    18  C    4.915329   6.327221   3.089720   6.295386   4.255264
    19  H    5.871366   7.117569   3.531056   7.357434   5.046589
    20  H    5.277964   6.940560   4.065459   6.314726   4.612394
    21  H    4.299271   5.724006   2.788934   5.795926   3.295176
    22  C    3.345102   5.330183   4.214501   3.701879   3.628514
    23  H    4.423497   6.361587   4.772807   4.703170   4.529649
    24  H    3.355990   5.424579   5.068120   3.033264   3.873063
    25  H    3.085245   5.112726   3.854819   3.784061   2.746578
    26  C    4.225312   5.489535   4.398604   4.644140   5.417509
    27  H    4.431781   5.752360   5.315079   4.319275   5.815377
    28  H    5.091733   6.455130   4.802240   5.519872   5.978183
    29  H    4.449942   5.287287   4.252040   5.094383   5.839543
                   11         12         13         14         15
    11  H    0.000000
    12  H    4.019809   0.000000
    13  H    3.792235   1.769582   0.000000
    14  H    4.183978   1.754233   1.773852   0.000000
    15  H    3.411928   2.620299   3.788226   2.945874   0.000000
    16  H    3.441854   3.269142   3.761740   2.542672   1.757012
    17  H    2.330629   3.801010   4.333589   3.748596   1.771347
    18  C    2.204113   3.651699   2.729106   4.006220   4.502133
    19  H    2.670041   3.785746   3.203727   4.571378   4.723072
    20  H    2.472020   4.716244   3.662578   4.885303   5.349740
    21  H    3.101977   3.421865   2.082227   3.624510   4.826498
    22  C    3.382245   5.259575   3.958148   4.418531   5.559534
    23  H    3.080412   5.734724   4.541762   5.151204   5.840077
    24  H    4.402436   6.148501   4.796407   5.095626   6.412386
    25  H    3.690001   4.872716   3.340662   4.135622   5.689379
    26  C    2.885433   5.301563   4.774949   4.416500   4.353398
    27  H    3.927254   6.266464   5.627179   5.200927   5.336679
    28  H    2.398208   5.626006   5.131623   5.041405   4.596239
    29  H    3.101233   5.034953   4.856229   4.152728   3.664351
                   16         17         18         19         20
    16  H    0.000000
    17  H    1.787824   0.000000
    18  C    4.605099   4.130025   0.000000
    19  H    5.197100   4.532659   1.098607   0.000000
    20  H    5.270246   4.673789   1.094830   1.758043   0.000000
    21  H    4.802649   4.718260   1.093013   1.765581   1.770000
    22  C    4.571676   4.674385   3.149523   4.235886   2.840840
    23  H    5.035436   4.743094   3.015447   4.004850   2.393212
    24  H    5.221550   5.493687   4.224541   5.307337   3.845997
    25  H    4.878168   5.100208   2.771325   3.830407   2.587471
    26  C    3.103857   2.994911   4.201120   5.117929   4.180432
    27  H    3.925695   3.991129   5.108977   6.076523   4.954308
    28  H    3.695545   3.025693   3.957764   4.770688   3.772376
    29  H    2.311597   2.343169   4.660290   5.478036   4.848054
                   21         22         23         24         25
    21  H    0.000000
    22  C    3.129720   0.000000
    23  H    3.301459   1.090448   0.000000
    24  H    4.106824   1.100532   1.777930   0.000000
    25  H    2.415876   1.090126   1.795758   1.763873   0.000000
    26  C    4.596101   2.570022   2.721830   2.971930   3.477769
    27  H    5.424207   2.867817   3.055975   2.854007   3.884044
    28  H    4.576110   2.789462   2.499526   3.334653   3.707526
    29  H    5.059218   3.492572   3.730521   3.924852   4.269672
                   26         27         28         29
    26  C    0.000000
    27  H    1.100267   0.000000
    28  H    1.090860   1.769966   0.000000
    29  H    1.088368   1.770013   1.797976   0.000000
 Framework group  C1[X(C8H16Cl3FeO)]
 Deg. of freedom    81
                         Standard orientation:                         
 ---------------------------------------------------------------------
 Center     Atomic      Atomic             Coordinates (Angstroms)
 Number     Number       Type             X           Y           Z
 ---------------------------------------------------------------------
      1          8           0        0.251243    0.312220   -0.824217
      2          6           0        1.032237    1.280571   -0.652459
      3          6           0        3.116091    0.051578    0.429034
      4          6           0        2.537987   -0.985860   -0.211203
      5          6           0        2.852526   -1.299768   -1.647614
      6         26           0       -1.463875   -0.138483    0.031568
      7         17           0       -2.096622   -1.975923   -0.946353
      8          6           0        1.617683   -1.972497    0.444343
      9         17           0       -2.630786    1.649234   -0.458577
     10         17           0       -1.137343   -0.328445    2.194602
     11          1           0        3.835587    0.647005   -0.133175
     12          1           0        2.141275   -2.931184    0.563052
     13          1           0        1.261843   -1.660894    1.425828
     14          1           0        0.748963   -2.176994   -0.191931
     15          1           0        3.260845   -2.315762   -1.724695
     16          1           0        1.938642   -1.287683   -2.255659
     17          1           0        3.583845   -0.610571   -2.079186
     18          6           0        3.055158    0.339688    1.905109
     19          1           0        3.900751   -0.138995    2.417722
     20          1           0        3.133093    1.412357    2.109953
     21          1           0        2.139183   -0.028141    2.374543
     22          6           0        0.895312    2.178611    0.536561
     23          1           0        1.783895    2.790910    0.693366
     24          1           0        0.047331    2.844486    0.315860
     25          1           0        0.642879    1.621899    1.439182
     26          6           0        1.802464    1.784593   -1.835535
     27          1           0        1.171998    2.562255   -2.291979
     28          1           0        2.747182    2.248278   -1.548343
     29          1           0        1.957485    1.001611   -2.575435
 ---------------------------------------------------------------------
 Rotational constants (GHZ):           0.5700330           0.3276145           0.3087771
   427 basis functions,  1056 primitive gaussians,   461 cartesian basis functions
    77 alpha electrons       72 beta electrons
       nuclear repulsion energy      1630.0754659267 Hartrees.
 NAtoms=   29 NActive=   29 NUniq=   29 SFac= 1.00D+00 NAtFMM=   60 NAOKFM=F Big=F
 Nuclear repulsion after empirical dispersion term =     1630.0070087769 Hartrees.
 Initial guess from the checkpoint file:  "checkpoint.chk"
 B after Tr=     0.000000    0.000000    0.000000
         Rot=    1.000000    0.000000    0.000000    0.000000 Ang=   0.00 deg.
 Initial guess <Sx>= 0.0000 <Sy>= 0.0000 <Sz>= 2.5000 <S**2>= 8.7621 S= 2.5020
 SCF Done:  E(UB3LYP) =  -3034.41825461     A.U. after    1 cycles
            NFock=  1  Conv=0.55D-08     -V/T= 2.0024
 <Sx>= 0.0000 <Sy>= 0.0000 <Sz>= 2.5000 <S**2>= 8.7621 S= 2.5020
 <L.S>= 0.000000000000E+00
 Annihilation of the first spin contaminant:
 S**2 before annihilation     8.7621,   after     8.7500
 1\1\GINC-HOLY7C04410\SP\UB3LYP\Jul-CC-pVDZ\C8H16Cl3Fe1O1(6)\EKWAN\11-F
 eb-2020\0\\#t pop=none jul-cc-pvdz guess=read ub3lyp empiricaldispersi
 on=gd3bj\\theory_abbreviation b3lyp_d3bj\\0,6\O,0,0.251243,0.31222,-0.
 824217\C,0,1.032237,1.280571,-0.652459\C,0,3.116091,0.051578,0.429034\
 C,0,2.537987,-0.98586,-0.211203\C,0,2.852526,-1.299768,-1.647614\Fe,0,
 -1.463875,-0.138483,0.031568\Cl,0,-2.096622,-1.975923,-0.946353\C,0,1.
 617683,-1.972497,0.444343\Cl,0,-2.630786,1.649234,-0.458577\Cl,0,-1.13
 7343,-0.328445,2.194602\H,0,3.835587,0.647005,-0.133175\H,0,2.141275,-
 2.931184,0.563052\H,0,1.261843,-1.660894,1.425828\H,0,0.748963,-2.1769
 94,-0.191931\H,0,3.260845,-2.315762,-1.724695\H,0,1.938642,-1.287683,-
 2.255659\H,0,3.583845,-0.610571,-2.079186\C,0,3.055158,0.339688,1.9051
 09\H,0,3.900751,-0.138995,2.417722\H,0,3.133093,1.412357,2.109953\H,0,
 2.139183,-0.028141,2.374543\C,0,0.895312,2.178611,0.536561\H,0,1.78389
 5,2.79091,0.693366\H,0,0.047331,2.844486,0.31586\H,0,0.642879,1.621899
 ,1.439182\C,0,1.802464,1.784593,-1.835535\H,0,1.171998,2.562255,-2.291
 979\H,0,2.747182,2.248278,-1.548343\H,0,1.957485,1.001611,-2.575435\\V
 ersion=ES64L-G16RevA.03\HF=-3034.4182546\S2=8.762118\S2-1=0.\S2A=8.750
 045\RMSD=5.456e-09\PG=C01 [X(C8H16Cl3Fe1O1)]\\@


 In the race for quality, there is no finish line.
                               -- David T. Kearns
 Job cpu time:       0 days  0 hours  4 minutes 39.9 seconds.
 Elapsed time:       0 days  0 hours  1 minutes 10.4 seconds.
 File lengths (MBytes):  RWF=    170 Int=      0 D2E=      0 Chk=     13 Scr=      1
 Normal termination of Gaussian 16 at Tue Feb 11 15:02:06 2020.
 Initial command:
 /n/sw/g16_nehalem/g16/l1.exe "/scratch/Gau-83042.inp" -scrdir="/scratch/"
 Entering Link 1 = /n/sw/g16_nehalem/g16/l1.exe PID=     87033.
  
 Copyright (c) 1988,1990,1992,1993,1995,1998,2003,2009,2016,
            Gaussian, Inc.  All Rights Reserved.
  
 This is part of the Gaussian(R) 16 program.  It is based on
 the Gaussian(R) 09 system (copyright 2009, Gaussian, Inc.),
 the Gaussian(R) 03 system (copyright 2003, Gaussian, Inc.),
 the Gaussian(R) 98 system (copyright 1998, Gaussian, Inc.),
 the Gaussian(R) 94 system (copyright 1995, Gaussian, Inc.),
 the Gaussian 92(TM) system (copyright 1992, Gaussian, Inc.),
 the Gaussian 90(TM) system (copyright 1990, Gaussian, Inc.),
 the Gaussian 88(TM) system (copyright 1988, Gaussian, Inc.),
 the Gaussian 86(TM) system (copyright 1986, Carnegie Mellon
 University), and the Gaussian 82(TM) system (copyright 1983,
 Carnegie Mellon University). Gaussian is a federally registered
 trademark of Gaussian, Inc.
  
 This software contains proprietary and confidential information,
 including trade secrets, belonging to Gaussian, Inc.
  
 This software is provided under written license and may be
 used, copied, transmitted, or stored only in accord with that
 written license.
  
 The following legend is applicable only to US Government
 contracts under FAR:
  
                    RESTRICTED RIGHTS LEGEND
  
 Use, reproduction and disclosure by the US Government is
 subject to restrictions as set forth in subparagraphs (a)
 and (c) of the Commercial Computer Software - Restricted
 Rights clause in FAR 52.227-19.
  
 Gaussian, Inc.
 340 Quinnipiac St., Bldg. 40, Wallingford CT 06492
  
  
 ---------------------------------------------------------------
 Warning -- This program may not be used in any manner that
 competes with the business of Gaussian, Inc. or will provide
 assistance to any competitor of Gaussian, Inc.  The licensee
 of this program is prohibited from giving any competitor of
 Gaussian, Inc. access to this program.  By using this program,
 the user acknowledges that Gaussian, Inc. is engaged in the
 business of creating and licensing software in the field of
 computational chemistry and represents and warrants to the
 licensee that it is not a competitor of Gaussian, Inc. and that
 it will not use this program in any manner prohibited above.
 ---------------------------------------------------------------
  

 Cite this work as:
 Gaussian 16, Revision A.03,
 M. J. Frisch, G. W. Trucks, H. B. Schlegel, G. E. Scuseria, 
 M. A. Robb, J. R. Cheeseman, G. Scalmani, V. Barone, 
 G. A. Petersson, H. Nakatsuji, X. Li, M. Caricato, A. V. Marenich, 
 J. Bloino, B. G. Janesko, R. Gomperts, B. Mennucci, H. P. Hratchian, 
 J. V. Ortiz, A. F. Izmaylov, J. L. Sonnenberg, D. Williams-Young, 
 F. Ding, F. Lipparini, F. Egidi, J. Goings, B. Peng, A. Petrone, 
 T. Henderson, D. Ranasinghe, V. G. Zakrzewski, J. Gao, N. Rega, 
 G. Zheng, W. Liang, M. Hada, M. Ehara, K. Toyota, R. Fukuda, 
 J. Hasegawa, M. Ishida, T. Nakajima, Y. Honda, O. Kitao, H. Nakai, 
 T. Vreven, K. Throssell, J. A. Montgomery, Jr., J. E. Peralta, 
 F. Ogliaro, M. J. Bearpark, J. J. Heyd, E. N. Brothers, K. N. Kudin, 
 V. N. Staroverov, T. A. Keith, R. Kobayashi, J. Normand, 
 K. Raghavachari, A. P. Rendell, J. C. Burant, S. S. Iyengar, 
 J. Tomasi, M. Cossi, J. M. Millam, M. Klene, C. Adamo, R. Cammi, 
 J. W. Ochterski, R. L. Martin, K. Morokuma, O. Farkas, 
 J. B. Foresman, and D. J. Fox, Gaussian, Inc., Wallingford CT, 2016.
 
 ******************************************
 Gaussian 16:  ES64L-G16RevA.03 25-Dec-2016
                11-Feb-2020 
 ******************************************
 %chk=checkpoint.chk
 %mem=3GB
 %nprocshared=4
 Will use up to    4 processors via shared memory.
 ----------------------------------------
 #t pop=none jul-cc-pvdz guess=read ub97d
 ----------------------------------------
 ------------------------
 theory_abbreviation b97d
 ------------------------
 Symbolic Z-matrix:
 Charge =  0 Multiplicity = 6
 O                     0.25124   0.31222  -0.82422 
 C                     1.03224   1.28057  -0.65246 
 C                     3.11609   0.05158   0.42903 
 C                     2.53799  -0.98586  -0.2112 
 C                     2.85253  -1.29977  -1.64761 
 Fe                   -1.46388  -0.13848   0.03157 
 Cl                   -2.09662  -1.97592  -0.94635 
 C                     1.61768  -1.9725    0.44434 
 Cl                   -2.63079   1.64923  -0.45858 
 Cl                   -1.13734  -0.32845   2.1946 
 H                     3.83559   0.64701  -0.13318 
 H                     2.14128  -2.93118   0.56305 
 H                     1.26184  -1.66089   1.42583 
 H                     0.74896  -2.17699  -0.19193 
 H                     3.26085  -2.31576  -1.7247 
 H                     1.93864  -1.28768  -2.25566 
 H                     3.58385  -0.61057  -2.07919 
 C                     3.05516   0.33969   1.90511 
 H                     3.90075  -0.139     2.41772 
 H                     3.13309   1.41236   2.10995 
 H                     2.13918  -0.02814   2.37454 
 C                     0.89531   2.17861   0.53656 
 H                     1.7839    2.79091   0.69337 
 H                     0.04733   2.84449   0.31586 
 H                     0.64288   1.6219    1.43918 
 C                     1.80246   1.78459  -1.83554 
 H                     1.172     2.56226  -2.29198 
 H                     2.74718   2.24828  -1.54834 
 H                     1.95749   1.00161  -2.57544 
 
                    Distance matrix (angstroms):
                    1          2          3          4          5
     1  O    0.000000
     2  C    1.255849   0.000000
     3  C    3.137822   2.650000   0.000000
     4  C    2.699999   2.756574   1.349217   0.000000
     5  C    3.169095   3.310881   2.491600   1.503579   0.000000
     6  Fe   1.969043   2.951641   4.601108   4.097790   4.774888
     7  Cl   3.280699   4.525581   5.759759   4.795860   5.044107
     8  C    2.948955   3.482553   2.518400   1.500051   2.520652
     9  Cl   3.198029   3.686630   6.030502   5.806990   6.338543
    10  Cl   3.384064   3.924508   4.620968   4.441637   5.623624
    11  H    3.665671   2.920588   1.090086   2.087128   2.655157
    12  H    4.002050   4.521760   3.140875   2.130994   2.838035
    13  H    3.158670   3.608907   2.713742   2.182678   3.479473
    14  H    2.616046   3.499584   3.309898   2.149367   2.704351
    15  H    4.095712   4.364630   3.203717   2.140519   1.097684
    16  H    2.730573   3.160340   3.222977   2.151769   1.097747
    17  H    3.678685   3.481763   2.635982   2.173481   1.093652
    18  C    3.913044   3.393910   1.505164   2.550161   3.917999
    19  H    4.902313   4.435037   2.146367   3.079862   4.355815
    20  H    4.257313   3.473022   2.162752   3.390186   4.642591
    21  H    3.729910   3.478620   2.178465   2.786100   4.278275
    22  C    2.397907   1.496326   3.076961   3.642994   4.549772
    23  H    3.285724   2.158091   3.057541   3.956121   4.832785
    24  H    2.784551   2.086507   4.150955   4.599208   5.375797
    25  H    2.644166   2.154778   3.098884   3.621548   4.790301
    26  C    2.365784   1.498985   3.139623   3.294671   3.263622
    27  H    2.839854   2.085731   4.181735   4.334129   4.260822
    28  H    3.240739   2.163354   2.978524   3.505903   3.550997
    29  H    2.540332   2.152148   3.357345   3.142708   2.637858
                    6          7          8          9         10
     6  Fe   0.000000
     7  Cl   2.175519   0.000000
     8  C    3.609708   3.966120   0.000000
     9  Cl   2.190401   3.696623   5.655236   0.000000
    10  Cl   2.195774   3.674234   3.654652   3.630557   0.000000
    11  H    5.359891   6.536980   3.480577   6.551666   5.576745
    12  H    4.591161   4.598978   1.098782   6.693020   4.492832
    13  H    3.419245   4.123806   1.089510   5.446145   2.850005
    14  H    3.016974   2.950752   1.096056   5.112125   3.559610
    15  H    5.490718   5.424367   2.742725   7.213568   6.217264
    16  H    4.257839   4.297826   2.803925   5.721421   5.494237
    17  H    5.491596   5.951067   3.476900   6.808431   6.374518
    18  C    4.915329   6.327221   3.089720   6.295386   4.255264
    19  H    5.871366   7.117569   3.531056   7.357434   5.046589
    20  H    5.277964   6.940560   4.065459   6.314726   4.612394
    21  H    4.299271   5.724006   2.788934   5.795926   3.295176
    22  C    3.345102   5.330183   4.214501   3.701879   3.628514
    23  H    4.423497   6.361587   4.772807   4.703170   4.529649
    24  H    3.355990   5.424579   5.068120   3.033264   3.873063
    25  H    3.085245   5.112726   3.854819   3.784061   2.746578
    26  C    4.225312   5.489535   4.398604   4.644140   5.417509
    27  H    4.431781   5.752360   5.315079   4.319275   5.815377
    28  H    5.091733   6.455130   4.802240   5.519872   5.978183
    29  H    4.449942   5.287287   4.252040   5.094383   5.839543
                   11         12         13         14         15
    11  H    0.000000
    12  H    4.019809   0.000000
    13  H    3.792235   1.769582   0.000000
    14  H    4.183978   1.754233   1.773852   0.000000
    15  H    3.411928   2.620299   3.788226   2.945874   0.000000
    16  H    3.441854   3.269142   3.761740   2.542672   1.757012
    17  H    2.330629   3.801010   4.333589   3.748596   1.771347
    18  C    2.204113   3.651699   2.729106   4.006220   4.502133
    19  H    2.670041   3.785746   3.203727   4.571378   4.723072
    20  H    2.472020   4.716244   3.662578   4.885303   5.349740
    21  H    3.101977   3.421865   2.082227   3.624510   4.826498
    22  C    3.382245   5.259575   3.958148   4.418531   5.559534
    23  H    3.080412   5.734724   4.541762   5.151204   5.840077
    24  H    4.402436   6.148501   4.796407   5.095626   6.412386
    25  H    3.690001   4.872716   3.340662   4.135622   5.689379
    26  C    2.885433   5.301563   4.774949   4.416500   4.353398
    27  H    3.927254   6.266464   5.627179   5.200927   5.336679
[...]
 Rotational constants (GHZ):           0.5700330           0.3276145           0.3087771
   427 basis functions,  1056 primitive gaussians,   461 cartesian basis functions
    77 alpha electrons       72 beta electrons
       nuclear repulsion energy      1630.0754659267 Hartrees.
 NAtoms=   29 NActive=   29 NUniq=   29 SFac= 1.00D+00 NAtFMM=   60 NAOKFM=F Big=F
 Nuclear repulsion after empirical dispersion term =     1630.0729835475 Hartrees.
 Initial guess from the checkpoint file:  "checkpoint.chk"
 B after Tr=     0.000000    0.000000    0.000000
         Rot=    1.000000    0.000000    0.000000    0.000000 Ang=   0.00 deg.
 Initial guess <Sx>= 0.0000 <Sy>= 0.0000 <Sz>= 2.5000 <S**2>= 8.7618 S= 2.5020
 SCF Done:  E(UM06L) =  -3034.21844352     A.U. after   17 cycles
            NFock= 17  Conv=0.77D-08     -V/T= 2.0020
 <Sx>= 0.0000 <Sy>= 0.0000 <Sz>= 2.5000 <S**2>= 8.7617 S= 2.5019
 <L.S>= 0.000000000000E+00
 Annihilation of the first spin contaminant:
 S**2 before annihilation     8.7617,   after     8.7500
 1\1\GINC-HOLY7C04410\SP\UM06L\Jul-CC-pVDZ\C8H16Cl3Fe1O1(6)\EKWAN\11-Fe
 b-2020\0\\#t pop=none jul-cc-pvdz guess=read um06l empiricaldispersion
 =gd3\\theory_abbreviation m06l_d3\\0,6\O,0,0.251243,0.31222,-0.824217\
 C,0,1.032237,1.280571,-0.652459\C,0,3.116091,0.051578,0.429034\C,0,2.5
 37987,-0.98586,-0.211203\C,0,2.852526,-1.299768,-1.647614\Fe,0,-1.4638
 75,-0.138483,0.031568\Cl,0,-2.096622,-1.975923,-0.946353\C,0,1.617683,
 -1.972497,0.444343\Cl,0,-2.630786,1.649234,-0.458577\Cl,0,-1.137343,-0
 .328445,2.194602\H,0,3.835587,0.647005,-0.133175\H,0,2.141275,-2.93118
 4,0.563052\H,0,1.261843,-1.660894,1.425828\H,0,0.748963,-2.176994,-0.1
 91931\H,0,3.260845,-2.315762,-1.724695\H,0,1.938642,-1.287683,-2.25565
 9\H,0,3.583845,-0.610571,-2.079186\C,0,3.055158,0.339688,1.905109\H,0,
 3.900751,-0.138995,2.417722\H,0,3.133093,1.412357,2.109953\H,0,2.13918
 3,-0.028141,2.374543\C,0,0.895312,2.178611,0.536561\H,0,1.783895,2.790
 91,0.693366\H,0,0.047331,2.844486,0.31586\H,0,0.642879,1.621899,1.4391
 82\C,0,1.802464,1.784593,-1.835535\H,0,1.171998,2.562255,-2.291979\H,0
 ,2.747182,2.248278,-1.548343\H,0,1.957485,1.001611,-2.575435\\Version=
 ES64L-G16RevA.03\HF=-3034.2184435\S2=8.761671\S2-1=0.\S2A=8.750043\RMS
 D=7.712e-09\PG=C01 [X(C8H16Cl3Fe1O1)]\\@


 SOME THINGS ARE EASY, THEY ARE ONLY HARD TO DO.
            -- A. EINSTEIN TO J. O. HIRSCHFELDER
 THE ONLY TROUBLE WITH A SURE THING IS THE UNCERTAINTY.
     -- FROM A TEABAG (BELONGING TO W.H.?)
 Job cpu time:       0 days  1 hours 13 minutes 48.8 seconds.
 Elapsed time:       0 days  0 hours 18 minutes 30.1 seconds.
 File lengths (MBytes):  RWF=    174 Int=      0 D2E=      0 Chk=     13 Scr=      1
 Normal termination of Gaussian 16 at Tue Feb 11 23:48:29 2020.
 Initial command:
 /n/sw/g16_nehalem/g16/l1.exe "/scratch/Gau-83042.inp" -scrdir="/scratch/"
 Entering Link 1 = /n/sw/g16_nehalem/g16/l1.exe PID=    135597.
  
 Copyright (c) 1988,1990,1992,1993,1995,1998,2003,2009,2016,
            Gaussian, Inc.  All Rights Reserved.
  
 This is part of the Gaussian(R) 16 program.  It is based on
 the Gaussian(R) 09 system (copyright 2009, Gaussian, Inc.),
 the Gaussian(R) 03 system (copyright 2003, Gaussian, Inc.),
 the Gaussian(R) 98 system (copyright 1998, Gaussian, Inc.),
 the Gaussian(R) 94 system (copyright 1995, Gaussian, Inc.),
 the Gaussian 92(TM) system (copyright 1992, Gaussian, Inc.),
 the Gaussian 90(TM) system (copyright 1990, Gaussian, Inc.),
 the Gaussian 88(TM) system (copyright 1988, Gaussian, Inc.),
 the Gaussian 86(TM) system (copyright 1986, Carnegie Mellon
 University), and the Gaussian 82(TM) system (copyright 1983,
 Carnegie Mellon University). Gaussian is a federally registered
 trademark of Gaussian, Inc.
  
 This software contains proprietary and confidential information,
 including trade secrets, belonging to Gaussian, Inc.
  
 This software is provided under written license and may be
 used, copied, transmitted, or stored only in accord with that
 written license.
  
 The following legend is applicable only to US Government
 contracts under FAR:
  
                    RESTRICTED RIGHTS LEGEND
  
 Use, reproduction and disclosure by the US Government is
 subject to restrictions as set forth in subparagraphs (a)
 and (c) of the Commercial Computer Software - Restricted
 Rights clause in FAR 52.227-19.
  
 Gaussian, Inc.
 340 Quinnipiac St., Bldg. 40, Wallingford CT 06492
  
  
 ---------------------------------------------------------------
 Warning -- This program may not be used in any manner that
 competes with the business of Gaussian, Inc. or will provide
 assistance to any competitor of Gaussian, Inc.  The licensee
 of this program is prohibited from giving any competitor of
 Gaussian, Inc. access to this program.  By using this program,
 the user acknowledges that Gaussian, Inc. is engaged in the
 business of creating and licensing software in the field of
 computational chemistry and represents and warrants to the
 licensee that it is not a competitor of Gaussian, Inc. and that
 it will not use this program in any manner prohibited above.
 ---------------------------------------------------------------
  

 Cite this work as:
 Gaussian 16, Revision A.03,
 M. J. Frisch, G. W. Trucks, H. B. Schlegel, G. E. Scuseria, 
 M. A. Robb, J. R. Cheeseman, G. Scalmani, V. Barone, 
 G. A. Petersson, H. Nakatsuji, X. Li, M. Caricato, A. V. Marenich, 
 J. Bloino, B. G. Janesko, R. Gomperts, B. Mennucci, H. P. Hratchian, 
 J. V. Ortiz, A. F. Izmaylov, J. L. Sonnenberg, D. Williams-Young, 
 F. Ding, F. Lipparini, F. Egidi, J. Goings, B. Peng, A. Petrone, 
 T. Henderson, D. Ranasinghe, V. G. Zakrzewski, J. Gao, N. Rega, 
 G. Zheng, W. Liang, M. Hada, M. Ehara, K. Toyota, R. Fukuda, 
 J. Hasegawa, M. Ishida, T. Nakajima, Y. Honda, O. Kitao, H. Nakai, 
 T. Vreven, K. Throssell, J. A. Montgomery, Jr., J. E. Peralta, 
 F. Ogliaro, M. J. Bearpark, J. J. Heyd, E. N. Brothers, K. N. Kudin, 
 V. N. Staroverov, T. A. Keith, R. Kobayashi, J. Normand, 
 K. Raghavachari, A. P. Rendell, J. C. Burant, S. S. Iyengar, 
 J. Tomasi, M. Cossi, J. M. Millam, M. Klene, C. Adamo, R. Cammi, 
 J. W. Ochterski, R. L. Martin, K. Morokuma, O. Farkas, 
 J. B. Foresman, and D. J. Fox, Gaussian, Inc., Wallingford CT, 2016.
 
 ******************************************
 Gaussian 16:  ES64L-G16RevA.03 25-Dec-2016
                11-Feb-2020 
 ******************************************
 %chk=checkpoint.chk
 %mem=3GB
 %nprocshared=4
 Will use up to    4 processors via shared memory.
 -------------------------------------------------------------------
 #t pop=none jul-cc-pvdz guess=read ub97d3 empiricaldispersion=gd3bj
 -------------------------------------------------------------------
 ------------------------------
 theory_abbreviation b97d3_d3bj
 ------------------------------
 Symbolic Z-matrix:
 Charge =  0 Multiplicity = 6
 O                     0.25124   0.31222  -0.82422 
 C                     1.03224   1.28057  -0.65246 
 C                     3.11609   0.05158   0.42903 
 C                     2.53799  -0.98586  -0.2112 
 C                     2.85253  -1.29977  -1.64761 
 Fe                   -1.46388  -0.13848   0.03157 
 Cl                   -2.09662  -1.97592  -0.94635 
 C                     1.61768  -1.9725    0.44434 
 Cl                   -2.63079   1.64923  -0.45858 
 Cl                   -1.13734  -0.32845   2.1946 
 H                     3.83559   0.64701  -0.13318 
 H                     2.14128  -2.93118   0.56305 
 H                     1.26184  -1.66089   1.42583 
 H                     0.74896  -2.17699  -0.19193 
 H                     3.26085  -2.31576  -1.7247 
 H                     1.93864  -1.28768  -2.25566 
 H                     3.58385  -0.61057  -2.07919 
 C                     3.05516   0.33969   1.90511 
 H                     3.90075  -0.139     2.41772 
 H                     3.13309   1.41236   2.10995 
 H                     2.13918  -0.02814   2.37454 
 C                     0.89531   2.17861   0.53656 
 H                     1.7839    2.79091   0.69337 
 H                     0.04733   2.84449   0.31586 
 H                     0.64288   1.6219    1.43918 
 C                     1.80246   1.78459  -1.83554 
 H                     1.172     2.56226  -2.29198 
 H                     2.74718   2.24828  -1.54834 
 H                     1.95749   1.00161  -2.57544 
 
                    Distance matrix (angstroms):
                    1          2          3          4          5
     1  O    0.000000
     2  C    1.255849   0.000000
     3  C    3.137822   2.650000   0.000000
     4  C    2.699999   2.756574   1.349217   0.000000
     5  C    3.169095   3.310881   2.491600   1.503579   0.000000
     6  Fe   1.969043   2.951641   4.601108   4.097790   4.774888
     7  Cl   3.280699   4.525581   5.759759   4.795860   5.044107
     8  C    2.948955   3.482553   2.518400   1.500051   2.520652
     9  Cl   3.198029   3.686630   6.030502   5.806990   6.338543
    10  Cl   3.384064   3.924508   4.620968   4.441637   5.623624
    11  H    3.665671   2.920588   1.090086   2.087128   2.655157
    12  H    4.002050   4.521760   3.140875   2.130994   2.838035
    13  H    3.158670   3.608907   2.713742   2.182678   3.479473
    14  H    2.616046   3.499584   3.309898   2.149367   2.704351
    15  H    4.095712   4.364630   3.203717   2.140519   1.097684
    16  H    2.730573   3.160340   3.222977   2.151769   1.097747
    17  H    3.678685   3.481763   2.635982   2.173481   1.093652
    18  C    3.913044   3.393910   1.505164   2.550161   3.917999
    19  H    4.902313   4.435037   2.146367   3.079862   4.355815
    20  H    4.257313   3.473022   2.162752   3.390186   4.642591
    21  H    3.729910   3.478620   2.178465   2.786100   4.278275
    22  C    2.397907   1.496326   3.076961   3.642994   4.549772
    23  H    3.285724   2.158091   3.057541   3.956121   4.832785
    24  H    2.784551   2.086507   4.150955   4.599208   5.375797
    25  H    2.644166   2.154778   3.098884   3.621548   4.790301
    26  C    2.365784   1.498985   3.139623   3.294671   3.263622
    27  H    2.839854   2.085731   4.181735   4.334129   4.260822
    28  H    3.240739   2.163354   2.978524   3.505903   3.550997
    29  H    2.540332   2.152148   3.357345   3.142708   2.637858
                    6          7          8          9         10
     6  Fe   0.000000
     7  Cl   2.175519   0.000000
     8  C    3.609708   3.966120   0.000000
     9  Cl   2.190401   3.696623   5.655236   0.000000
    10  Cl   2.195774   3.674234   3.654652   3.630557   0.000000
    11  H    5.359891   6.536980   3.480577   6.551666   5.576745
    12  H    4.591161   4.598978   1.098782   6.693020   4.492832
    13  H    3.419245   4.123806   1.089510   5.446145   2.850005
    14  H    3.016974   2.950752   1.096056   5.112125   3.559610
    15  H    5.490718   5.424367   2.742725   7.213568   6.217264
    16  H    4.257839   4.297826   2.803925   5.721421   5.494237
    17  H    5.491596   5.951067   3.476900   6.808431   6.374518
    18  C    4.915329   6.327221   3.089720   6.295386   4.255264
    19  H    5.871366   7.117569   3.531056   7.357434   5.046589
    20  H    5.277964   6.940560   4.065459   6.314726   4.612394
    21  H    4.299271   5.724006   2.788934   5.795926   3.295176
    22  C    3.345102   5.330183   4.214501   3.701879   3.628514
    23  H    4.423497   6.361587   4.772807   4.703170   4.529649
    24  H    3.355990   5.424579   5.068120   3.033264   3.873063
    25  H    3.085245   5.112726   3.854819   3.784061   2.746578
    26  C    4.225312   5.489535   4.398604   4.644140   5.417509
    27  H    4.431781   5.752360   5.315079   4.319275   5.815377
    28  H    5.091733   6.455130   4.802240   5.519872   5.978183
    29  H    4.449942   5.287287   4.252040   5.094383   5.839543
                   11         12         13         14         15
    11  H    0.000000
    12  H    4.019809   0.000000
    13  H    3.792235   1.769582   0.000000
    14  H    4.183978   1.754233   1.773852   0.000000
    15  H    3.411928   2.620299   3.788226   2.945874   0.000000
    16  H    3.441854   3.269142   3.761740   2.542672   1.757012
    17  H    2.330629   3.801010   4.333589   3.748596   1.771347
    18  C    2.204113   3.651699   2.729106   4.006220   4.502133
    19  H    2.670041   3.785746   3.203727   4.571378   4.723072
    20  H    2.472020   4.716244   3.662578   4.885303   5.349740
    21  H    3.101977   3.421865   2.082227   3.624510   4.826498
    22  C    3.382245   5.259575   3.958148   4.418531   5.559534
    23  H    3.080412   5.734724   4.541762   5.151204   5.840077
    24  H    4.402436   6.148501   4.796407   5.095626   6.412386
    25  H    3.690001   4.872716   3.340662   4.135622   5.689379
    26  C    2.885433   5.301563   4.774949   4.416500   4.353398
    27  H    3.927254   6.266464   5.627179   5.200927   5.336679
    28  H    2.398208   5.626006   5.131623   5.041405   4.596239
    29  H    3.101233   5.034953   4.856229   4.152728   3.664351
                   16         17         18         19         20
    16  H    0.000000
    17  H    1.787824   0.000000
    18  C    4.605099   4.130025   0.000000
    19  H    5.197100   4.532659   1.098607   0.000000
    20  H    5.270246   4.673789   1.094830   1.758043   0.000000
    21  H    4.802649   4.718260   1.093013   1.765581   1.770000
    22  C    4.571676   4.674385   3.149523   4.235886   2.840840
    23  H    5.035436   4.743094   3.015447   4.004850   2.393212
    24  H    5.221550   5.493687   4.224541   5.307337   3.845997
    25  H    4.878168   5.100208   2.771325   3.830407   2.587471
    26  C    3.103857   2.994911   4.201120   5.117929   4.180432
    27  H    3.925695   3.991129   5.108977   6.076523   4.954308
    28  H    3.695545   3.025693   3.957764   4.770688   3.772376
    29  H    2.311597   2.343169   4.660290   5.478036   4.848054
                   21         22         23         24         25
    21  H    0.000000
    22  C    3.129720   0.000000
    23  H    3.301459   1.090448   0.000000
    24  H    4.106824   1.100532   1.777930   0.000000
    25  H    2.415876   1.090126   1.795758   1.763873   0.000000
    26  C    4.596101   2.570022   2.721830   2.971930   3.477769
    27  H    5.424207   2.867817   3.055975   2.854007   3.884044
    28  H    4.576110   2.789462   2.499526   3.334653   3.707526
    29  H    5.059218   3.492572   3.730521   3.924852   4.269672
                   26         27         28         29
    26  C    0.000000
    27  H    1.100267   0.000000
    28  H    1.090860   1.769966   0.000000
    29  H    1.088368   1.770013   1.797976   0.000000
 Framework group  C1[X(C8H16Cl3FeO)]
 Deg. of freedom    81
                         Standard orientation:                         
 ---------------------------------------------------------------------
 Center     Atomic      Atomic             Coordinates (Angstroms)
 Number     Number       Type             X           Y           Z
 ---------------------------------------------------------------------
      1          8           0        0.251243    0.312220   -0.824217
      2          6           0        1.032237    1.280571   -0.652459
      3          6           0        3.116091    0.051578    0.429034
      4          6           0        2.537987   -0.985860   -0.211203
      5          6           0        2.852526   -1.299768   -1.647614
      6         26           0       -1.463875   -0.138483    0.031568
      7         17           0       -2.096622   -1.975923   -0.946353
      8          6           0        1.617683   -1.972497    0.444343
      9         17           0       -2.630786    1.649234   -0.458577
     10         17           0       -1.137343   -0.328445    2.194602
     11          1           0        3.835587    0.647005   -0.133175
     12          1           0        2.141275   -2.931184    0.563052
     13          1           0        1.261843   -1.660894    1.425828
     14          1           0        0.748963   -2.176994   -0.191931
     15          1           0        3.260845   -2.315762   -1.724695
     16          1           0        1.938642   -1.287683   -2.255659
     17          1           0        3.583845   -0.610571   -2.079186
     18          6           0        3.055158    0.339688    1.905109
     19          1           0        3.900751   -0.138995    2.417722
     20          1           0        3.133093    1.412357    2.109953
     21          1           0        2.139183   -0.028141    2.374543
     22          6           0        0.895312    2.178611    0.536561
     23          1           0        1.783895    2.790910    0.693366
     24          1           0        0.047331    2.844486    0.315860
     25          1           0        0.642879    1.621899    1.439182
     26          6           0        1.802464    1.784593   -1.835535
     27          1           0        1.171998    2.562255   -2.291979
     28          1           0        2.747182    2.248278   -1.548343
     29          1           0        1.957485    1.001611   -2.575435
 ---------------------------------------------------------------------
 Rotational constants (GHZ):           0.5700330           0.3276145           0.3087771
   427 basis functions,  1056 primitive gaussians,   461 cartesian basis functions
    77 alpha electrons       72 beta electrons
       nuclear repulsion energy      1630.0754659267 Hartrees.
 NAtoms=   29 NActive=   29 NUniq=   29 SFac= 1.00D+00 NAtFMM=   60 NAOKFM=F Big=F
 Nuclear repulsion after empirical dispersion term =     1629.9753244276 Hartrees.
 Initial guess from the checkpoint file:  "checkpoint.chk"
 B after Tr=     0.000000    0.000000    0.000000
         Rot=    1.000000    0.000000    0.000000    0.000000 Ang=   0.00 deg.
 Initial guess <Sx>= 0.0000 <Sy>= 0.0000 <Sz>= 2.5000 <S**2>= 8.7617 S= 2.5019
 SCF Done:  E(UB97D3) =  -3034.63771380     A.U. after   16 cycles
            NFock= 16  Conv=0.54D-08     -V/T= 2.0019
 <Sx>= 0.0000 <Sy>= 0.0000 <Sz>= 2.5000 <S**2>= 8.7598 S= 2.5016
 <L.S>= 0.000000000000E+00
 Annihilation of the first spin contaminant:
 S**2 before annihilation     8.7598,   after     8.7500
 1\1\GINC-HOLY7C04410\SP\UB97D3\Jul-CC-pVDZ\C8H16Cl3Fe1O1(6)\EKWAN\12-F
 eb-2020\0\\#t pop=none jul-cc-pvdz guess=read ub97d3 empiricaldispersi
 on=gd3bj\\theory_abbreviation b97d3_d3bj\\0,6\O,0,0.251243,0.31222,-0.
 824217\C,0,1.032237,1.280571,-0.652459\C,0,3.116091,0.051578,0.429034\
 C,0,2.537987,-0.98586,-0.211203\C,0,2.852526,-1.299768,-1.647614\Fe,0,
 -1.463875,-0.138483,0.031568\Cl,0,-2.096622,-1.975923,-0.946353\C,0,1.
 617683,-1.972497,0.444343\Cl,0,-2.630786,1.649234,-0.458577\Cl,0,-1.13
 7343,-0.328445,2.194602\H,0,3.835587,0.647005,-0.133175\H,0,2.141275,-
 2.931184,0.563052\H,0,1.261843,-1.660894,1.425828\H,0,0.748963,-2.1769
 94,-0.191931\H,0,3.260845,-2.315762,-1.724695\H,0,1.938642,-1.287683,-
 2.255659\H,0,3.583845,-0.610571,-2.079186\C,0,3.055158,0.339688,1.9051
 09\H,0,3.900751,-0.138995,2.417722\H,0,3.133093,1.412357,2.109953\H,0,
 2.139183,-0.028141,2.374543\C,0,0.895312,2.178611,0.536561\H,0,1.78389
 5,2.79091,0.693366\H,0,0.047331,2.844486,0.31586\H,0,0.642879,1.621899
 ,1.439182\C,0,1.802464,1.784593,-1.835535\H,0,1.171998,2.562255,-2.291
 979\H,0,2.747182,2.248278,-1.548343\H,0,1.957485,1.001611,-2.575435\\V
 ersion=ES64L-G16RevA.03\HF=-3034.6377138\S2=8.759842\S2-1=0.\S2A=8.750
 031\RMSD=5.422e-09\PG=C01 [X(C8H16Cl3Fe1O1)]\\@


 Ideas are like rabbits. You get a couple and learn
 how to handle them, and pretty soon you have a dozen.
                                    -- John Steinbeck
 Job cpu time:       0 days  0 hours 52 minutes 46.2 seconds.
 Elapsed time:       0 days  0 hours 13 minutes 28.8 seconds.
 File lengths (MBytes):  RWF=    174 Int=      0 D2E=      0 Chk=     13 Scr=      1
 Normal termination of Gaussian 16 at Wed Feb 12 00:01:59 2020.
