 Entering Gaussian System, Link 0=g16
 Input=simple-grid-240-240-b3lyp_d3bj-631gd-gas-singlepoint-DFT-juldz2-gas.gjf
 Output=simple-grid-240-240-b3lyp_d3bj-631gd-gas-singlepoint-DFT-juldz2-gas.out
 Initial command:
 /n/sw/g16_nehalem/g16/l1.exe "/scratch/Gau-66257.inp" -scrdir="/scratch/"
 Entering Link 1 = /n/sw/g16_nehalem/g16/l1.exe PID=     66259.
  
 Copyright (c) 1988,1990,1992,1993,1995,1998,2003,2009,2016,
            Gaussian, Inc.  All Rights Reserved.
  
 This is part of the Gaussian(R) 16 program.  It is based on
 the Gaussian(R) 09 system (copyright 2009, Gaussian, Inc.),
 the Gaussian(R) 03 system (copyright 2003, Gaussian, Inc.),
 the Gaussian(R) 98 system (copyright 1998, Gaussian, Inc.),
 the Gaussian(R) 94 system (copyright 1995, Gaussian, Inc.),
 the Gaussian 92(TM) system (copyright 1992, Gaussian, Inc.),
 the Gaussian 90(TM) system (copyright 1990, Gaussian, Inc.),
 the Gaussian 88(TM) system (copyright 1988, Gaussian, Inc.),
 the Gaussian 86(TM) system (copyright 1986, Carnegie Mellon
 University), and the Gaussian 82(TM) system (copyright 1983,
 Carnegie Mellon University). Gaussian is a federally registered
 trademark of Gaussian, Inc.
  
 This software contains proprietary and confidential information,
 including trade secrets, belonging to Gaussian, Inc.
  
 This software is provided under written license and may be
 used, copied, transmitted, or stored only in accord with that
 written license.
  
 The following legend is applicable only to US Government
 contracts under FAR:
  
                    RESTRICTED RIGHTS LEGEND
  
 Use, reproduction and disclosure by the US Government is
 subject to restrictions as set forth in subparagraphs (a)
 and (c) of the Commercial Computer Software - Restricted
 Rights clause in FAR 52.227-19.
  
 Gaussian, Inc.
 340 Quinnipiac St., Bldg. 40, Wallingford CT 06492
  
  
 ---------------------------------------------------------------
 Warning -- This program may not be used in any manner that
 competes with the business of Gaussian, Inc. or will provide
 assistance to any competitor of Gaussian, Inc.  The licensee
 of this program is prohibited from giving any competitor of
 Gaussian, Inc. access to this program.  By using this program,
 the user acknowledges that Gaussian, Inc. is engaged in the
 business of creating and licensing software in the field of
 computational chemistry and represents and warrants to the
 licensee that it is not a competitor of Gaussian, Inc. and that
 it will not use this program in any manner prohibited above.
 ---------------------------------------------------------------
  

 Cite this work as:
 Gaussian 16, Revision A.03,
 M. J. Frisch, G. W. Trucks, H. B. Schlegel, G. E. Scuseria, 
 M. A. Robb, J. R. Cheeseman, G. Scalmani, V. Barone, 
 G. A. Petersson, H. Nakatsuji, X. Li, M. Caricato, A. V. Marenich, 
 J. Bloino, B. G. Janesko, R. Gomperts, B. Mennucci, H. P. Hratchian, 
 J. V. Ortiz, A. F. Izmaylov, J. L. Sonnenberg, D. Williams-Young, 
 F. Ding, F. Lipparini, F. Egidi, J. Goings, B. Peng, A. Petrone, 
 T. Henderson, D. Ranasinghe, V. G. Zakrzewski, J. Gao, N. Rega, 
 G. Zheng, W. Liang, M. Hada, M. Ehara, K. Toyota, R. Fukuda, 
 J. Hasegawa, M. Ishida, T. Nakajima, Y. Honda, O. Kitao, H. Nakai, 
 T. Vreven, K. Throssell, J. A. Montgomery, Jr., J. E. Peralta, 
 F. Ogliaro, M. J. Bearpark, J. J. Heyd, E. N. Brothers, K. N. Kudin, 
 V. N. Staroverov, T. A. Keith, R. Kobayashi, J. Normand, 
 K. Raghavachari, A. P. Rendell, J. C. Burant, S. S. Iyengar, 
 J. Tomasi, M. Cossi, J. M. Millam, M. Klene, C. Adamo, R. Cammi, 
 J. W. Ochterski, R. L. Martin, K. Morokuma, O. Farkas, 
 J. B. Foresman, and D. J. Fox, Gaussian, Inc., Wallingford CT, 2016.
 
 ******************************************
 Gaussian 16:  ES64L-G16RevA.03 25-Dec-2016
                12-Feb-2020 
 ******************************************
 %chk=checkpoint.chk
 %mem=3GB
 %nprocshared=4
 Will use up to    4 processors via shared memory.
 --------------------------------
 #t pop=none jul-cc-pvdz upbe1pbe
 --------------------------------
 ------------------------
 theory_abbreviation pbe0
 ------------------------
 Symbolic Z-matrix:
 Charge =  0 Multiplicity = 6
 O                    -0.3155   -0.15089  -0.65369 
 C                    -1.16197  -1.09545  -0.57056 
 C                    -3.18138   0.0166    0.0968 
 C                    -2.34892   1.04361  -0.20834 
 C                    -2.30262   1.63243  -1.5866 
 Fe                    1.46603   0.08049   0.05527 
 Cl                    2.09751   1.99022  -0.79602 
 C                    -1.5569    1.79017   0.82363 
 Cl                    2.46783  -1.71864  -0.70695 
 Cl                    1.3536    0.07792   2.25188 
 H                    -3.80255  -0.37453  -0.70699 
 H                    -2.17619   2.61511   1.20331 
 H                    -1.26268   1.17955   1.67808 
 H                    -0.65887   2.23671   0.38889 
 H                    -2.60752   2.68556  -1.52804 
 H                    -1.28007   1.62189  -1.97871 
 H                    -2.97458   1.12808  -2.28587 
 C                    -3.56935  -0.42854   1.48055 
 H                    -4.48887   0.08852   1.78707 
 H                    -3.78512  -1.50105   1.51909 
 H                    -2.80796  -0.2058    2.23172 
 C                    -1.10915  -2.0267    0.60307 
 H                    -1.9979   -2.65245   0.6835 
 H                    -0.24273  -2.67979   0.41778 
 H                    -0.91676  -1.49611   1.53579 
 C                    -1.72667  -1.62373  -1.85902 
 H                    -0.94667  -2.28351  -2.26704 
 H                    -2.63304  -2.2128   -1.71146 
 H                    -1.89149  -0.82667  -2.58325 
 
                    Distance matrix (angstroms):
                    1          2          3          4          5
     1  O    0.000000
     2  C    1.271072   0.000000
     3  C    2.967240   2.399999   0.000000
     4  C    2.399991   2.472981   1.356780   0.000000
     5  C    2.828283   3.126459   2.493382   1.499482   0.000000
     6  Fe   1.931325   2.946335   4.648032   3.943472   4.393974
     7  Cl   3.229116   4.494037   5.706040   4.583901   4.484882
     8  C    2.737007   3.229007   2.512517   1.499864   2.527878
     9  Cl   3.194941   3.685439   5.964110   5.574924   5.895821
    10  Cl   3.358655   3.958667   5.021368   4.549055   5.524343
    11  H    3.494619   2.740618   1.088541   2.091128   2.655441
    12  H    3.815928   4.235972   2.997837   2.119479   2.960615
    13  H    2.846812   3.200332   2.744864   2.181043   3.456105
    14  H    2.627828   3.503846   3.373022   2.153242   2.640008
    15  H    3.750105   4.159620   3.176915   2.122376   1.097946
    16  H    2.414291   3.062803   3.240317   2.147336   1.095204
    17  H    3.372013   3.342443   2.637287   2.171341   1.093104
    18  C    3.901229   3.232224   1.504470   2.551277   3.906351
    19  H    4.840621   4.245989   2.138160   3.077864   4.306388
    20  H    4.310701   3.378169   2.165792   3.394402   4.654220
    21  H    3.813252   3.369490   2.178707   2.779498   4.267782
    22  C    2.393322   1.499139   2.953897   3.409143   4.428122
    23  H    3.297927   2.166949   2.978024   3.818304   4.858638
    24  H    2.747486   2.081335   4.001148   4.323401   5.182270
    25  H    2.639120   2.158093   3.080172   3.397538   4.632244
    26  C    2.369277   1.502693   2.938033   3.197910   3.317904
    27  H    2.747608   2.082280   3.983983   4.156235   4.199545
    28  H    3.277401   2.171215   2.922446   3.597823   3.861420
    29  H    2.581395   2.157626   3.091532   3.057350   2.685053
                    6          7          8          9         10
     6  Fe   0.000000
     7  Cl   2.184152   0.000000
     8  C    3.556895   4.002245   0.000000
     9  Cl   2.195776   3.728362   5.554535   0.000000
    10  Cl   2.199485   3.674224   3.666430   3.636451   0.000000
    11  H    5.342849   6.356935   3.474427   6.412826   5.962008
    12  H    4.583455   4.759440   1.099183   6.633051   4.471711
    13  H    3.359663   4.250787   1.090638   5.291938   2.896169
    14  H    3.045619   3.010375   1.093099   5.159642   3.490146
    15  H    5.087940   4.812138   2.726879   6.769818   6.064492
    16  H    3.748875   3.597563   2.820999   5.179121   5.217080
    17  H    5.128101   5.356212   3.480969   6.341662   6.358234
    18  C    5.257908   6.568592   3.066617   6.549587   5.008683
    19  H    6.201618   7.325925   3.524241   7.608000   5.860943
    20  H    5.676145   7.221769   4.034937   6.640934   5.425551
    21  H    4.804773   6.168729   2.744399   6.225622   4.171267
    22  C    3.372219   5.326884   3.849363   3.821757   3.634986
    23  H    4.456723   6.365187   4.466643   4.769494   4.598612
    24  H    3.266552   5.362733   4.676777   3.088031   3.676563
    25  H    3.217964   5.165035   3.422945   4.066309   2.853924
    26  C    4.094163   5.367950   4.345118   4.350877   5.411388
    27  H    4.099110   5.449370   5.149700   3.796286   5.593585
    28  H    5.018255   6.393861   4.858856   5.222274   6.070318
    29  H    4.365502   5.200104   4.308893   4.829053   5.892986
                   11         12         13         14         15
    11  H    0.000000
    12  H    3.902851   0.000000
    13  H    3.815055   1.766550   0.000000
    14  H    4.231109   1.763159   1.773182   0.000000
    15  H    3.386202   2.766096   3.788907   2.770080   0.000000
    16  H    3.459167   3.451776   3.683480   2.523771   1.759726
    17  H    2.331571   3.875962   4.318114   3.707551   1.770536
    18  C    2.200601   3.358799   2.818809   4.094653   4.435575
    19  H    2.627889   3.474612   3.407421   4.608533   4.612380
    20  H    2.494952   4.430701   3.684236   5.002165   5.310312
    21  H    3.107040   3.068266   2.147926   3.739044   4.747199
    22  C    3.420580   4.800546   3.385155   4.292470   5.384439
    23  H    3.221671   5.296139   4.026651   5.077759   5.810068
    24  H    4.387676   5.691329   4.186068   4.934162   6.177820
    25  H    3.823064   4.312630   2.701679   3.913544   5.452716
    26  C    2.682708   5.248583   4.537033   4.593067   4.410831
    27  H    3.772797   6.127925   5.258952   5.250634   5.291146
    28  H    2.399157   5.658030   4.987473   5.301602   4.901864
    29  H    2.716050   5.124930   4.751756   4.442661   3.736571
                   16         17         18         19         20
    16  H    0.000000
    17  H    1.791522   0.000000
    18  C    4.627257   4.118584   0.000000
    19  H    5.179643   4.467954   1.098553   0.000000
    20  H    5.316256   4.695423   1.094679   1.758920   0.000000
    21  H    4.837617   4.713341   1.092513   1.763465   1.772106
    22  C    4.472918   4.666740   3.062140   4.159152   2.876846
    23  H    5.086508   4.905452   2.837344   3.864672   2.284314
    24  H    5.032262   5.410418   4.155002   5.250545   3.892413
    25  H    4.712283   5.072090   2.859895   3.915885   2.868415
    26  C    3.278384   3.051545   3.997078   4.884205   3.957756
    27  H    3.930193   3.968842   4.935968   5.882983   4.796227
    28  H    4.075143   3.407065   3.774811   4.580381   3.502900
    29  H    2.595136   2.254457   4.414542   5.165622   4.568346
                   21         22         23         24         25
    21  H    0.000000
    22  C    2.975587   0.000000
    23  H    3.006531   1.089909   0.000000
    24  H    3.998923   1.100700   1.775383   0.000000
    25  H    2.392870   1.090190   1.797880   1.762206   0.000000
    26  C    4.462484   2.570133   2.756123   2.915674   3.492414
    27  H    5.293396   2.886151   3.153868   2.803717   3.883609
    28  H    4.428011   2.777396   2.516453   3.235019   3.742180
    29  H    4.940572   3.493528   3.743852   3.893407   4.285408
                   26         27         28         29
    26  C    0.000000
    27  H    1.100089   0.000000
    28  H    1.091002   1.776939   0.000000
    29  H    1.089485   1.764948   1.797576   0.000000
 Framework group  C1[X(C8H16Cl3FeO)]
 Deg. of freedom    81
                         Standard orientation:                         
 ---------------------------------------------------------------------
 Center     Atomic      Atomic             Coordinates (Angstroms)
 Number     Number       Type             X           Y           Z
 ---------------------------------------------------------------------
      1          8           0       -0.315503   -0.150886   -0.653688
      2          6           0       -1.161974   -1.095449   -0.570557
      3          6           0       -3.181376    0.016597    0.096800
      4          6           0       -2.348922    1.043613   -0.208339
      5          6           0       -2.302623    1.632430   -1.586598
      6         26           0        1.466031    0.080485    0.055268
      7         17           0        2.097507    1.990215   -0.796018
      8          6           0       -1.556901    1.790165    0.823627
      9         17           0        2.467832   -1.718641   -0.706948
     10         17           0        1.353602    0.077920    2.251876
     11          1           0       -3.802551   -0.374528   -0.706994
     12          1           0       -2.176186    2.615106    1.203313
     13          1           0       -1.262684    1.179553    1.678075
     14          1           0       -0.658866    2.236710    0.388890
     15          1           0       -2.607523    2.685564   -1.528037
     16          1           0       -1.280072    1.621889   -1.978708
     17          1           0       -2.974580    1.128081   -2.285871
     18          6           0       -3.569351   -0.428537    1.480549
     19          1           0       -4.488871    0.088518    1.787070
     20          1           0       -3.785122   -1.501048    1.519086
     21          1           0       -2.807956   -0.205800    2.231715
     22          6           0       -1.109147   -2.026701    0.603069
     23          1           0       -1.997897   -2.652445    0.683502
     24          1           0       -0.242725   -2.679787    0.417780
     25          1           0       -0.916760   -1.496108    1.535792
     26          6           0       -1.726672   -1.623727   -1.859015
     27          1           0       -0.946671   -2.283508   -2.267039
     28          1           0       -2.633041   -2.212801   -1.711460
     29          1           0       -1.891485   -0.826669   -2.583247
 ---------------------------------------------------------------------
 Rotational constants (GHZ):           0.5862037           0.3308880           0.3116551
   427 basis functions,  1056 primitive gaussians,   461 cartesian basis functions
    77 alpha electrons       72 beta electrons
       nuclear repulsion energy      1642.7217560259 Hartrees.
 NAtoms=   29 NActive=   29 NUniq=   29 SFac= 1.00D+00 NAtFMM=   60 NAOKFM=F Big=F
 ExpMin= 1.40D-02 ExpMax= 4.32D+06 ExpMxC= 4.91D+03 IAcc=3 IRadAn=         5 AccDes= 0.00D+00
 Harris functional with IExCor= 1009 and IRadAn=       5 diagonalized for initial guess.
 HarFok:  IExCor= 1009 AccDes= 0.00D+00 IRadAn=         5 IDoV= 1 UseB2=F ITyADJ=14
 ICtDFT=  3500011 ScaDFX=  1.000000  1.000000  1.000000  1.000000
 FoFCou: FMM=F IPFlag=           0 FMFlag=      100000 FMFlg1=           0
         NFxFlg=           0 DoJE=T BraDBF=F KetDBF=T FulRan=T
         wScrn=  0.000000 ICntrl=       500 IOpCl=  0 I1Cent=   200000004 NGrid=           0
         NMat0=    1 NMatS0=      1 NMatT0=    0 NMatD0=    1 NMtDS0=    0 NMtDT0=    0
 Petite list used in FoFCou.
 Initial guess <Sx>= 0.0000 <Sy>= 0.0000 <Sz>= 2.5000 <S**2>= 8.7500 S= 2.5000
 EnCoef did   100 forward-backward iterations
 Restarting incremental Fock formation.
 SCF Done:  E(UPBE1PBE) =  -3033.11657928     A.U. after   21 cycles
            NFock= 21  Conv=0.56D-08     -V/T= 2.0021
 <Sx>= 0.0000 <Sy>= 0.0000 <Sz>= 2.5000 <S**2>= 8.7628 S= 2.5021
 <L.S>= 0.000000000000E+00
 Annihilation of the first spin contaminant:
 S**2 before annihilation     8.7628,   after     8.7501
 1\1\GINC-HOLY7C16310\SP\UPBE1PBE\Jul-CC-pVDZ\C8H16Cl3Fe1O1(6)\EKWAN\12
 -Feb-2020\0\\#t pop=none jul-cc-pvdz upbe1pbe\\theory_abbreviation pbe
 0\\0,6\O,0,-0.315503,-0.150886,-0.653688\C,0,-1.161974,-1.095449,-0.57
 0557\C,0,-3.181376,0.016597,0.0968\C,0,-2.348922,1.043613,-0.208339\C,
 0,-2.302623,1.63243,-1.586598\Fe,0,1.466031,0.080485,0.055268\Cl,0,2.0
 97507,1.990215,-0.796018\C,0,-1.556901,1.790165,0.823627\Cl,0,2.467832
 ,-1.718641,-0.706948\Cl,0,1.353602,0.07792,2.251876\H,0,-3.802551,-0.3
 74528,-0.706994\H,0,-2.176186,2.615106,1.203313\H,0,-1.262684,1.179553
 ,1.678075\H,0,-0.658866,2.23671,0.38889\H,0,-2.607523,2.685564,-1.5280
 37\H,0,-1.280072,1.621889,-1.978708\H,0,-2.97458,1.128081,-2.285871\C,
 0,-3.569351,-0.428537,1.480549\H,0,-4.488871,0.088518,1.78707\H,0,-3.7
 85122,-1.501048,1.519086\H,0,-2.807956,-0.2058,2.231715\C,0,-1.109147,
 -2.026701,0.603069\H,0,-1.997897,-2.652445,0.683502\H,0,-0.242725,-2.6
 79787,0.41778\H,0,-0.91676,-1.496108,1.535792\C,0,-1.726672,-1.623727,
 -1.859015\H,0,-0.946671,-2.283508,-2.267039\H,0,-2.633041,-2.212801,-1
 .71146\H,0,-1.891485,-0.826669,-2.583247\\Version=ES64L-G16RevA.03\HF=
 -3033.1165793\S2=8.762776\S2-1=0.\S2A=8.75005\RMSD=5.597e-09\PG=C01 [X
 (C8H16Cl3Fe1O1)]\\@


 IF YOU DON'T HAVE THE LAW - ARGUE THE FACTS.
 IF YOU DON'T HAVE THE FACTS - ARGUE THE LAW.
 IF YOU DON'T HAVE EITHER - POUND THE TABLE.
 Job cpu time:       0 days  1 hours 24 minutes 49.7 seconds.
 Elapsed time:       0 days  0 hours 21 minutes 45.9 seconds.
 File lengths (MBytes):  RWF=    173 Int=      0 D2E=      0 Chk=     13 Scr=      1
 Normal termination of Gaussian 16 at Wed Feb 12 07:02:26 2020.
 Initial command:
 /n/sw/g16_nehalem/g16/l1.exe "/scratch/Gau-66257.inp" -scrdir="/scratch/"
 Entering Link 1 = /n/sw/g16_nehalem/g16/l1.exe PID=     67609.
  
 Copyright (c) 1988,1990,1992,1993,1995,1998,2003,2009,2016,
            Gaussian, Inc.  All Rights Reserved.
  
 This is part of the Gaussian(R) 16 program.  It is based on
 the Gaussian(R) 09 system (copyright 2009, Gaussian, Inc.),
 the Gaussian(R) 03 system (copyright 2003, Gaussian, Inc.),
 the Gaussian(R) 98 system (copyright 1998, Gaussian, Inc.),
 the Gaussian(R) 94 system (copyright 1995, Gaussian, Inc.),
 the Gaussian 92(TM) system (copyright 1992, Gaussian, Inc.),
 the Gaussian 90(TM) system (copyright 1990, Gaussian, Inc.),
 the Gaussian 88(TM) system (copyright 1988, Gaussian, Inc.),
 the Gaussian 86(TM) system (copyright 1986, Carnegie Mellon
 University), and the Gaussian 82(TM) system (copyright 1983,
 Carnegie Mellon University). Gaussian is a federally registered
 trademark of Gaussian, Inc.
  
 This software contains proprietary and confidential information,
 including trade secrets, belonging to Gaussian, Inc.
  
 This software is provided under written license and may be
 used, copied, transmitted, or stored only in accord with that
 written license.
  
 The following legend is applicable only to US Government
 contracts under FAR:
  
                    RESTRICTED RIGHTS LEGEND
  
 Use, reproduction and disclosure by the US Government is
 subject to restrictions as set forth in subparagraphs (a)
 and (c) of the Commercial Computer Software - Restricted
 Rights clause in FAR 52.227-19.
  
 Gaussian, Inc.
 340 Quinnipiac St., Bldg. 40, Wallingford CT 06492
  
  
 ---------------------------------------------------------------
 Warning -- This program may not be used in any manner that
 competes with the business of Gaussian, Inc. or will provide
 assistance to any competitor of Gaussian, Inc.  The licensee
 of this program is prohibited from giving any competitor of
 Gaussian, Inc. access to this program.  By using this program,
 the user acknowledges that Gaussian, Inc. is engaged in the
 business of creating and licensing software in the field of
 computational chemistry and represents and warrants to the
 licensee that it is not a competitor of Gaussian, Inc. and that
 it will not use this program in any manner prohibited above.
 ---------------------------------------------------------------
  

 Cite this work as:
 Gaussian 16, Revision A.03,
 M. J. Frisch, G. W. Trucks, H. B. Schlegel, G. E. Scuseria, 
 M. A. Robb, J. R. Cheeseman, G. Scalmani, V. Barone, 
 G. A. Petersson, H. Nakatsuji, X. Li, M. Caricato, A. V. Marenich, 
 J. Bloino, B. G. Janesko, R. Gomperts, B. Mennucci, H. P. Hratchian, 
 J. V. Ortiz, A. F. Izmaylov, J. L. Sonnenberg, D. Williams-Young, 
 F. Ding, F. Lipparini, F. Egidi, J. Goings, B. Peng, A. Petrone, 
 T. Henderson, D. Ranasinghe, V. G. Zakrzewski, J. Gao, N. Rega, 
 G. Zheng, W. Liang, M. Hada, M. Ehara, K. Toyota, R. Fukuda, 
 J. Hasegawa, M. Ishida, T. Nakajima, Y. Honda, O. Kitao, H. Nakai, 
 T. Vreven, K. Throssell, J. A. Montgomery, Jr., J. E. Peralta, 
 F. Ogliaro, M. J. Bearpark, J. J. Heyd, E. N. Brothers, K. N. Kudin, 
 V. N. Staroverov, T. A. Keith, R. Kobayashi, J. Normand, 
 K. Raghavachari, A. P. Rendell, J. C. Burant, S. S. Iyengar, 
 J. Tomasi, M. Cossi, J. M. Millam, M. Klene, C. Adamo, R. Cammi, 
 J. W. Ochterski, R. L. Martin, K. Morokuma, O. Farkas, 
 J. B. Foresman, and D. J. Fox, Gaussian, Inc., Wallingford CT, 2016.
 
 ******************************************
 Gaussian 16:  ES64L-G16RevA.03 25-Dec-2016
                12-Feb-2020 
 ******************************************
 %chk=checkpoint.chk
 %mem=3GB
 %nprocshared=4
 Will use up to    4 processors via shared memory.
 ---------------------------------------------------------------------
 #t pop=none jul-cc-pvdz guess=read upbe1pbe empiricaldispersion=gd3bj
 ---------------------------------------------------------------------
 -----------------------------
 theory_abbreviation pbe0_d3bj
 -----------------------------
 Symbolic Z-matrix:
 Charge =  0 Multiplicity = 6
 O                    -0.3155   -0.15089  -0.65369 
 C                    -1.16197  -1.09545  -0.57056 
 C                    -3.18138   0.0166    0.0968 
 C                    -2.34892   1.04361  -0.20834 
 C                    -2.30262   1.63243  -1.5866 
 Fe                    1.46603   0.08049   0.05527 
 Cl                    2.09751   1.99022  -0.79602 
 C                    -1.5569    1.79017   0.82363 
 Cl                    2.46783  -1.71864  -0.70695 
 Cl                    1.3536    0.07792   2.25188 
 H                    -3.80255  -0.37453  -0.70699 
 H                    -2.17619   2.61511   1.20331 
 H                    -1.26268   1.17955   1.67808 
 H                    -0.65887   2.23671   0.38889 
 H                    -2.60752   2.68556  -1.52804 
 H                    -1.28007   1.62189  -1.97871 
 H                    -2.97458   1.12808  -2.28587 
 C                    -3.56935  -0.42854   1.48055 
 H                    -4.48887   0.08852   1.78707 
 H                    -3.78512  -1.50105   1.51909 
 H                    -2.80796  -0.2058    2.23172 
 C                    -1.10915  -2.0267    0.60307 
 H                    -1.9979   -2.65245   0.6835 
 H                    -0.24273  -2.67979   0.41778 
 H                    -0.91676  -1.49611   1.53579 
 C                    -1.72667  -1.62373  -1.85902 
 H                    -0.94667  -2.28351  -2.26704 
 H                    -2.63304  -2.2128   -1.71146 
 H                    -1.89149  -0.82667  -2.58325 
 
                    Distance matrix (angstroms):
                    1          2          3          4          5
     1  O    0.000000
     2  C    1.271072   0.000000
     3  C    2.967240   2.399999   0.000000
     4  C    2.399991   2.472981   1.356780   0.000000
     5  C    2.828283   3.126459   2.493382   1.499482   0.000000
     6  Fe   1.931325   2.946335   4.648032   3.943472   4.393974
     7  Cl   3.229116   4.494037   5.706040   4.583901   4.484882
     8  C    2.737007   3.229007   2.512517   1.499864   2.527878
     9  Cl   3.194941   3.685439   5.964110   5.574924   5.895821
    10  Cl   3.358655   3.958667   5.021368   4.549055   5.524343
    11  H    3.494619   2.740618   1.088541   2.091128   2.655441
    12  H    3.815928   4.235972   2.997837   2.119479   2.960615
    13  H    2.846812   3.200332   2.744864   2.181043   3.456105
    14  H    2.627828   3.503846   3.373022   2.153242   2.640008
    15  H    3.750105   4.159620   3.176915   2.122376   1.097946
    16  H    2.414291   3.062803   3.240317   2.147336   1.095204
    17  H    3.372013   3.342443   2.637287   2.171341   1.093104
    18  C    3.901229   3.232224   1.504470   2.551277   3.906351
    19  H    4.840621   4.245989   2.138160   3.077864   4.306388
    20  H    4.310701   3.378169   2.165792   3.394402   4.654220
    21  H    3.813252   3.369490   2.178707   2.779498   4.267782
    22  C    2.393322   1.499139   2.953897   3.409143   4.428122
    23  H    3.297927   2.166949   2.978024   3.818304   4.858638
    24  H    2.747486   2.081335   4.001148   4.323401   5.182270
    25  H    2.639120   2.158093   3.080172   3.397538   4.632244
    26  C    2.369277   1.502693   2.938033   3.197910   3.317904
    27  H    2.747608   2.082280   3.983983   4.156235   4.199545
    28  H    3.277401   2.171215   2.922446   3.597823   3.861420
    29  H    2.581395   2.157626   3.091532   3.057350   2.685053
                    6          7          8          9         10
     6  Fe   0.000000
     7  Cl   2.184152   0.000000
     8  C    3.556895   4.002245   0.000000
     9  Cl   2.195776   3.728362   5.554535   0.000000
    10  Cl   2.199485   3.674224   3.666430   3.636451   0.000000
    11  H    5.342849   6.356935   3.474427   6.412826   5.962008
    12  H    4.583455   4.759440   1.099183   6.633051   4.471711
    13  H    3.359663   4.250787   1.090638   5.291938   2.896169
    14  H    3.045619   3.010375   1.093099   5.159642   3.490146
    15  H    5.087940   4.812138   2.726879   6.769818   6.064492
    16  H    3.748875   3.597563   2.820999   5.179121   5.217080
    17  H    5.128101   5.356212   3.480969   6.341662   6.358234
    18  C    5.257908   6.568592   3.066617   6.549587   5.008683
    19  H    6.201618   7.325925   3.524241   7.608000   5.860943
    20  H    5.676145   7.221769   4.034937   6.640934   5.425551
    21  H    4.804773   6.168729   2.744399   6.225622   4.171267
    22  C    3.372219   5.326884   3.849363   3.821757   3.634986
    23  H    4.456723   6.365187   4.466643   4.769494   4.598612
    24  H    3.266552   5.362733   4.676777   3.088031   3.676563
    25  H    3.217964   5.165035   3.422945   4.066309   2.853924
    26  C    4.094163   5.367950   4.345118   4.350877   5.411388
    27  H    4.099110   5.449370   5.149700   3.796286   5.593585
    28  H    5.018255   6.393861   4.858856   5.222274   6.070318
    29  H    4.365502   5.200104   4.308893   4.829053   5.892986
                   11         12         13         14         15
    11  H    0.000000
    12  H    3.902851   0.000000
    13  H    3.815055   1.766550   0.000000
    14  H    4.231109   1.763159   1.773182   0.000000
    15  H    3.386202   2.766096   3.788907   2.770080   0.000000
    16  H    3.459167   3.451776   3.683480   2.523771   1.759726
    17  H    2.331571   3.875962   4.318114   3.707551   1.770536
    18  C    2.200601   3.358799   2.818809   4.094653   4.435575
    19  H    2.627889   3.474612   3.407421   4.608533   4.612380
    20  H    2.494952   4.430701   3.684236   5.002165   5.310312
    21  H    3.107040   3.068266   2.147926   3.739044   4.747199
    22  C    3.420580   4.800546   3.385155   4.292470   5.384439
    23  H    3.221671   5.296139   4.026651   5.077759   5.810068
    24  H    4.387676   5.691329   4.186068   4.934162   6.177820
    25  H    3.823064   4.312630   2.701679   3.913544   5.452716
    26  C    2.682708   5.248583   4.537033   4.593067   4.410831
    27  H    3.772797   6.127925   5.258952   5.250634   5.291146
    28  H    2.399157   5.658030   4.987473   5.301602   4.901864
    29  H    2.716050   5.124930   4.751756   4.442661   3.736571
                   16         17         18         19         20
    16  H    0.000000
    17  H    1.791522   0.000000
    18  C    4.627257   4.118584   0.000000
    19  H    5.179643   4.467954   1.098553   0.000000
    20  H    5.316256   4.695423   1.094679   1.758920   0.000000
    21  H    4.837617   4.713341   1.092513   1.763465   1.772106
    22  C    4.472918   4.666740   3.062140   4.159152   2.876846
    23  H    5.086508   4.905452   2.837344   3.864672   2.284314
    24  H    5.032262   5.410418   4.155002   5.250545   3.892413
    25  H    4.712283   5.072090   2.859895   3.915885   2.868415
    26  C    3.278384   3.051545   3.997078   4.884205   3.957756
    27  H    3.930193   3.968842   4.935968   5.882983   4.796227
    28  H    4.075143   3.407065   3.774811   4.580381   3.502900
    29  H    2.595136   2.254457   4.414542   5.165622   4.568346
                   21         22         23         24         25
    21  H    0.000000
    22  C    2.975587   0.000000
    23  H    3.006531   1.089909   0.000000
    24  H    3.998923   1.100700   1.775383   0.000000
    25  H    2.392870   1.090190   1.797880   1.762206   0.000000
    26  C    4.462484   2.570133   2.756123   2.915674   3.492414
    27  H    5.293396   2.886151   3.153868   2.803717   3.883609
    28  H    4.428011   2.777396   2.516453   3.235019   3.742180
    29  H    4.940572   3.493528   3.743852   3.893407   4.285408
                   26         27         28         29
    26  C    0.000000
    27  H    1.100089   0.000000
    28  H    1.091002   1.776939   0.000000
    29  H    1.089485   1.764948   1.797576   0.000000
 Framework group  C1[X(C8H16Cl3FeO)]
 Deg. of freedom    81
                         Standard orientation:                         
 ---------------------------------------------------------------------
 Center     Atomic      Atomic             Coordinates (Angstroms)
 Number     Number       Type             X           Y           Z
 ---------------------------------------------------------------------
      1          8           0       -0.315503   -0.150886   -0.653688
      2          6           0       -1.161974   -1.095449   -0.570557
      3          6           0       -3.181376    0.016597    0.096800
      4          6           0       -2.348922    1.043613   -0.208339
      5          6           0       -2.302623    1.632430   -1.586598
      6         26           0        1.466031    0.080485    0.055268
      7         17           0        2.097507    1.990215   -0.796018
      8          6           0       -1.556901    1.790165    0.823627
      9         17           0        2.467832   -1.718641   -0.706948
     10         17           0        1.353602    0.077920    2.251876
     11          1           0       -3.802551   -0.374528   -0.706994
     12          1           0       -2.176186    2.615106    1.203313
     13          1           0       -1.262684    1.179553    1.678075
     14          1           0       -0.658866    2.236710    0.388890
     15          1           0       -2.607523    2.685564   -1.528037
     16          1           0       -1.280072    1.621889   -1.978708
     17          1           0       -2.974580    1.128081   -2.285871
     18          6           0       -3.569351   -0.428537    1.480549
     19          1           0       -4.488871    0.088518    1.787070
     20          1           0       -3.785122   -1.501048    1.519086
     21          1           0       -2.807956   -0.205800    2.231715
     22          6           0       -1.109147   -2.026701    0.603069
     23          1           0       -1.997897   -2.652445    0.683502
     24          1           0       -0.242725   -2.679787    0.417780
     25          1           0       -0.916760   -1.496108    1.535792
     26          6           0       -1.726672   -1.623727   -1.859015
     27          1           0       -0.946671   -2.283508   -2.267039
     28          1           0       -2.633041   -2.212801   -1.711460
     29          1           0       -1.891485   -0.826669   -2.583247
 ---------------------------------------------------------------------
 Rotational constants (GHZ):           0.5862037           0.3308880           0.3116551
   427 basis functions,  1056 primitive gaussians,   461 cartesian basis functions
    77 alpha electrons       72 beta electrons
       nuclear repulsion energy      1642.7217560259 Hartrees.
 NAtoms=   29 NActive=   29 NUniq=   29 SFac= 1.00D+00 NAtFMM=   60 NAOKFM=F Big=F
 Nuclear repulsion after empirical dispersion term =     1642.6840410314 Hartrees.
 Initial guess from the checkpoint file:  "checkpoint.chk"
 B after Tr=     0.000000    0.000000    0.000000
         Rot=    1.000000    0.000000    0.000000    0.000000 Ang=   0.00 deg.
 Initial guess <Sx>= 0.0000 <Sy>= 0.0000 <Sz>= 2.5000 <S**2>= 8.7628 S= 2.5021
 SCF Done:  E(UPBE1PBE) =  -3033.15429427     A.U. after    1 cycles
            NFock=  1  Conv=0.20D-08     -V/T= 2.0021
 <Sx>= 0.0000 <Sy>= 0.0000 <Sz>= 2.5000 <S**2>= 8.7628 S= 2.5021
 <L.S>= 0.000000000000E+00
 Annihilation of the first spin contaminant:
 S**2 before annihilation     8.7628,   after     8.7501
 1\1\GINC-HOLY7C16310\SP\UPBE1PBE\Jul-CC-pVDZ\C8H16Cl3Fe1O1(6)\EKWAN\12
 -Feb-2020\0\\#t pop=none jul-cc-pvdz guess=read upbe1pbe empiricaldisp
 ersion=gd3bj\\theory_abbreviation pbe0_d3bj\\0,6\O,0,-0.315503,-0.1508
 86,-0.653688\C,0,-1.161974,-1.095449,-0.570557\C,0,-3.181376,0.016597,
 0.0968\C,0,-2.348922,1.043613,-0.208339\C,0,-2.302623,1.63243,-1.58659
 8\Fe,0,1.466031,0.080485,0.055268\Cl,0,2.097507,1.990215,-0.796018\C,0
 ,-1.556901,1.790165,0.823627\Cl,0,2.467832,-1.718641,-0.706948\Cl,0,1.
 353602,0.07792,2.251876\H,0,-3.802551,-0.374528,-0.706994\H,0,-2.17618
 6,2.615106,1.203313\H,0,-1.262684,1.179553,1.678075\H,0,-0.658866,2.23
 671,0.38889\H,0,-2.607523,2.685564,-1.528037\H,0,-1.280072,1.621889,-1
 .978708\H,0,-2.97458,1.128081,-2.285871\C,0,-3.569351,-0.428537,1.4805
 49\H,0,-4.488871,0.088518,1.78707\H,0,-3.785122,-1.501048,1.519086\H,0
 ,-2.807956,-0.2058,2.231715\C,0,-1.109147,-2.026701,0.603069\H,0,-1.99
 7897,-2.652445,0.683502\H,0,-0.242725,-2.679787,0.41778\H,0,-0.91676,-
 1.496108,1.535792\C,0,-1.726672,-1.623727,-1.859015\H,0,-0.946671,-2.2
 83508,-2.267039\H,0,-2.633041,-2.212801,-1.71146\H,0,-1.891485,-0.8266
 69,-2.583247\\Version=ES64L-G16RevA.03\HF=-3033.1542943\S2=8.762776\S2
 -1=0.\S2A=8.75005\RMSD=2.035e-09\PG=C01 [X(C8H16Cl3Fe1O1)]\\@


 TELEVISION IS CALLED A MEDIUM BECAUSE IT ISN'T
 RARE, AND IT ISN'T WELL DONE.
 Job cpu time:       0 days  0 hours  5 minutes 15.5 seconds.
 Elapsed time:       0 days  0 hours  1 minutes 45.6 seconds.
 File lengths (MBytes):  RWF=    170 Int=      0 D2E=      0 Chk=     13 Scr=      1
 Normal termination of Gaussian 16 at Wed Feb 12 07:04:13 2020.
 Initial command:
 /n/sw/g16_nehalem/g16/l1.exe "/scratch/Gau-66257.inp" -scrdir="/scratch/"
 Entering Link 1 = /n/sw/g16_nehalem/g16/l1.exe PID=     67771.
  
 Copyright (c) 1988,1990,1992,1993,1995,1998,2003,2009,2016,
            Gaussian, Inc.  All Rights Reserved.
  
 This is part of the Gaussian(R) 16 program.  It is based on
 the Gaussian(R) 09 system (copyright 2009, Gaussian, Inc.),
 the Gaussian(R) 03 system (copyright 2003, Gaussian, Inc.),
 the Gaussian(R) 98 system (copyright 1998, Gaussian, Inc.),
 the Gaussian(R) 94 system (copyright 1995, Gaussian, Inc.),
 the Gaussian 92(TM) system (copyright 1992, Gaussian, Inc.),
 the Gaussian 90(TM) system (copyright 1990, Gaussian, Inc.),
 the Gaussian 88(TM) system (copyright 1988, Gaussian, Inc.),
 the Gaussian 86(TM) system (copyright 1986, Carnegie Mellon
 University), and the Gaussian 82(TM) system (copyright 1983,
 Carnegie Mellon University). Gaussian is a federally registered
 trademark of Gaussian, Inc.
  
 This software contains proprietary and confidential information,
 including trade secrets, belonging to Gaussian, Inc.
  
 This software is provided under written license and may be
 used, copied, transmitted, or stored only in accord with that
 written license.
  
 The following legend is applicable only to US Government
 contracts under FAR:
  
                    RESTRICTED RIGHTS LEGEND
  
 Use, reproduction and disclosure by the US Government is
 subject to restrictions as set forth in subparagraphs (a)
 and (c) of the Commercial Computer Software - Restricted
 Rights clause in FAR 52.227-19.
  
 Gaussian, Inc.
 340 Quinnipiac St., Bldg. 40, Wallingford CT 06492
  
  
 ---------------------------------------------------------------
 Warning -- This program may not be used in any manner that
 competes with the business of Gaussian, Inc. or will provide
 assistance to any competitor of Gaussian, Inc.  The licensee
 of this program is prohibited from giving any competitor of
 Gaussian, Inc. access to this program.  By using this program,
 the user acknowledges that Gaussian, Inc. is engaged in the
 business of creating and licensing software in the field of
 computational chemistry and represents and warrants to the
 licensee that it is not a competitor of Gaussian, Inc. and that
 it will not use this program in any manner prohibited above.
 ---------------------------------------------------------------
  

 Cite this work as:
 Gaussian 16, Revision A.03,
 M. J. Frisch, G. W. Trucks, H. B. Schlegel, G. E. Scuseria, 
 M. A. Robb, J. R. Cheeseman, G. Scalmani, V. Barone, 
 G. A. Petersson, H. Nakatsuji, X. Li, M. Caricato, A. V. Marenich, 
 J. Bloino, B. G. Janesko, R. Gomperts, B. Mennucci, H. P. Hratchian, 
 J. V. Ortiz, A. F. Izmaylov, J. L. Sonnenberg, D. Williams-Young, 
 F. Ding, F. Lipparini, F. Egidi, J. Goings, B. Peng, A. Petrone, 
 T. Henderson, D. Ranasinghe, V. G. Zakrzewski, J. Gao, N. Rega, 
 G. Zheng, W. Liang, M. Hada, M. Ehara, K. Toyota, R. Fukuda, 
 J. Hasegawa, M. Ishida, T. Nakajima, Y. Honda, O. Kitao, H. Nakai, 
 T. Vreven, K. Throssell, J. A. Montgomery, Jr., J. E. Peralta, 
 F. Ogliaro, M. J. Bearpark, J. J. Heyd, E. N. Brothers, K. N. Kudin, 
 V. N. Staroverov, T. A. Keith, R. Kobayashi, J. Normand, 
 K. Raghavachari, A. P. Rendell, J. C. Burant, S. S. Iyengar, 
 J. Tomasi, M. Cossi, J. M. Millam, M. Klene, C. Adamo, R. Cammi, 
 J. W. Ochterski, R. L. Martin, K. Morokuma, O. Farkas, 
 J. B. Foresman, and D. J. Fox, Gaussian, Inc., Wallingford CT, 2016.
 
 ******************************************
 Gaussian 16:  ES64L-G16RevA.03 25-Dec-2016
                12-Feb-2020 
 ******************************************
 %chk=checkpoint.chk
 %mem=3GB
 %nprocshared=4
 Will use up to    4 processors via shared memory.
 -----------------------------------------
 #t pop=none jul-cc-pvdz guess=read ub3lyp
 -----------------------------------------
 -------------------------
 theory_abbreviation b3lyp
 -------------------------
 Symbolic Z-matrix:
 Charge =  0 Multiplicity = 6
 O                    -0.3155   -0.15089  -0.65369 
 C                    -1.16197  -1.09545  -0.57056 
 C                    -3.18138   0.0166    0.0968 
 C                    -2.34892   1.04361  -0.20834 
 C                    -2.30262   1.63243  -1.5866 
 Fe                    1.46603   0.08049   0.05527 
 Cl                    2.09751   1.99022  -0.79602 
 C                    -1.5569    1.79017   0.82363 
 Cl                    2.46783  -1.71864  -0.70695 
 Cl                    1.3536    0.07792   2.25188 
 H                    -3.80255  -0.37453  -0.70699 
 H                    -2.17619   2.61511   1.20331 
 H                    -1.26268   1.17955   1.67808 
 H                    -0.65887   2.23671   0.38889 
 H                    -2.60752   2.68556  -1.52804 
 H                    -1.28007   1.62189  -1.97871 
 H                    -2.97458   1.12808  -2.28587 
 C                    -3.56935  -0.42854   1.48055 
 H                    -4.48887   0.08852   1.78707 
 H                    -3.78512  -1.50105   1.51909 
 H                    -2.80796  -0.2058    2.23172 
 C                    -1.10915  -2.0267    0.60307 
 H                    -1.9979   -2.65245   0.6835 
 H                    -0.24273  -2.67979   0.41778 
 H                    -0.91676  -1.49611   1.53579 
 C                    -1.72667  -1.62373  -1.85902 
 H                    -0.94667  -2.28351  -2.26704 
 H                    -2.63304  -2.2128   -1.71146 
 H                    -1.89149  -0.82667  -2.58325 
 
                    Distance matrix (angstroms):
                    1          2          3          4          5
     1  O    0.000000
     2  C    1.271072   0.000000
     3  C    2.967240   2.399999   0.000000
     4  C    2.399991   2.472981   1.356780   0.000000
     5  C    2.828283   3.126459   2.493382   1.499482   0.000000
     6  Fe   1.931325   2.946335   4.648032   3.943472   4.393974
     7  Cl   3.229116   4.494037   5.706040   4.583901   4.484882
     8  C    2.737007   3.229007   2.512517   1.499864   2.527878
     9  Cl   3.194941   3.685439   5.964110   5.574924   5.895821
    10  Cl   3.358655   3.958667   5.021368   4.549055   5.524343
    11  H    3.494619   2.740618   1.088541   2.091128   2.655441
    12  H    3.815928   4.235972   2.997837   2.119479   2.960615
    13  H    2.846812   3.200332   2.744864   2.181043   3.456105
    14  H    2.627828   3.503846   3.373022   2.153242   2.640008
    15  H    3.750105   4.159620   3.176915   2.122376   1.097946
    16  H    2.414291   3.062803   3.240317   2.147336   1.095204
    17  H    3.372013   3.342443   2.637287   2.171341   1.093104
    18  C    3.901229   3.232224   1.504470   2.551277   3.906351
    19  H    4.840621   4.245989   2.138160   3.077864   4.306388
    20  H    4.310701   3.378169   2.165792   3.394402   4.654220
    21  H    3.813252   3.369490   2.178707   2.779498   4.267782
    22  C    2.393322   1.499139   2.953897   3.409143   4.428122
    23  H    3.297927   2.166949   2.978024   3.818304   4.858638
    24  H    2.747486   2.081335   4.001148   4.323401   5.182270
    25  H    2.639120   2.158093   3.080172   3.397538   4.632244
    26  C    2.369277   1.502693   2.938033   3.197910   3.317904
    27  H    2.747608   2.082280   3.983983   4.156235   4.199545
    28  H    3.277401   2.171215   2.922446   3.597823   3.861420
    29  H    2.581395   2.157626   3.091532   3.057350   2.685053
                    6          7          8          9         10
     6  Fe   0.000000
     7  Cl   2.184152   0.000000
     8  C    3.556895   4.002245   0.000000
     9  Cl   2.195776   3.728362   5.554535   0.000000
    10  Cl   2.199485   3.674224   3.666430   3.636451   0.000000
    11  H    5.342849   6.356935   3.474427   6.412826   5.962008
    12  H    4.583455   4.759440   1.099183   6.633051   4.471711
    13  H    3.359663   4.250787   1.090638   5.291938   2.896169
    14  H    3.045619   3.010375   1.093099   5.159642   3.490146
    15  H    5.087940   4.812138   2.726879   6.769818   6.064492
    16  H    3.748875   3.597563   2.820999   5.179121   5.217080
    17  H    5.128101   5.356212   3.480969   6.341662   6.358234
    18  C    5.257908   6.568592   3.066617   6.549587   5.008683
    19  H    6.201618   7.325925   3.524241   7.608000   5.860943
    20  H    5.676145   7.221769   4.034937   6.640934   5.425551
    21  H    4.804773   6.168729   2.744399   6.225622   4.171267
    22  C    3.372219   5.326884   3.849363   3.821757   3.634986
    23  H    4.456723   6.365187   4.466643   4.769494   4.598612
    24  H    3.266552   5.362733   4.676777   3.088031   3.676563
    25  H    3.217964   5.165035   3.422945   4.066309   2.853924
    26  C    4.094163   5.367950   4.345118   4.350877   5.411388
    27  H    4.099110   5.449370   5.149700   3.796286   5.593585
    28  H    5.018255   6.393861   4.858856   5.222274   6.070318
    29  H    4.365502   5.200104   4.308893   4.829053   5.892986
                   11         12         13         14         15
    11  H    0.000000
    12  H    3.902851   0.000000
    13  H    3.815055   1.766550   0.000000
    14  H    4.231109   1.763159   1.773182   0.000000
    15  H    3.386202   2.766096   3.788907   2.770080   0.000000
    16  H    3.459167   3.451776   3.683480   2.523771   1.759726
    17  H    2.331571   3.875962   4.318114   3.707551   1.770536
    18  C    2.200601   3.358799   2.818809   4.094653   4.435575
    19  H    2.627889   3.474612   3.407421   4.608533   4.612380
    20  H    2.494952   4.430701   3.684236   5.002165   5.310312
    21  H    3.107040   3.068266   2.147926   3.739044   4.747199
    22  C    3.420580   4.800546   3.385155   4.292470   5.384439
    23  H    3.221671   5.296139   4.026651   5.077759   5.810068
    24  H    4.387676   5.691329   4.186068   4.934162   6.177820
    25  H    3.823064   4.312630   2.701679   3.913544   5.452716
    26  C    2.682708   5.248583   4.537033   4.593067   4.410831
    27  H    3.772797   6.127925   5.258952   5.250634   5.291146
    28  H    2.399157   5.658030   4.987473   5.301602   4.901864
    29  H    2.716050   5.124930   4.751756   4.442661   3.736571
                   16         17         18         19         20
    16  H    0.000000
    17  H    1.791522   0.000000
    18  C    4.627257   4.118584   0.000000
    19  H    5.179643   4.467954   1.098553   0.000000
    20  H    5.316256   4.695423   1.094679   1.758920   0.000000
    21  H    4.837617   4.713341   1.092513   1.763465   1.772106
    22  C    4.472918   4.666740   3.062140   4.159152   2.876846
    23  H    5.086508   4.905452   2.837344   3.864672   2.284314
    24  H    5.032262   5.410418   4.155002   5.250545   3.892413
    25  H    4.712283   5.072090   2.859895   3.915885   2.868415
    26  C    3.278384   3.051545   3.997078   4.884205   3.957756
    27  H    3.930193   3.968842   4.935968   5.882983   4.796227
    28  H    4.075143   3.407065   3.774811   4.580381   3.502900
    29  H    2.595136   2.254457   4.414542   5.165622   4.568346
                   21         22         23         24         25
    21  H    0.000000
    22  C    2.975587   0.000000
    23  H    3.006531   1.089909   0.000000
    24  H    3.998923   1.100700   1.775383   0.000000
    25  H    2.392870   1.090190   1.797880   1.762206   0.000000
    26  C    4.462484   2.570133   2.756123   2.915674   3.492414
    27  H    5.293396   2.886151   3.153868   2.803717   3.883609
    28  H    4.428011   2.777396   2.516453   3.235019   3.742180
    29  H    4.940572   3.493528   3.743852   3.893407   4.285408
                   26         27         28         29
    26  C    0.000000
    27  H    1.100089   0.000000
    28  H    1.091002   1.776939   0.000000
    29  H    1.089485   1.764948   1.797576   0.000000
 Framework group  C1[X(C8H16Cl3FeO)]
 Deg. of freedom    81
                         Standard orientation:                         
 ---------------------------------------------------------------------
 Center     Atomic      Atomic             Coordinates (Angstroms)
 Number     Number       Type             X           Y           Z
 ---------------------------------------------------------------------
      1          8           0       -0.315503   -0.150886   -0.653688
      2          6           0       -1.161974   -1.095449   -0.570557
      3          6           0       -3.181376    0.016597    0.096800
      4          6           0       -2.348922    1.043613   -0.208339
      5          6           0       -2.302623    1.632430   -1.586598
      6         26           0        1.466031    0.080485    0.055268
      7         17           0        2.097507    1.990215   -0.796018
      8          6           0       -1.556901    1.790165    0.823627
      9         17           0        2.467832   -1.718641   -0.706948
     10         17           0        1.353602    0.077920    2.251876
     11          1           0       -3.802551   -0.374528   -0.706994
     12          1           0       -2.176186    2.615106    1.203313
     13          1           0       -1.262684    1.179553    1.678075
     14          1           0       -0.658866    2.236710    0.388890
     15          1           0       -2.607523    2.685564   -1.528037
     16          1           0       -1.280072    1.621889   -1.978708
     17          1           0       -2.974580    1.128081   -2.285871
     18          6           0       -3.569351   -0.428537    1.480549
     19          1           0       -4.488871    0.088518    1.787070
     20          1           0       -3.785122   -1.501048    1.519086
     21          1           0       -2.807956   -0.205800    2.231715
     22          6           0       -1.109147   -2.026701    0.603069
     23          1           0       -1.997897   -2.652445    0.683502
     24          1           0       -0.242725   -2.679787    0.417780
     25          1           0       -0.916760   -1.496108    1.535792
     26          6           0       -1.726672   -1.623727   -1.859015
     27          1           0       -0.946671   -2.283508   -2.267039
     28          1           0       -2.633041   -2.212801   -1.711460
     29          1           0       -1.891485   -0.826669   -2.583247
 ---------------------------------------------------------------------
 Rotational constants (GHZ):           0.5862037           0.3308880           0.3116551
   427 basis functions,  1056 primitive gaussians,   461 cartesian basis functions
    77 alpha electrons       72 beta electrons
       nuclear repulsion energy      1642.7217560259 Hartrees.
 NAtoms=   29 NActive=   29 NUniq=   29 SFac= 1.00D+00 NAtFMM=   60 NAOKFM=F Big=F
 Initial guess from the checkpoint file:  "checkpoint.chk"
 B after Tr=     0.000000    0.000000    0.000000
         Rot=    1.000000    0.000000    0.000000    0.000000 Ang=   0.00 deg.
 Initial guess <Sx>= 0.0000 <Sy>= 0.0000 <Sz>= 2.5000 <S**2>= 8.7628 S= 2.5021
 SCF Done:  E(UB3LYP) =  -3034.33210336     A.U. after   13 cycles
            NFock= 13  Conv=0.90D-08     -V/T= 2.0024
 <Sx>= 0.0000 <Sy>= 0.0000 <Sz>= 2.5000 <S**2>= 8.7620 S= 2.5020
 <L.S>= 0.000000000000E+00
 Annihilation of the first spin contaminant:
 S**2 before annihilation     8.7620,   after     8.7500
 1\1\GINC-HOLY7C16310\SP\UB3LYP\Jul-CC-pVDZ\C8H16Cl3Fe1O1(6)\EKWAN\12-F
 eb-2020\0\\#t pop=none jul-cc-pvdz guess=read ub3lyp\\theory_abbreviat
 ion b3lyp\\0,6\O,0,-0.315503,-0.150886,-0.653688\C,0,-1.161974,-1.0954
 49,-0.570557\C,0,-3.181376,0.016597,0.0968\C,0,-2.348922,1.043613,-0.2
 08339\C,0,-2.302623,1.63243,-1.586598\Fe,0,1.466031,0.080485,0.055268\
 Cl,0,2.097507,1.990215,-0.796018\C,0,-1.556901,1.790165,0.823627\Cl,0,
 2.467832,-1.718641,-0.706948\Cl,0,1.353602,0.07792,2.251876\H,0,-3.802
 551,-0.374528,-0.706994\H,0,-2.176186,2.615106,1.203313\H,0,-1.262684,
 1.179553,1.678075\H,0,-0.658866,2.23671,0.38889\H,0,-2.607523,2.685564
 ,-1.528037\H,0,-1.280072,1.621889,-1.978708\H,0,-2.97458,1.128081,-2.2
 85871\C,0,-3.569351,-0.428537,1.480549\H,0,-4.488871,0.088518,1.78707\
 H,0,-3.785122,-1.501048,1.519086\H,0,-2.807956,-0.2058,2.231715\C,0,-1
 .109147,-2.026701,0.603069\H,0,-1.997897,-2.652445,0.683502\H,0,-0.242
 725,-2.679787,0.41778\H,0,-0.91676,-1.496108,1.535792\C,0,-1.726672,-1
 .623727,-1.859015\H,0,-0.946671,-2.283508,-2.267039\H,0,-2.633041,-2.2
 12801,-1.71146\H,0,-1.891485,-0.826669,-2.583247\\Version=ES64L-G16Rev
 A.03\HF=-3034.3321034\S2=8.762038\S2-1=0.\S2A=8.750045\RMSD=9.014e-09\
 PG=C01 [X(C8H16Cl3Fe1O1)]\\@


 Luck is a matter of preparation meeting opportunity.
                                    -- Oprah Winfrey
 Job cpu time:       0 days  0 hours 52 minutes 33.6 seconds.
 Elapsed time:       0 days  0 hours 14 minutes  9.5 seconds.
 File lengths (MBytes):  RWF=    174 Int=      0 D2E=      0 Chk=     13 Scr=      1
 Normal termination of Gaussian 16 at Wed Feb 12 07:18:23 2020.
 Initial command:
 /n/sw/g16_nehalem/g16/l1.exe "/scratch/Gau-66257.inp" -scrdir="/scratch/"
 Entering Link 1 = /n/sw/g16_nehalem/g16/l1.exe PID=     68715.
  
 Copyright (c) 1988,1990,1992,1993,1995,1998,2003,2009,2016,
            Gaussian, Inc.  All Rights Reserved.
  
 This is part of the Gaussian(R) 16 program.  It is based on
 the Gaussian(R) 09 system (copyright 2009, Gaussian, Inc.),
 the Gaussian(R) 03 system (copyright 2003, Gaussian, Inc.),
 the Gaussian(R) 98 system (copyright 1998, Gaussian, Inc.),
 the Gaussian(R) 94 system (copyright 1995, Gaussian, Inc.),
 the Gaussian 92(TM) system (copyright 1992, Gaussian, Inc.),
 the Gaussian 90(TM) system (copyright 1990, Gaussian, Inc.),
 the Gaussian 88(TM) system (copyright 1988, Gaussian, Inc.),
 the Gaussian 86(TM) system (copyright 1986, Carnegie Mellon
 University), and the Gaussian 82(TM) system (copyright 1983,
 Carnegie Mellon University). Gaussian is a federally registered
 trademark of Gaussian, Inc.
  
 This software contains proprietary and confidential information,
 including trade secrets, belonging to Gaussian, Inc.
  
 This software is provided under written license and may be
 used, copied, transmitted, or stored only in accord with that
 written license.
  
 The following legend is applicable only to US Government
 contracts under FAR:
  
                    RESTRICTED RIGHTS LEGEND
  
 Use, reproduction and disclosure by the US Government is
 subject to restrictions as set forth in subparagraphs (a)
 and (c) of the Commercial Computer Software - Restricted
 Rights clause in FAR 52.227-19.
  
 Gaussian, Inc.
 340 Quinnipiac St., Bldg. 40, Wallingford CT 06492
  
  
 ---------------------------------------------------------------
 Warning -- This program may not be used in any manner that
 competes with the business of Gaussian, Inc. or will provide
 assistance to any competitor of Gaussian, Inc.  The licensee
 of this program is prohibited from giving any competitor of
 Gaussian, Inc. access to this program.  By using this program,
 the user acknowledges that Gaussian, Inc. is engaged in the
 business of creating and licensing software in the field of
 computational chemistry and represents and warrants to the
 licensee that it is not a competitor of Gaussian, Inc. and that
 it will not use this program in any manner prohibited above.
 ---------------------------------------------------------------
  

 Cite this work as:
 Gaussian 16, Revision A.03,
 M. J. Frisch, G. W. Trucks, H. B. Schlegel, G. E. Scuseria, 
 M. A. Robb, J. R. Cheeseman, G. Scalmani, V. Barone, 
 G. A. Petersson, H. Nakatsuji, X. Li, M. Caricato, A. V. Marenich, 
 J. Bloino, B. G. Janesko, R. Gomperts, B. Mennucci, H. P. Hratchian, 
 J. V. Ortiz, A. F. Izmaylov, J. L. Sonnenberg, D. Williams-Young, 
 F. Ding, F. Lipparini, F. Egidi, J. Goings, B. Peng, A. Petrone, 
 T. Henderson, D. Ranasinghe, V. G. Zakrzewski, J. Gao, N. Rega, 
 G. Zheng, W. Liang, M. Hada, M. Ehara, K. Toyota, R. Fukuda, 
 J. Hasegawa, M. Ishida, T. Nakajima, Y. Honda, O. Kitao, H. Nakai, 
 T. Vreven, K. Throssell, J. A. Montgomery, Jr., J. E. Peralta, 
 F. Ogliaro, M. J. Bearpark, J. J. Heyd, E. N. Brothers, K. N. Kudin, 
 V. N. Staroverov, T. A. Keith, R. Kobayashi, J. Normand, 
 K. Raghavachari, A. P. Rendell, J. C. Burant, S. S. Iyengar, 
 J. Tomasi, M. Cossi, J. M. Millam, M. Klene, C. Adamo, R. Cammi, 
 J. W. Ochterski, R. L. Martin, K. Morokuma, O. Farkas, 
 J. B. Foresman, and D. J. Fox, Gaussian, Inc., Wallingford CT, 2016.
 
 ******************************************
 Gaussian 16:  ES64L-G16RevA.03 25-Dec-2016
                12-Feb-2020 
 ******************************************
 %chk=checkpoint.chk
 %mem=3GB
 %nprocshared=4
 Will use up to    4 processors via shared memory.
 -------------------------------------------------------------------
 #t pop=none jul-cc-pvdz guess=read ub3lyp empiricaldispersion=gd3bj
 -------------------------------------------------------------------
 ------------------------------
 theory_abbreviation b3lyp_d3bj
 ------------------------------
 Symbolic Z-matrix:
 Charge =  0 Multiplicity = 6
 O                    -0.3155   -0.15089  -0.65369 
 C                    -1.16197  -1.09545  -0.57056 
 C                    -3.18138   0.0166    0.0968 
 C                    -2.34892   1.04361  -0.20834 
 C                    -2.30262   1.63243  -1.5866 
 Fe                    1.46603   0.08049   0.05527 
 Cl                    2.09751   1.99022  -0.79602 
 C                    -1.5569    1.79017   0.82363 
 Cl                    2.46783  -1.71864  -0.70695 
 Cl                    1.3536    0.07792   2.25188 
 H                    -3.80255  -0.37453  -0.70699 
 H                    -2.17619   2.61511   1.20331 
 H                    -1.26268   1.17955   1.67808 
 H                    -0.65887   2.23671   0.38889 
 H                    -2.60752   2.68556  -1.52804 
 H                    -1.28007   1.62189  -1.97871 
 H                    -2.97458   1.12808  -2.28587 
 C                    -3.56935  -0.42854   1.48055 
 H                    -4.48887   0.08852   1.78707 
 H                    -3.78512  -1.50105   1.51909 
 H                    -2.80796  -0.2058    2.23172 
 C                    -1.10915  -2.0267    0.60307 
 H                    -1.9979   -2.65245   0.6835 
 H                    -0.24273  -2.67979   0.41778 
 H                    -0.91676  -1.49611   1.53579 
 C                    -1.72667  -1.62373  -1.85902 
 H                    -0.94667  -2.28351  -2.26704 
 H                    -2.63304  -2.2128   -1.71146 
 H                    -1.89149  -0.82667  -2.58325 
 
                    Distance matrix (angstroms):
                    1          2          3          4          5
     1  O    0.000000
     2  C    1.271072   0.000000
     3  C    2.967240   2.399999   0.000000
     4  C    2.399991   2.472981   1.356780   0.000000
     5  C    2.828283   3.126459   2.493382   1.499482   0.000000
     6  Fe   1.931325   2.946335   4.648032   3.943472   4.393974
     7  Cl   3.229116   4.494037   5.706040   4.583901   4.484882
     8  C    2.737007   3.229007   2.512517   1.499864   2.527878
     9  Cl   3.194941   3.685439   5.964110   5.574924   5.895821
    10  Cl   3.358655   3.958667   5.021368   4.549055   5.524343
    11  H    3.494619   2.740618   1.088541   2.091128   2.655441
    12  H    3.815928   4.235972   2.997837   2.119479   2.960615
    13  H    2.846812   3.200332   2.744864   2.181043   3.456105
    14  H    2.627828   3.503846   3.373022   2.153242   2.640008
    15  H    3.750105   4.159620   3.176915   2.122376   1.097946
    16  H    2.414291   3.062803   3.240317   2.147336   1.095204
    17  H    3.372013   3.342443   2.637287   2.171341   1.093104
    18  C    3.901229   3.232224   1.504470   2.551277   3.906351
    19  H    4.840621   4.245989   2.138160   3.077864   4.306388
    20  H    4.310701   3.378169   2.165792   3.394402   4.654220
    21  H    3.813252   3.369490   2.178707   2.779498   4.267782
    22  C    2.393322   1.499139   2.953897   3.409143   4.428122
    23  H    3.297927   2.166949   2.978024   3.818304   4.858638
    24  H    2.747486   2.081335   4.001148   4.323401   5.182270
    25  H    2.639120   2.158093   3.080172   3.397538   4.632244
    26  C    2.369277   1.502693   2.938033   3.197910   3.317904
    27  H    2.747608   2.082280   3.983983   4.156235   4.199545
    28  H    3.277401   2.171215   2.922446   3.597823   3.861420
    29  H    2.581395   2.157626   3.091532   3.057350   2.685053
                    6          7          8          9         10
     6  Fe   0.000000
     7  Cl   2.184152   0.000000
     8  C    3.556895   4.002245   0.000000
     9  Cl   2.195776   3.728362   5.554535   0.000000
    10  Cl   2.199485   3.674224   3.666430   3.636451   0.000000
    11  H    5.342849   6.356935   3.474427   6.412826   5.962008
    12  H    4.583455   4.759440   1.099183   6.633051   4.471711
    13  H    3.359663   4.250787   1.090638   5.291938   2.896169
    14  H    3.045619   3.010375   1.093099   5.159642   3.490146
    15  H    5.087940   4.812138   2.726879   6.769818   6.064492
    16  H    3.748875   3.597563   2.820999   5.179121   5.217080
    17  H    5.128101   5.356212   3.480969   6.341662   6.358234
    18  C    5.257908   6.568592   3.066617   6.549587   5.008683
    19  H    6.201618   7.325925   3.524241   7.608000   5.860943
    20  H    5.676145   7.221769   4.034937   6.640934   5.425551
    21  H    4.804773   6.168729   2.744399   6.225622   4.171267
    22  C    3.372219   5.326884   3.849363   3.821757   3.634986
    23  H    4.456723   6.365187   4.466643   4.769494   4.598612
    24  H    3.266552   5.362733   4.676777   3.088031   3.676563
    25  H    3.217964   5.165035   3.422945   4.066309   2.853924
    26  C    4.094163   5.367950   4.345118   4.350877   5.411388
    27  H    4.099110   5.449370   5.149700   3.796286   5.593585
    28  H    5.018255   6.393861   4.858856   5.222274   6.070318
    29  H    4.365502   5.200104   4.308893   4.829053   5.892986
                   11         12         13         14         15
    11  H    0.000000
    12  H    3.902851   0.000000
    13  H    3.815055   1.766550   0.000000
    14  H    4.231109   1.763159   1.773182   0.000000
    15  H    3.386202   2.766096   3.788907   2.770080   0.000000
    16  H    3.459167   3.451776   3.683480   2.523771   1.759726
    17  H    2.331571   3.875962   4.318114   3.707551   1.770536
    18  C    2.200601   3.358799   2.818809   4.094653   4.435575
    19  H    2.627889   3.474612   3.407421   4.608533   4.612380
    20  H    2.494952   4.430701   3.684236   5.002165   5.310312
    21  H    3.107040   3.068266   2.147926   3.739044   4.747199
    22  C    3.420580   4.800546   3.385155   4.292470   5.384439
    23  H    3.221671   5.296139   4.026651   5.077759   5.810068
    24  H    4.387676   5.691329   4.186068   4.934162   6.177820
    25  H    3.823064   4.312630   2.701679   3.913544   5.452716
    26  C    2.682708   5.248583   4.537033   4.593067   4.410831
    27  H    3.772797   6.127925   5.258952   5.250634   5.291146
    28  H    2.399157   5.658030   4.987473   5.301602   4.901864
    29  H    2.716050   5.124930   4.751756   4.442661   3.736571
                   16         17         18         19         20
    16  H    0.000000
    17  H    1.791522   0.000000
    18  C    4.627257   4.118584   0.000000
    19  H    5.179643   4.467954   1.098553   0.000000
    20  H    5.316256   4.695423   1.094679   1.758920   0.000000
    21  H    4.837617   4.713341   1.092513   1.763465   1.772106
    22  C    4.472918   4.666740   3.062140   4.159152   2.876846
    23  H    5.086508   4.905452   2.837344   3.864672   2.284314
    24  H    5.032262   5.410418   4.155002   5.250545   3.892413
    25  H    4.712283   5.072090   2.859895   3.915885   2.868415
    26  C    3.278384   3.051545   3.997078   4.884205   3.957756
    27  H    3.930193   3.968842   4.935968   5.882983   4.796227
    28  H    4.075143   3.407065   3.774811   4.580381   3.502900
    29  H    2.595136   2.254457   4.414542   5.165622   4.568346
                   21         22         23         24         25
    21  H    0.000000
    22  C    2.975587   0.000000
    23  H    3.006531   1.089909   0.000000
    24  H    3.998923   1.100700   1.775383   0.000000
    25  H    2.392870   1.090190   1.797880   1.762206   0.000000
    26  C    4.462484   2.570133   2.756123   2.915674   3.492414
    27  H    5.293396   2.886151   3.153868   2.803717   3.883609
    28  H    4.428011   2.777396   2.516453   3.235019   3.742180
    29  H    4.940572   3.493528   3.743852   3.893407   4.285408
                   26         27         28         29
    26  C    0.000000
    27  H    1.100089   0.000000
    28  H    1.091002   1.776939   0.000000
    29  H    1.089485   1.764948   1.797576   0.000000
 Framework group  C1[X(C8H16Cl3FeO)]
 Deg. of freedom    81
                         Standard orientation:                         
 ---------------------------------------------------------------------
 Center     Atomic      Atomic             Coordinates (Angstroms)
 Number     Number       Type             X           Y           Z
 ---------------------------------------------------------------------
      1          8           0       -0.315503   -0.150886   -0.653688
      2          6           0       -1.161974   -1.095449   -0.570557
      3          6           0       -3.181376    0.016597    0.096800
      4          6           0       -2.348922    1.043613   -0.208339
      5          6           0       -2.302623    1.632430   -1.586598
      6         26           0        1.466031    0.080485    0.055268
      7         17           0        2.097507    1.990215   -0.796018
      8          6           0       -1.556901    1.790165    0.823627
      9         17           0        2.467832   -1.718641   -0.706948
     10         17           0        1.353602    0.077920    2.251876
     11          1           0       -3.802551   -0.374528   -0.706994
     12          1           0       -2.176186    2.615106    1.203313
     13          1           0       -1.262684    1.179553    1.678075
     14          1           0       -0.658866    2.236710    0.388890
     15          1           0       -2.607523    2.685564   -1.528037
     16          1           0       -1.280072    1.621889   -1.978708
     17          1           0       -2.974580    1.128081   -2.285871
     18          6           0       -3.569351   -0.428537    1.480549
     19          1           0       -4.488871    0.088518    1.787070
     20          1           0       -3.785122   -1.501048    1.519086
     21          1           0       -2.807956   -0.205800    2.231715
     22          6           0       -1.109147   -2.026701    0.603069
     23          1           0       -1.997897   -2.652445    0.683502
     24          1           0       -0.242725   -2.679787    0.417780
     25          1           0       -0.916760   -1.496108    1.535792
     26          6           0       -1.726672   -1.623727   -1.859015
     27          1           0       -0.946671   -2.283508   -2.267039
     28          1           0       -2.633041   -2.212801   -1.711460
     29          1           0       -1.891485   -0.826669   -2.583247
 ---------------------------------------------------------------------
 Rotational constants (GHZ):           0.5862037           0.3308880           0.3116551
   427 basis functions,  1056 primitive gaussians,   461 cartesian basis functions
    77 alpha electrons       72 beta electrons
       nuclear repulsion energy      1642.7217560259 Hartrees.
 NAtoms=   29 NActive=   29 NUniq=   29 SFac= 1.00D+00 NAtFMM=   60 NAOKFM=F Big=F
 Nuclear repulsion after empirical dispersion term =     1642.6515458537 Hartrees.
 Initial guess from the checkpoint file:  "checkpoint.chk"
 B after Tr=     0.000000    0.000000    0.000000
         Rot=    1.000000    0.000000    0.000000    0.000000 Ang=   0.00 deg.
 Initial guess <Sx>= 0.0000 <Sy>= 0.0000 <Sz>= 2.5000 <S**2>= 8.7620 S= 2.5020
 SCF Done:  E(UB3LYP) =  -3034.40231353     A.U. after    1 cycles
            NFock=  1  Conv=0.59D-08     -V/T= 2.0024
 <Sx>= 0.0000 <Sy>= 0.0000 <Sz>= 2.5000 <S**2>= 8.7620 S= 2.5020
 <L.S>= 0.000000000000E+00
 Annihilation of the first spin contaminant:
 S**2 before annihilation     8.7620,   after     8.7500
 1\1\GINC-HOLY7C16310\SP\UB3LYP\Jul-CC-pVDZ\C8H16Cl3Fe1O1(6)\EKWAN\12-F
 eb-2020\0\\#t pop=none jul-cc-pvdz guess=read ub3lyp empiricaldispersi
 on=gd3bj\\theory_abbreviation b3lyp_d3bj\\0,6\O,0,-0.315503,-0.150886,
 -0.653688\C,0,-1.161974,-1.095449,-0.570557\C,0,-3.181376,0.016597,0.0
 968\C,0,-2.348922,1.043613,-0.208339\C,0,-2.302623,1.63243,-1.586598\F
 e,0,1.466031,0.080485,0.055268\Cl,0,2.097507,1.990215,-0.796018\C,0,-1
 .556901,1.790165,0.823627\Cl,0,2.467832,-1.718641,-0.706948\Cl,0,1.353
 602,0.07792,2.251876\H,0,-3.802551,-0.374528,-0.706994\H,0,-2.176186,2
 .615106,1.203313\H,0,-1.262684,1.179553,1.678075\H,0,-0.658866,2.23671
 ,0.38889\H,0,-2.607523,2.685564,-1.528037\H,0,-1.280072,1.621889,-1.97
 8708\H,0,-2.97458,1.128081,-2.285871\C,0,-3.569351,-0.428537,1.480549\
 H,0,-4.488871,0.088518,1.78707\H,0,-3.785122,-1.501048,1.519086\H,0,-2
 .807956,-0.2058,2.231715\C,0,-1.109147,-2.026701,0.603069\H,0,-1.99789
 7,-2.652445,0.683502\H,0,-0.242725,-2.679787,0.41778\H,0,-0.91676,-1.4
 96108,1.535792\C,0,-1.726672,-1.623727,-1.859015\H,0,-0.946671,-2.2835
 08,-2.267039\H,0,-2.633041,-2.212801,-1.71146\H,0,-1.891485,-0.826669,
 -2.583247\\Version=ES64L-G16RevA.03\HF=-3034.4023135\S2=8.762038\S2-1=
 0.\S2A=8.750045\RMSD=5.880e-09\PG=C01 [X(C8H16Cl3Fe1O1)]\\@


 THE ONLY TROUBLE WITH A SURE THING IS THE UNCERTAINTY.
     -- FROM A TEABAG (BELONGING TO W.H.?)
 Job cpu time:       0 days  0 hours  5 minutes  9.3 seconds.
 Elapsed time:       0 days  0 hours  1 minutes 43.5 seconds.
 File lengths (MBytes):  RWF=    170 Int=      0 D2E=      0 Chk=     13 Scr=      1
 Normal termination of Gaussian 16 at Wed Feb 12 07:20:07 2020.
 Initial command:
 /n/sw/g16_nehalem/g16/l1.exe "/scratch/Gau-66257.inp" -scrdir="/scratch/"
 Entering Link 1 = /n/sw/g16_nehalem/g16/l1.exe PID=     68834.
  
 Copyright (c) 1988,1990,1992,1993,1995,1998,2003,2009,2016,
            Gaussian, Inc.  All Rights Reserved.
  
 This is part of the Gaussian(R) 16 program.  It is based on
 the Gaussian(R) 09 system (copyright 2009, Gaussian, Inc.),
 the Gaussian(R) 03 system (copyright 2003, Gaussian, Inc.),
 the Gaussian(R) 98 system (copyright 1998, Gaussian, Inc.),
 the Gaussian(R) 94 system (copyright 1995, Gaussian, Inc.),
 the Gaussian 92(TM) system (copyright 1992, Gaussian, Inc.),
 the Gaussian 90(TM) system (copyright 1990, Gaussian, Inc.),
 the Gaussian 88(TM) system (copyright 1988, Gaussian, Inc.),
 the Gaussian 86(TM) system (copyright 1986, Carnegie Mellon
 University), and the Gaussian 82(TM) system (copyright 1983,
 Carnegie Mellon University). Gaussian is a federally registered
 trademark of Gaussian, Inc.
  
 This software contains proprietary and confidential information,
 including trade secrets, belonging to Gaussian, Inc.
  
 This software is provided under written license and may be
 used, copied, transmitted, or stored only in accord with that
 written license.
  
 The following legend is applicable only to US Government
 contracts under FAR:
  
                    RESTRICTED RIGHTS LEGEND
  
 Use, reproduction and disclosure by the US Government is
 subject to restrictions as set forth in subparagraphs (a)
 and (c) of the Commercial Computer Software - Restricted
 Rights clause in FAR 52.227-19.
  
 Gaussian, Inc.
 340 Quinnipiac St., Bldg. 40, Wallingford CT 06492
  
  
 ---------------------------------------------------------------
 Warning -- This program may not be used in any manner that
 competes with the business of Gaussian, Inc. or will provide
 assistance to any competitor of Gaussian, Inc.  The licensee
 of this program is prohibited from giving any competitor of
 Gaussian, Inc. access to this program.  By using this program,
 the user acknowledges that Gaussian, Inc. is engaged in the
 business of creating and licensing software in the field of
 computational chemistry and represents and warrants to the
 licensee that it is not a competitor of Gaussian, Inc. and that
 it will not use this program in any manner prohibited above.
 ---------------------------------------------------------------
  

 Cite this work as:
 Gaussian 16, Revision A.03,
 M. J. Frisch, G. W. Trucks, H. B. Schlegel, G. E. Scuseria, 
 M. A. Robb, J. R. Cheeseman, G. Scalmani, V. Barone, 
 G. A. Petersson, H. Nakatsuji, X. Li, M. Caricato, A. V. Marenich, 
 J. Bloino, B. G. Janesko, R. Gomperts, B. Mennucci, H. P. Hratchian, 
 J. V. Ortiz, A. F. Izmaylov, J. L. Sonnenberg, D. Williams-Young, 
 F. Ding, F. Lipparini, F. Egidi, J. Goings, B. Peng, A. Petrone, 
 T. Henderson, D. Ranasinghe, V. G. Zakrzewski, J. Gao, N. Rega, 
 G. Zheng, W. Liang, M. Hada, M. Ehara, K. Toyota, R. Fukuda, 
 J. Hasegawa, M. Ishida, T. Nakajima, Y. Honda, O. Kitao, H. Nakai, 
 T. Vreven, K. Throssell, J. A. Montgomery, Jr., J. E. Peralta, 
 F. Ogliaro, M. J. Bearpark, J. J. Heyd, E. N. Brothers, K. N. Kudin, 
 V. N. Staroverov, T. A. Keith, R. Kobayashi, J. Normand, 
 K. Raghavachari, A. P. Rendell, J. C. Burant, S. S. Iyengar, 
 J. Tomasi, M. Cossi, J. M. Millam, M. Klene, C. Adamo, R. Cammi, 
 J. W. Ochterski, R. L. Martin, K. Morokuma, O. Farkas, 
 J. B. Foresman, and D. J. Fox, Gaussian, Inc., Wallingford CT, 2016.
 
 ******************************************
 Gaussian 16:  ES64L-G16RevA.03 25-Dec-2016
                12-Feb-2020 
 ******************************************
 %chk=checkpoint.chk
 %mem=3GB
 %nprocshared=4
 Will use up to    4 processors via shared memory.
 ----------------------------------------
 #t pop=none jul-cc-pvdz guess=read ub97d
 ----------------------------------------
 ------------------------
 theory_abbreviation b97d
 ------------------------
 Symbolic Z-matrix:
 Charge =  0 Multiplicity = 6
 O                    -0.3155   -0.15089  -0.65369 
 C                    -1.16197  -1.09545  -0.57056 
 C                    -3.18138   0.0166    0.0968 
 C                    -2.34892   1.04361  -0.20834 
 C                    -2.30262   1.63243  -1.5866 
 Fe                    1.46603   0.08049   0.05527 
 Cl                    2.09751   1.99022  -0.79602 
 C                    -1.5569    1.79017   0.82363 
 Cl                    2.46783  -1.71864  -0.70695 
 Cl                    1.3536    0.07792   2.25188 
 H                    -3.80255  -0.37453  -0.70699 
 H                    -2.17619   2.61511   1.20331 
 H                    -1.26268   1.17955   1.67808 
 H                    -0.65887   2.23671   0.38889 
 H                    -2.60752   2.68556  -1.52804 
 H                    -1.28007   1.62189  -1.97871 
 H                    -2.97458   1.12808  -2.28587 
 C                    -3.56935  -0.42854   1.48055 
 H                    -4.48887   0.08852   1.78707 
 H                    -3.78512  -1.50105   1.51909 
 H                    -2.80796  -0.2058    2.23172 
 C                    -1.10915  -2.0267    0.60307 
 H                    -1.9979   -2.65245   0.6835 
 H                    -0.24273  -2.67979   0.41778 
 H                    -0.91676  -1.49611   1.53579 
 C                    -1.72667  -1.62373  -1.85902 
 H                    -0.94667  -2.28351  -2.26704 
 H                    -2.63304  -2.2128   -1.71146 
 H                    -1.89149  -0.82667  -2.58325 
 
                    Distance matrix (angstroms):
                    1          2          3          4          5
     1  O    0.000000
     2  C    1.271072   0.000000
     3  C    2.967240   2.399999   0.000000
     4  C    2.399991   2.472981   1.356780   0.000000
     5  C    2.828283   3.126459   2.493382   1.499482   0.000000
     6  Fe   1.931325   2.946335   4.648032   3.943472   4.393974
     7  Cl   3.229116   4.494037   5.706040   4.583901   4.484882
     8  C    2.737007   3.229007   2.512517   1.499864   2.527878
     9  Cl   3.194941   3.685439   5.964110   5.574924   5.895821
    10  Cl   3.358655   3.958667   5.021368   4.549055   5.524343
    11  H    3.494619   2.740618   1.088541   2.091128   2.655441
    12  H    3.815928   4.235972   2.997837   2.119479   2.960615
    13  H    2.846812   3.200332   2.744864   2.181043   3.456105
    14  H    2.627828   3.503846   3.373022   2.153242   2.640008
    15  H    3.750105   4.159620   3.176915   2.122376   1.097946
    16  H    2.414291   3.062803   3.240317   2.147336   1.095204
    17  H    3.372013   3.342443   2.637287   2.171341   1.093104
    18  C    3.901229   3.232224   1.504470   2.551277   3.906351
    19  H    4.840621   4.245989   2.138160   3.077864   4.306388
    20  H    4.310701   3.378169   2.165792   3.394402   4.654220
    21  H    3.813252   3.369490   2.178707   2.779498   4.267782
    22  C    2.393322   1.499139   2.953897   3.409143   4.428122
    23  H    3.297927   2.166949   2.978024   3.818304   4.858638
    24  H    2.747486   2.081335   4.001148   4.323401   5.182270
    25  H    2.639120   2.158093   3.080172   3.397538   4.632244
    26  C    2.369277   1.502693   2.938033   3.197910   3.317904
    27  H    2.747608   2.082280   3.983983   4.156235   4.199545
    28  H    3.277401   2.171215   2.922446   3.597823   3.861420
    29  H    2.581395   2.157626   3.091532   3.057350   2.685053
                    6          7          8          9         10
     6  Fe   0.000000
     7  Cl   2.184152   0.000000
     8  C    3.556895   4.002245   0.000000
     9  Cl   2.195776   3.728362   5.554535   0.000000
    10  Cl   2.199485   3.674224   3.666430   3.636451   0.000000
    11  H    5.342849   6.356935   3.474427   6.412826   5.962008
    12  H    4.583455   4.759440   1.099183   6.633051   4.471711
    13  H    3.359663   4.250787   1.090638   5.291938   2.896169
    14  H    3.045619   3.010375   1.093099   5.159642   3.490146
    15  H    5.087940   4.812138   2.726879   6.769818   6.064492
    16  H    3.748875   3.597563   2.820999   5.179121   5.217080
    17  H    5.128101   5.356212   3.480969   6.341662   6.358234
    18  C    5.257908   6.568592   3.066617   6.549587   5.008683
    19  H    6.201618   7.325925   3.524241   7.608000   5.860943
    20  H    5.676145   7.221769   4.034937   6.640934   5.425551
    21  H    4.804773   6.168729   2.744399   6.225622   4.171267
    22  C    3.372219   5.326884   3.849363   3.821757   3.634986
    23  H    4.456723   6.365187   4.466643   4.769494   4.598612
    24  H    3.266552   5.362733   4.676777   3.088031   3.676563
    25  H    3.217964   5.165035   3.422945   4.066309   2.853924
    26  C    4.094163   5.367950   4.345118   4.350877   5.411388
    27  H    4.099110   5.449370   5.149700   3.796286   5.593585
    28  H    5.018255   6.393861   4.858856   5.222274   6.070318
    29  H    4.365502   5.200104   4.308893   4.829053   5.892986
                   11         12         13         14         15
    11  H    0.000000
    12  H    3.902851   0.000000
    13  H    3.815055   1.766550   0.000000
    14  H    4.231109   1.763159   1.773182   0.000000
    15  H    3.386202   2.766096   3.788907   2.770080   0.000000
    16  H    3.459167   3.451776   3.683480   2.523771   1.759726
    17  H    2.331571   3.875962   4.318114   3.707551   1.770536
    18  C    2.200601   3.358799   2.818809   4.094653   4.435575
    19  H    2.627889   3.474612   3.407421   4.608533   4.612380
    20  H    2.494952   4.430701   3.684236   5.002165   5.310312
    21  H    3.107040   3.068266   2.147926   3.739044   4.747199
    22  C    3.420580   4.800546   3.385155   4.292470   5.384439
    23  H    3.221671   5.296139   4.026651   5.077759   5.810068
    24  H    4.387676   5.691329   4.186068   4.934162   6.177820
    25  H    3.823064   4.312630   2.701679   3.913544   5.452716
    26  C    2.682708   5.248583   4.537033   4.593067   4.410831
    27  H    3.772797   6.127925   5.258952   5.250634   5.291146
    28  H    2.399157   5.658030   4.987473   5.301602   4.901864
    29  H    2.716050   5.124930   4.751756   4.442661   3.736571
                   16         17         18         19         20
    16  H    0.000000
    17  H    1.791522   0.000000
    18  C    4.627257   4.118584   0.000000
    19  H    5.179643   4.467954   1.098553   0.000000
    20  H    5.316256   4.695423   1.094679   1.758920   0.000000
    21  H    4.837617   4.713341   1.092513   1.763465   1.772106
    22  C    4.472918   4.666740   3.062140   4.159152   2.876846
    23  H    5.086508   4.905452   2.837344   3.864672   2.284314
    24  H    5.032262   5.410418   4.155002   5.250545   3.892413
    25  H    4.712283   5.072090   2.859895   3.915885   2.868415
    26  C    3.278384   3.051545   3.997078   4.884205   3.957756
    27  H    3.930193   3.968842   4.935968   5.882983   4.796227
[...]
 Rotational constants (GHZ):           0.5862037           0.3308880           0.3116551
   427 basis functions,  1056 primitive gaussians,   461 cartesian basis functions
    77 alpha electrons       72 beta electrons
       nuclear repulsion energy      1642.7217560259 Hartrees.
 NAtoms=   29 NActive=   29 NUniq=   29 SFac= 1.00D+00 NAtFMM=   60 NAOKFM=F Big=F
 Nuclear repulsion after empirical dispersion term =     1642.7192973370 Hartrees.
 Initial guess from the checkpoint file:  "checkpoint.chk"
 B after Tr=     0.000000    0.000000    0.000000
         Rot=    1.000000    0.000000    0.000000    0.000000 Ang=   0.00 deg.
 Initial guess <Sx>= 0.0000 <Sy>= 0.0000 <Sz>= 2.5000 <S**2>= 8.7617 S= 2.5020
 SCF Done:  E(UM06L) =  -3034.20133302     A.U. after   17 cycles
            NFock= 17  Conv=0.75D-08     -V/T= 2.0020
 <Sx>= 0.0000 <Sy>= 0.0000 <Sz>= 2.5000 <S**2>= 8.7617 S= 2.5019
 <L.S>= 0.000000000000E+00
 Annihilation of the first spin contaminant:
 S**2 before annihilation     8.7617,   after     8.7500
 1\1\GINC-HOLY7C16310\SP\UM06L\Jul-CC-pVDZ\C8H16Cl3Fe1O1(6)\EKWAN\12-Fe
 b-2020\0\\#t pop=none jul-cc-pvdz guess=read um06l empiricaldispersion
 =gd3\\theory_abbreviation m06l_d3\\0,6\O,0,-0.315503,-0.150886,-0.6536
 88\C,0,-1.161974,-1.095449,-0.570557\C,0,-3.181376,0.016597,0.0968\C,0
 ,-2.348922,1.043613,-0.208339\C,0,-2.302623,1.63243,-1.586598\Fe,0,1.4
 66031,0.080485,0.055268\Cl,0,2.097507,1.990215,-0.796018\C,0,-1.556901
 ,1.790165,0.823627\Cl,0,2.467832,-1.718641,-0.706948\Cl,0,1.353602,0.0
 7792,2.251876\H,0,-3.802551,-0.374528,-0.706994\H,0,-2.176186,2.615106
 ,1.203313\H,0,-1.262684,1.179553,1.678075\H,0,-0.658866,2.23671,0.3888
 9\H,0,-2.607523,2.685564,-1.528037\H,0,-1.280072,1.621889,-1.978708\H,
 0,-2.97458,1.128081,-2.285871\C,0,-3.569351,-0.428537,1.480549\H,0,-4.
 488871,0.088518,1.78707\H,0,-3.785122,-1.501048,1.519086\H,0,-2.807956
 ,-0.2058,2.231715\C,0,-1.109147,-2.026701,0.603069\H,0,-1.997897,-2.65
 2445,0.683502\H,0,-0.242725,-2.679787,0.41778\H,0,-0.91676,-1.496108,1
 .535792\C,0,-1.726672,-1.623727,-1.859015\H,0,-0.946671,-2.283508,-2.2
 67039\H,0,-2.633041,-2.212801,-1.71146\H,0,-1.891485,-0.826669,-2.5832
 47\\Version=ES64L-G16RevA.03\HF=-3034.201333\S2=8.761684\S2-1=0.\S2A=8
 .750044\RMSD=7.519e-09\PG=C01 [X(C8H16Cl3Fe1O1)]\\@


 "I COULD HAVE DONE IT IN A MUCH MORE COMPLICATED WAY"
 SAID THE RED QUEEN, IMMENSELY PROUD.

                                      -- LEWIS CARROLL
 Job cpu time:       0 days  1 hours 13 minutes 18.8 seconds.
 Elapsed time:       0 days  0 hours 18 minutes 56.9 seconds.
 File lengths (MBytes):  RWF=    174 Int=      0 D2E=      0 Chk=     13 Scr=      1
 Normal termination of Gaussian 16 at Wed Feb 12 16:14:52 2020.
 Initial command:
 /n/sw/g16_nehalem/g16/l1.exe "/scratch/Gau-66257.inp" -scrdir="/scratch/"
 Entering Link 1 = /n/sw/g16_nehalem/g16/l1.exe PID=    115541.
  
 Copyright (c) 1988,1990,1992,1993,1995,1998,2003,2009,2016,
            Gaussian, Inc.  All Rights Reserved.
  
 This is part of the Gaussian(R) 16 program.  It is based on
 the Gaussian(R) 09 system (copyright 2009, Gaussian, Inc.),
 the Gaussian(R) 03 system (copyright 2003, Gaussian, Inc.),
 the Gaussian(R) 98 system (copyright 1998, Gaussian, Inc.),
 the Gaussian(R) 94 system (copyright 1995, Gaussian, Inc.),
 the Gaussian 92(TM) system (copyright 1992, Gaussian, Inc.),
 the Gaussian 90(TM) system (copyright 1990, Gaussian, Inc.),
 the Gaussian 88(TM) system (copyright 1988, Gaussian, Inc.),
 the Gaussian 86(TM) system (copyright 1986, Carnegie Mellon
 University), and the Gaussian 82(TM) system (copyright 1983,
 Carnegie Mellon University). Gaussian is a federally registered
 trademark of Gaussian, Inc.
  
 This software contains proprietary and confidential information,
 including trade secrets, belonging to Gaussian, Inc.
  
 This software is provided under written license and may be
 used, copied, transmitted, or stored only in accord with that
 written license.
  
 The following legend is applicable only to US Government
 contracts under FAR:
  
                    RESTRICTED RIGHTS LEGEND
  
 Use, reproduction and disclosure by the US Government is
 subject to restrictions as set forth in subparagraphs (a)
 and (c) of the Commercial Computer Software - Restricted
 Rights clause in FAR 52.227-19.
  
 Gaussian, Inc.
 340 Quinnipiac St., Bldg. 40, Wallingford CT 06492
  
  
 ---------------------------------------------------------------
 Warning -- This program may not be used in any manner that
 competes with the business of Gaussian, Inc. or will provide
 assistance to any competitor of Gaussian, Inc.  The licensee
 of this program is prohibited from giving any competitor of
 Gaussian, Inc. access to this program.  By using this program,
 the user acknowledges that Gaussian, Inc. is engaged in the
 business of creating and licensing software in the field of
 computational chemistry and represents and warrants to the
 licensee that it is not a competitor of Gaussian, Inc. and that
 it will not use this program in any manner prohibited above.
 ---------------------------------------------------------------
  

 Cite this work as:
 Gaussian 16, Revision A.03,
 M. J. Frisch, G. W. Trucks, H. B. Schlegel, G. E. Scuseria, 
 M. A. Robb, J. R. Cheeseman, G. Scalmani, V. Barone, 
 G. A. Petersson, H. Nakatsuji, X. Li, M. Caricato, A. V. Marenich, 
 J. Bloino, B. G. Janesko, R. Gomperts, B. Mennucci, H. P. Hratchian, 
 J. V. Ortiz, A. F. Izmaylov, J. L. Sonnenberg, D. Williams-Young, 
 F. Ding, F. Lipparini, F. Egidi, J. Goings, B. Peng, A. Petrone, 
 T. Henderson, D. Ranasinghe, V. G. Zakrzewski, J. Gao, N. Rega, 
 G. Zheng, W. Liang, M. Hada, M. Ehara, K. Toyota, R. Fukuda, 
 J. Hasegawa, M. Ishida, T. Nakajima, Y. Honda, O. Kitao, H. Nakai, 
 T. Vreven, K. Throssell, J. A. Montgomery, Jr., J. E. Peralta, 
 F. Ogliaro, M. J. Bearpark, J. J. Heyd, E. N. Brothers, K. N. Kudin, 
 V. N. Staroverov, T. A. Keith, R. Kobayashi, J. Normand, 
 K. Raghavachari, A. P. Rendell, J. C. Burant, S. S. Iyengar, 
 J. Tomasi, M. Cossi, J. M. Millam, M. Klene, C. Adamo, R. Cammi, 
 J. W. Ochterski, R. L. Martin, K. Morokuma, O. Farkas, 
 J. B. Foresman, and D. J. Fox, Gaussian, Inc., Wallingford CT, 2016.
 
 ******************************************
 Gaussian 16:  ES64L-G16RevA.03 25-Dec-2016
                12-Feb-2020 
 ******************************************
 %chk=checkpoint.chk
 %mem=3GB
 %nprocshared=4
 Will use up to    4 processors via shared memory.
 -------------------------------------------------------------------
 #t pop=none jul-cc-pvdz guess=read ub97d3 empiricaldispersion=gd3bj
 -------------------------------------------------------------------
 ------------------------------
 theory_abbreviation b97d3_d3bj
 ------------------------------
 Symbolic Z-matrix:
 Charge =  0 Multiplicity = 6
 O                    -0.3155   -0.15089  -0.65369 
 C                    -1.16197  -1.09545  -0.57056 
 C                    -3.18138   0.0166    0.0968 
 C                    -2.34892   1.04361  -0.20834 
 C                    -2.30262   1.63243  -1.5866 
 Fe                    1.46603   0.08049   0.05527 
 Cl                    2.09751   1.99022  -0.79602 
 C                    -1.5569    1.79017   0.82363 
 Cl                    2.46783  -1.71864  -0.70695 
 Cl                    1.3536    0.07792   2.25188 
 H                    -3.80255  -0.37453  -0.70699 
 H                    -2.17619   2.61511   1.20331 
 H                    -1.26268   1.17955   1.67808 
 H                    -0.65887   2.23671   0.38889 
 H                    -2.60752   2.68556  -1.52804 
 H                    -1.28007   1.62189  -1.97871 
 H                    -2.97458   1.12808  -2.28587 
 C                    -3.56935  -0.42854   1.48055 
 H                    -4.48887   0.08852   1.78707 
 H                    -3.78512  -1.50105   1.51909 
 H                    -2.80796  -0.2058    2.23172 
 C                    -1.10915  -2.0267    0.60307 
 H                    -1.9979   -2.65245   0.6835 
 H                    -0.24273  -2.67979   0.41778 
 H                    -0.91676  -1.49611   1.53579 
 C                    -1.72667  -1.62373  -1.85902 
 H                    -0.94667  -2.28351  -2.26704 
 H                    -2.63304  -2.2128   -1.71146 
 H                    -1.89149  -0.82667  -2.58325 
 
                    Distance matrix (angstroms):
                    1          2          3          4          5
     1  O    0.000000
     2  C    1.271072   0.000000
     3  C    2.967240   2.399999   0.000000
     4  C    2.399991   2.472981   1.356780   0.000000
     5  C    2.828283   3.126459   2.493382   1.499482   0.000000
     6  Fe   1.931325   2.946335   4.648032   3.943472   4.393974
     7  Cl   3.229116   4.494037   5.706040   4.583901   4.484882
     8  C    2.737007   3.229007   2.512517   1.499864   2.527878
     9  Cl   3.194941   3.685439   5.964110   5.574924   5.895821
    10  Cl   3.358655   3.958667   5.021368   4.549055   5.524343
    11  H    3.494619   2.740618   1.088541   2.091128   2.655441
    12  H    3.815928   4.235972   2.997837   2.119479   2.960615
    13  H    2.846812   3.200332   2.744864   2.181043   3.456105
    14  H    2.627828   3.503846   3.373022   2.153242   2.640008
    15  H    3.750105   4.159620   3.176915   2.122376   1.097946
    16  H    2.414291   3.062803   3.240317   2.147336   1.095204
    17  H    3.372013   3.342443   2.637287   2.171341   1.093104
    18  C    3.901229   3.232224   1.504470   2.551277   3.906351
    19  H    4.840621   4.245989   2.138160   3.077864   4.306388
    20  H    4.310701   3.378169   2.165792   3.394402   4.654220
    21  H    3.813252   3.369490   2.178707   2.779498   4.267782
    22  C    2.393322   1.499139   2.953897   3.409143   4.428122
    23  H    3.297927   2.166949   2.978024   3.818304   4.858638
    24  H    2.747486   2.081335   4.001148   4.323401   5.182270
    25  H    2.639120   2.158093   3.080172   3.397538   4.632244
    26  C    2.369277   1.502693   2.938033   3.197910   3.317904
    27  H    2.747608   2.082280   3.983983   4.156235   4.199545
    28  H    3.277401   2.171215   2.922446   3.597823   3.861420
    29  H    2.581395   2.157626   3.091532   3.057350   2.685053
                    6          7          8          9         10
     6  Fe   0.000000
     7  Cl   2.184152   0.000000
     8  C    3.556895   4.002245   0.000000
     9  Cl   2.195776   3.728362   5.554535   0.000000
    10  Cl   2.199485   3.674224   3.666430   3.636451   0.000000
    11  H    5.342849   6.356935   3.474427   6.412826   5.962008
    12  H    4.583455   4.759440   1.099183   6.633051   4.471711
    13  H    3.359663   4.250787   1.090638   5.291938   2.896169
    14  H    3.045619   3.010375   1.093099   5.159642   3.490146
    15  H    5.087940   4.812138   2.726879   6.769818   6.064492
    16  H    3.748875   3.597563   2.820999   5.179121   5.217080
    17  H    5.128101   5.356212   3.480969   6.341662   6.358234
    18  C    5.257908   6.568592   3.066617   6.549587   5.008683
    19  H    6.201618   7.325925   3.524241   7.608000   5.860943
    20  H    5.676145   7.221769   4.034937   6.640934   5.425551
    21  H    4.804773   6.168729   2.744399   6.225622   4.171267
    22  C    3.372219   5.326884   3.849363   3.821757   3.634986
    23  H    4.456723   6.365187   4.466643   4.769494   4.598612
    24  H    3.266552   5.362733   4.676777   3.088031   3.676563
    25  H    3.217964   5.165035   3.422945   4.066309   2.853924
    26  C    4.094163   5.367950   4.345118   4.350877   5.411388
    27  H    4.099110   5.449370   5.149700   3.796286   5.593585
    28  H    5.018255   6.393861   4.858856   5.222274   6.070318
    29  H    4.365502   5.200104   4.308893   4.829053   5.892986
                   11         12         13         14         15
    11  H    0.000000
    12  H    3.902851   0.000000
    13  H    3.815055   1.766550   0.000000
    14  H    4.231109   1.763159   1.773182   0.000000
    15  H    3.386202   2.766096   3.788907   2.770080   0.000000
    16  H    3.459167   3.451776   3.683480   2.523771   1.759726
    17  H    2.331571   3.875962   4.318114   3.707551   1.770536
    18  C    2.200601   3.358799   2.818809   4.094653   4.435575
    19  H    2.627889   3.474612   3.407421   4.608533   4.612380
    20  H    2.494952   4.430701   3.684236   5.002165   5.310312
    21  H    3.107040   3.068266   2.147926   3.739044   4.747199
    22  C    3.420580   4.800546   3.385155   4.292470   5.384439
    23  H    3.221671   5.296139   4.026651   5.077759   5.810068
    24  H    4.387676   5.691329   4.186068   4.934162   6.177820
    25  H    3.823064   4.312630   2.701679   3.913544   5.452716
    26  C    2.682708   5.248583   4.537033   4.593067   4.410831
    27  H    3.772797   6.127925   5.258952   5.250634   5.291146
    28  H    2.399157   5.658030   4.987473   5.301602   4.901864
    29  H    2.716050   5.124930   4.751756   4.442661   3.736571
                   16         17         18         19         20
    16  H    0.000000
    17  H    1.791522   0.000000
    18  C    4.627257   4.118584   0.000000
    19  H    5.179643   4.467954   1.098553   0.000000
    20  H    5.316256   4.695423   1.094679   1.758920   0.000000
    21  H    4.837617   4.713341   1.092513   1.763465   1.772106
    22  C    4.472918   4.666740   3.062140   4.159152   2.876846
    23  H    5.086508   4.905452   2.837344   3.864672   2.284314
    24  H    5.032262   5.410418   4.155002   5.250545   3.892413
    25  H    4.712283   5.072090   2.859895   3.915885   2.868415
    26  C    3.278384   3.051545   3.997078   4.884205   3.957756
    27  H    3.930193   3.968842   4.935968   5.882983   4.796227
    28  H    4.075143   3.407065   3.774811   4.580381   3.502900
    29  H    2.595136   2.254457   4.414542   5.165622   4.568346
                   21         22         23         24         25
    21  H    0.000000
    22  C    2.975587   0.000000
    23  H    3.006531   1.089909   0.000000
    24  H    3.998923   1.100700   1.775383   0.000000
    25  H    2.392870   1.090190   1.797880   1.762206   0.000000
    26  C    4.462484   2.570133   2.756123   2.915674   3.492414
    27  H    5.293396   2.886151   3.153868   2.803717   3.883609
    28  H    4.428011   2.777396   2.516453   3.235019   3.742180
    29  H    4.940572   3.493528   3.743852   3.893407   4.285408
                   26         27         28         29
    26  C    0.000000
    27  H    1.100089   0.000000
    28  H    1.091002   1.776939   0.000000
    29  H    1.089485   1.764948   1.797576   0.000000
 Framework group  C1[X(C8H16Cl3FeO)]
 Deg. of freedom    81
                         Standard orientation:                         
 ---------------------------------------------------------------------
 Center     Atomic      Atomic             Coordinates (Angstroms)
 Number     Number       Type             X           Y           Z
 ---------------------------------------------------------------------
      1          8           0       -0.315503   -0.150886   -0.653688
      2          6           0       -1.161974   -1.095449   -0.570557
      3          6           0       -3.181376    0.016597    0.096800
      4          6           0       -2.348922    1.043613   -0.208339
      5          6           0       -2.302623    1.632430   -1.586598
      6         26           0        1.466031    0.080485    0.055268
      7         17           0        2.097507    1.990215   -0.796018
      8          6           0       -1.556901    1.790165    0.823627
      9         17           0        2.467832   -1.718641   -0.706948
     10         17           0        1.353602    0.077920    2.251876
     11          1           0       -3.802551   -0.374528   -0.706994
     12          1           0       -2.176186    2.615106    1.203313
     13          1           0       -1.262684    1.179553    1.678075
     14          1           0       -0.658866    2.236710    0.388890
     15          1           0       -2.607523    2.685564   -1.528037
     16          1           0       -1.280072    1.621889   -1.978708
     17          1           0       -2.974580    1.128081   -2.285871
     18          6           0       -3.569351   -0.428537    1.480549
     19          1           0       -4.488871    0.088518    1.787070
     20          1           0       -3.785122   -1.501048    1.519086
     21          1           0       -2.807956   -0.205800    2.231715
     22          6           0       -1.109147   -2.026701    0.603069
     23          1           0       -1.997897   -2.652445    0.683502
     24          1           0       -0.242725   -2.679787    0.417780
     25          1           0       -0.916760   -1.496108    1.535792
     26          6           0       -1.726672   -1.623727   -1.859015
     27          1           0       -0.946671   -2.283508   -2.267039
     28          1           0       -2.633041   -2.212801   -1.711460
     29          1           0       -1.891485   -0.826669   -2.583247
 ---------------------------------------------------------------------
 Rotational constants (GHZ):           0.5862037           0.3308880           0.3116551
   427 basis functions,  1056 primitive gaussians,   461 cartesian basis functions
    77 alpha electrons       72 beta electrons
       nuclear repulsion energy      1642.7217560259 Hartrees.
 NAtoms=   29 NActive=   29 NUniq=   29 SFac= 1.00D+00 NAtFMM=   60 NAOKFM=F Big=F
 Nuclear repulsion after empirical dispersion term =     1642.6187400637 Hartrees.
 Initial guess from the checkpoint file:  "checkpoint.chk"
 B after Tr=     0.000000    0.000000    0.000000
         Rot=    1.000000    0.000000    0.000000    0.000000 Ang=   0.00 deg.
 Initial guess <Sx>= 0.0000 <Sy>= 0.0000 <Sz>= 2.5000 <S**2>= 8.7617 S= 2.5019
 EnCoef did     1 forward-backward iterations
 SCF Done:  E(UB97D3) =  -3034.62240004     A.U. after   17 cycles
            NFock= 17  Conv=0.52D-08     -V/T= 2.0019
 <Sx>= 0.0000 <Sy>= 0.0000 <Sz>= 2.5000 <S**2>= 8.7597 S= 2.5016
 <L.S>= 0.000000000000E+00
 Annihilation of the first spin contaminant:
 S**2 before annihilation     8.7597,   after     8.7500
 1\1\GINC-HOLY7C16310\SP\UB97D3\Jul-CC-pVDZ\C8H16Cl3Fe1O1(6)\EKWAN\12-F
 eb-2020\0\\#t pop=none jul-cc-pvdz guess=read ub97d3 empiricaldispersi
 on=gd3bj\\theory_abbreviation b97d3_d3bj\\0,6\O,0,-0.315503,-0.150886,
 -0.653688\C,0,-1.161974,-1.095449,-0.570557\C,0,-3.181376,0.016597,0.0
 968\C,0,-2.348922,1.043613,-0.208339\C,0,-2.302623,1.63243,-1.586598\F
 e,0,1.466031,0.080485,0.055268\Cl,0,2.097507,1.990215,-0.796018\C,0,-1
 .556901,1.790165,0.823627\Cl,0,2.467832,-1.718641,-0.706948\Cl,0,1.353
 602,0.07792,2.251876\H,0,-3.802551,-0.374528,-0.706994\H,0,-2.176186,2
 .615106,1.203313\H,0,-1.262684,1.179553,1.678075\H,0,-0.658866,2.23671
 ,0.38889\H,0,-2.607523,2.685564,-1.528037\H,0,-1.280072,1.621889,-1.97
 8708\H,0,-2.97458,1.128081,-2.285871\C,0,-3.569351,-0.428537,1.480549\
 H,0,-4.488871,0.088518,1.78707\H,0,-3.785122,-1.501048,1.519086\H,0,-2
 .807956,-0.2058,2.231715\C,0,-1.109147,-2.026701,0.603069\H,0,-1.99789
 7,-2.652445,0.683502\H,0,-0.242725,-2.679787,0.41778\H,0,-0.91676,-1.4
 96108,1.535792\C,0,-1.726672,-1.623727,-1.859015\H,0,-0.946671,-2.2835
 08,-2.267039\H,0,-2.633041,-2.212801,-1.71146\H,0,-1.891485,-0.826669,
 -2.583247\\Version=ES64L-G16RevA.03\HF=-3034.6224\S2=8.759736\S2-1=0.\
 S2A=8.75003\RMSD=5.169e-09\PG=C01 [X(C8H16Cl3Fe1O1)]\\@


     "IF I COULD JUST GET IT ON PAPER"
 LIFE AND INK, THEY RUN OUT AT THE SAME TIME,
 OR SO SAID MY OLD FRIEND THE SQUID.
     -- JIMMY BUFFETT, 1981
 Job cpu time:       0 days  0 hours 53 minutes 28.8 seconds.
 Elapsed time:       0 days  0 hours 14 minutes  0.8 seconds.
 File lengths (MBytes):  RWF=    174 Int=      0 D2E=      0 Chk=     13 Scr=      1
 Normal termination of Gaussian 16 at Wed Feb 12 16:28:53 2020.
