 Entering Gaussian System, Link 0=g16
 Input=simple-grid-275-270-b3lyp_d3bj-631gd-gas-singlepoint-DFT-juldz2-gas.gjf
 Output=simple-grid-275-270-b3lyp_d3bj-631gd-gas-singlepoint-DFT-juldz2-gas.out
 Initial command:
 /n/sw/g16_nehalem/g16/l1.exe "/scratch/Gau-17972.inp" -scrdir="/scratch/"
 Entering Link 1 = /n/sw/g16_nehalem/g16/l1.exe PID=     17976.
  
 Copyright (c) 1988,1990,1992,1993,1995,1998,2003,2009,2016,
            Gaussian, Inc.  All Rights Reserved.
  
 This is part of the Gaussian(R) 16 program.  It is based on
 the Gaussian(R) 09 system (copyright 2009, Gaussian, Inc.),
 the Gaussian(R) 03 system (copyright 2003, Gaussian, Inc.),
 the Gaussian(R) 98 system (copyright 1998, Gaussian, Inc.),
 the Gaussian(R) 94 system (copyright 1995, Gaussian, Inc.),
 the Gaussian 92(TM) system (copyright 1992, Gaussian, Inc.),
 the Gaussian 90(TM) system (copyright 1990, Gaussian, Inc.),
 the Gaussian 88(TM) system (copyright 1988, Gaussian, Inc.),
 the Gaussian 86(TM) system (copyright 1986, Carnegie Mellon
 University), and the Gaussian 82(TM) system (copyright 1983,
 Carnegie Mellon University). Gaussian is a federally registered
 trademark of Gaussian, Inc.
  
 This software contains proprietary and confidential information,
 including trade secrets, belonging to Gaussian, Inc.
  
 This software is provided under written license and may be
 used, copied, transmitted, or stored only in accord with that
 written license.
  
 The following legend is applicable only to US Government
 contracts under FAR:
  
                    RESTRICTED RIGHTS LEGEND
  
 Use, reproduction and disclosure by the US Government is
 subject to restrictions as set forth in subparagraphs (a)
 and (c) of the Commercial Computer Software - Restricted
 Rights clause in FAR 52.227-19.
  
 Gaussian, Inc.
 340 Quinnipiac St., Bldg. 40, Wallingford CT 06492
  
  
 ---------------------------------------------------------------
 Warning -- This program may not be used in any manner that
 competes with the business of Gaussian, Inc. or will provide
 assistance to any competitor of Gaussian, Inc.  The licensee
 of this program is prohibited from giving any competitor of
 Gaussian, Inc. access to this program.  By using this program,
 the user acknowledges that Gaussian, Inc. is engaged in the
 business of creating and licensing software in the field of
 computational chemistry and represents and warrants to the
 licensee that it is not a competitor of Gaussian, Inc. and that
 it will not use this program in any manner prohibited above.
 ---------------------------------------------------------------
  

 Cite this work as:
 Gaussian 16, Revision A.03,
 M. J. Frisch, G. W. Trucks, H. B. Schlegel, G. E. Scuseria, 
 M. A. Robb, J. R. Cheeseman, G. Scalmani, V. Barone, 
 G. A. Petersson, H. Nakatsuji, X. Li, M. Caricato, A. V. Marenich, 
 J. Bloino, B. G. Janesko, R. Gomperts, B. Mennucci, H. P. Hratchian, 
 J. V. Ortiz, A. F. Izmaylov, J. L. Sonnenberg, D. Williams-Young, 
 F. Ding, F. Lipparini, F. Egidi, J. Goings, B. Peng, A. Petrone, 
 T. Henderson, D. Ranasinghe, V. G. Zakrzewski, J. Gao, N. Rega, 
 G. Zheng, W. Liang, M. Hada, M. Ehara, K. Toyota, R. Fukuda, 
 J. Hasegawa, M. Ishida, T. Nakajima, Y. Honda, O. Kitao, H. Nakai, 
 T. Vreven, K. Throssell, J. A. Montgomery, Jr., J. E. Peralta, 
 F. Ogliaro, M. J. Bearpark, J. J. Heyd, E. N. Brothers, K. N. Kudin, 
 V. N. Staroverov, T. A. Keith, R. Kobayashi, J. Normand, 
 K. Raghavachari, A. P. Rendell, J. C. Burant, S. S. Iyengar, 
 J. Tomasi, M. Cossi, J. M. Millam, M. Klene, C. Adamo, R. Cammi, 
 J. W. Ochterski, R. L. Martin, K. Morokuma, O. Farkas, 
 J. B. Foresman, and D. J. Fox, Gaussian, Inc., Wallingford CT, 2016.
 
 ******************************************
 Gaussian 16:  ES64L-G16RevA.03 25-Dec-2016
                11-Feb-2020 
 ******************************************
 %chk=checkpoint.chk
 %mem=3GB
 %nprocshared=4
 Will use up to    4 processors via shared memory.
 --------------------------------
 #t pop=none jul-cc-pvdz upbe1pbe
 --------------------------------
 ------------------------
 theory_abbreviation pbe0
 ------------------------
 Symbolic Z-matrix:
 Charge =  0 Multiplicity = 6
 O                     0.24973   0.33168  -0.81456 
 C                     1.00304   1.31736  -0.6409 
 C                     3.18403   0.00412   0.39889 
 C                     2.53442  -0.9881   -0.24152 
 C                     2.79028  -1.28452  -1.69423 
 Fe                   -1.46817  -0.14243   0.04021 
 Cl                   -2.10001  -1.96112  -0.96965 
 C                     1.6094   -1.96177   0.4295 
 Cl                   -2.62989   1.65445  -0.42901 
 Cl                   -1.14856  -0.35765   2.19942 
 H                     3.90007   0.58817  -0.1802 
 H                     2.12135  -2.92757   0.54178 
 H                     1.27471  -1.64498   1.41704 
 H                     0.72742  -2.15619  -0.19076 
 H                     3.16994  -2.30869  -1.80456 
 H                     1.8575   -1.2374   -2.27058 
 H                     3.52419  -0.60552  -2.13822 
 C                     3.16653   0.29011   1.87552 
 H                     4.03495  -0.17348   2.36346 
 H                     3.23339   1.36473   2.07812 
 H                     2.27121  -0.09192   2.37287 
 C                     0.89258   2.16983   0.58258 
 H                     1.77997   2.78551   0.73379 
 H                     0.0304    2.83384   0.41901 
 H                     0.67811   1.57292   1.46965 
 C                     1.77184   1.84288  -1.81324 
 H                     1.15826   2.6503   -2.24029 
 H                     2.72841   2.27545  -1.51599 
 H                     1.90571   1.07854  -2.57663 
 
                    Distance matrix (angstroms):
                    1          2          3          4          5
     1  O    0.000000
     2  C    1.252682   0.000000
     3  C    3.192163   2.749999   0.000000
     4  C    2.699998   2.796382   1.347818   0.000000
     5  C    3.136927   3.327688   2.489335   1.504558   0.000000
     6  Fe   1.976506   2.949876   4.668306   4.100637   4.737829
     7  Cl   3.286676   4.526084   5.801392   4.791124   4.989761
     8  C    2.942154   3.502299   2.518949   1.501320   2.522570
     9  Cl   3.192270   3.654688   6.100060   5.804163   6.294170
    10  Cl   3.393297   3.937318   4.705758   4.463186   5.615522
    11  H    3.713922   3.022706   1.090494   2.086477   2.651586
    12  H    3.995656   4.546286   3.121613   2.132069   2.854257
    13  H    3.152428   3.617232   2.720595   2.183847   3.479496
    14  H    2.608982   3.513421   3.324085   2.152268   2.697333
    15  H    4.059463   4.381525   3.194444   2.142649   1.097828
    16  H    2.677107   3.148450   3.229110   2.153477   1.097492
    17  H    3.654108   3.506512   2.631409   2.173357   1.093980
    18  C    3.968120   3.473944   1.504166   2.552492   3.919708
    19  H    4.968190   4.521201   2.148285   3.114662   4.387308
    20  H    4.282169   3.517060   2.161826   3.377138   4.630924
    21  H    3.798092   3.560490   2.176930   2.776225   4.270011
    22  C    2.396681   1.495266   3.158292   3.653394   4.551668
    23  H    3.280291   2.156117   3.133644   3.969957   4.845737
    24  H    2.798319   2.090248   4.237113   4.616664   5.389209
    25  H    2.634733   2.150659   3.144414   3.596223   4.757772
    26  C    2.365991   1.497196   3.204506   3.326597   3.291202
    27  H    2.869524   2.087796   4.251047   4.373430   4.294711
    28  H    3.227090   2.158845   3.005549   3.508936   3.564964
    29  H    2.530805   2.149166   3.412074   3.181039   2.673040
                    6          7          8          9         10
     6  Fe   0.000000
     7  Cl   2.174094   0.000000
     8  C    3.596241   3.964507   0.000000
     9  Cl   2.190553   3.693965   5.637874   0.000000
    10  Cl   2.193318   3.676870   3.648588   3.626497   0.000000
    11  H    5.422209   6.566817   3.481536   6.621126   5.660908
    12  H    4.570905   4.586748   1.098846   6.671696   4.477119
    13  H    3.417118   4.145476   1.089779   5.435073   2.853348
    14  H    2.988174   2.939230   1.095630   5.084215   3.530868
    15  H    5.441313   5.346983   2.747120   7.157974   6.203862
    16  H    4.195086   4.228243   2.806544   5.647193   5.458137
    17  H    5.466593   5.902102   3.478362   6.775070   6.380532
    18  C    5.003583   6.395265   3.096217   6.385200   4.375446
    19  H    5.973504   7.207148   3.580709   7.453814   5.189378
    20  H    5.341269   6.985358   4.052265   6.383387   4.709858
    21  H    4.407581   5.811530   2.776871   5.909408   3.434467
    22  C    3.348706   5.331957   4.196113   3.700914   3.628851
    23  H    4.427667   6.362893   4.760079   4.698750   4.539141
    24  H    3.353702   5.427577   5.048877   3.031046   3.839969
    25  H    3.097126   5.114443   3.800425   3.815025   2.756147
    26  C    4.227809   5.493021   4.419456   4.618102   5.428857
    27  H    4.460734   5.787578   5.348133   4.315386   5.837828
    28  H    5.087156   6.446754   4.794904   5.502600   5.980669
    29  H    4.440910   5.278987   4.285800   5.051303   5.848239
                   11         12         13         14         15
    11  H    0.000000
    12  H    4.005683   0.000000
    13  H    3.798768   1.768593   0.000000
    14  H    4.194917   1.753472   1.773667   0.000000
    15  H    3.400505   2.643458   3.796202   2.931469   0.000000
    16  H    3.445943   3.291753   3.755573   2.539075   1.757082
    17  H    2.323800   3.813428   4.333649   3.744206   1.771323
    18  C    2.202927   3.636576   2.744762   4.025308   4.505189
    19  H    2.658665   3.816463   3.268015   4.625464   4.762329
    20  H    2.479414   4.692629   3.651266   4.881036   5.345391
    21  H    3.103841   3.378794   2.078125   3.635475   4.813802
    22  C    3.482599   5.243565   3.923658   4.397701   5.562548
    23  H    3.187247   5.726488   4.511247   5.136442   5.858848
    24  H    4.514028   6.130324   4.754381   5.075233   6.422344
    25  H    3.751376   4.816456   3.273155   4.082356   5.656552
    26  C    2.961501   5.331546   4.779852   4.440246   4.380667
    27  H    4.001746   6.307146   5.642615   5.242955   5.369200
    28  H    2.450316   5.627990   5.107412   5.039800   4.614378
    29  H    3.156082   5.081322   4.874950   4.188580   3.696976
                   16         17         18         19         20
    16  H    0.000000
    17  H    1.787360   0.000000
    18  C    4.608359   4.127973   0.000000
    19  H    5.229491   4.551118   1.098707   0.000000
    20  H    5.251219   4.663041   1.095597   1.757847   0.000000
    21  H    4.800508   4.709950   1.093110   1.765648   1.770444
    22  C    4.547616   4.693689   3.221162   4.305475   2.892086
    23  H    5.021557   4.773872   3.074600   4.061582   2.436857
    24  H    5.210288   5.529482   4.292704   5.372271   3.894873
    25  H    4.824748   5.085524   2.828885   3.888086   2.634962
    26  C    3.115222   3.028367   4.238298   5.160638   4.184180
    27  H    3.950200   4.025974   5.152049   6.119126   4.960597
    28  H    3.697022   3.052935   3.954221   4.770163   3.741927
    29  H    2.336567   2.376496   4.693926   5.523201   4.848847
                   21         22         23         24         25
    21  H    0.000000
    22  C    3.197065   0.000000
    23  H    3.347760   1.090586   0.000000
    24  H    4.171190   1.100463   1.778315   0.000000
    25  H    2.474965   1.090504   1.796103   1.764454   0.000000
    26  C    4.638562   2.572927   2.715870   2.999589   3.470809
    27  H    5.480847   2.875774   3.041374   2.894413   3.892945
    28  H    4.575658   2.790242   2.494237   3.366794   3.689362
    29  H    5.099126   3.492565   3.726722   3.946104   4.257215
                   26         27         28         29
    26  C    0.000000
    27  H    1.100364   0.000000
    28  H    1.091098   1.769328   0.000000
    29  H    1.088539   1.772644   1.798442   0.000000
 Framework group  C1[X(C8H16Cl3FeO)]
 Deg. of freedom    81
                         Standard orientation:                         
 ---------------------------------------------------------------------
 Center     Atomic      Atomic             Coordinates (Angstroms)
 Number     Number       Type             X           Y           Z
 ---------------------------------------------------------------------
      1          8           0        0.249730    0.331677   -0.814561
      2          6           0        1.003044    1.317360   -0.640900
      3          6           0        3.184033    0.004115    0.398894
      4          6           0        2.534420   -0.988098   -0.241520
      5          6           0        2.790280   -1.284522   -1.694229
      6         26           0       -1.468166   -0.142427    0.040211
      7         17           0       -2.100008   -1.961120   -0.969649
      8          6           0        1.609399   -1.961768    0.429498
      9         17           0       -2.629892    1.654445   -0.429010
     10         17           0       -1.148564   -0.357645    2.199419
     11          1           0        3.900074    0.588168   -0.180196
     12          1           0        2.121347   -2.927566    0.541776
     13          1           0        1.274711   -1.644976    1.417043
     14          1           0        0.727421   -2.156188   -0.190760
     15          1           0        3.169939   -2.308686   -1.804564
     16          1           0        1.857496   -1.237398   -2.270581
     17          1           0        3.524190   -0.605523   -2.138220
     18          6           0        3.166530    0.290105    1.875518
     19          1           0        4.034950   -0.173483    2.363462
     20          1           0        3.233385    1.364729    2.078116
     21          1           0        2.271212   -0.091917    2.372865
     22          6           0        0.892582    2.169830    0.582584
     23          1           0        1.779966    2.785512    0.733786
     24          1           0        0.030399    2.833835    0.419007
     25          1           0        0.678105    1.572917    1.469654
     26          6           0        1.771843    1.842879   -1.813237
     27          1           0        1.158257    2.650304   -2.240294
     28          1           0        2.728413    2.275446   -1.515992
     29          1           0        1.905712    1.078536   -2.576634
 ---------------------------------------------------------------------
 Rotational constants (GHZ):           0.5685414           0.3253988           0.3067213
   427 basis functions,  1056 primitive gaussians,   461 cartesian basis functions
    77 alpha electrons       72 beta electrons
       nuclear repulsion energy      1627.0771624184 Hartrees.
 NAtoms=   29 NActive=   29 NUniq=   29 SFac= 1.00D+00 NAtFMM=   60 NAOKFM=F Big=F
 ExpMin= 1.40D-02 ExpMax= 4.32D+06 ExpMxC= 4.91D+03 IAcc=3 IRadAn=         5 AccDes= 0.00D+00
 Harris functional with IExCor= 1009 and IRadAn=       5 diagonalized for initial guess.
 HarFok:  IExCor= 1009 AccDes= 0.00D+00 IRadAn=         5 IDoV= 1 UseB2=F ITyADJ=14
 ICtDFT=  3500011 ScaDFX=  1.000000  1.000000  1.000000  1.000000
 FoFCou: FMM=F IPFlag=           0 FMFlag=      100000 FMFlg1=           0
         NFxFlg=           0 DoJE=T BraDBF=F KetDBF=T FulRan=T
         wScrn=  0.000000 ICntrl=       500 IOpCl=  0 I1Cent=   200000004 NGrid=           0
         NMat0=    1 NMatS0=      1 NMatT0=    0 NMatD0=    1 NMtDS0=    0 NMtDT0=    0
 Petite list used in FoFCou.
 Initial guess <Sx>= 0.0000 <Sy>= 0.0000 <Sz>= 2.5000 <S**2>= 8.7500 S= 2.5000
 EnCoef did   100 forward-backward iterations
 SCF Done:  E(UPBE1PBE) =  -3033.13379585     A.U. after   20 cycles
            NFock= 20  Conv=0.72D-08     -V/T= 2.0021
 <Sx>= 0.0000 <Sy>= 0.0000 <Sz>= 2.5000 <S**2>= 8.7629 S= 2.5021
 <L.S>= 0.000000000000E+00
 Annihilation of the first spin contaminant:
 S**2 before annihilation     8.7629,   after     8.7501
 1\1\GINC-HOLY7C18409\SP\UPBE1PBE\Jul-CC-pVDZ\C8H16Cl3Fe1O1(6)\EKWAN\11
 -Feb-2020\0\\#t pop=none jul-cc-pvdz upbe1pbe\\theory_abbreviation pbe
 0\\0,6\O,0,0.24973,0.331677,-0.814561\C,0,1.003044,1.31736,-0.6409\C,0
 ,3.184033,0.004115,0.398894\C,0,2.53442,-0.988098,-0.24152\C,0,2.79028
 ,-1.284522,-1.694229\Fe,0,-1.468166,-0.142427,0.040211\Cl,0,-2.100008,
 -1.96112,-0.969649\C,0,1.609399,-1.961768,0.429498\Cl,0,-2.629892,1.65
 4445,-0.42901\Cl,0,-1.148564,-0.357645,2.199419\H,0,3.900074,0.588168,
 -0.180196\H,0,2.121347,-2.927566,0.541776\H,0,1.274711,-1.644976,1.417
 043\H,0,0.727421,-2.156188,-0.19076\H,0,3.169939,-2.308686,-1.804564\H
 ,0,1.857496,-1.237398,-2.270581\H,0,3.52419,-0.605523,-2.13822\C,0,3.1
 6653,0.290105,1.875518\H,0,4.03495,-0.173483,2.363462\H,0,3.233385,1.3
 64729,2.078116\H,0,2.271212,-0.091917,2.372865\C,0,0.892582,2.16983,0.
 582584\H,0,1.779966,2.785512,0.733786\H,0,0.030399,2.833835,0.419007\H
 ,0,0.678105,1.572917,1.469654\C,0,1.771843,1.842879,-1.813237\H,0,1.15
 8257,2.650304,-2.240294\H,0,2.728413,2.275446,-1.515992\H,0,1.905712,1
 .078536,-2.576634\\Version=ES64L-G16RevA.03\HF=-3033.1337958\S2=8.7629
 04\S2-1=0.\S2A=8.750051\RMSD=7.181e-09\PG=C01 [X(C8H16Cl3Fe1O1)]\\@


 OLD AGE AND TREACHERY WILL ALWAYS PREVAIL OVER YOUTH AND SKILL.
 Job cpu time:       0 days  1 hours 21 minutes  3.2 seconds.
 Elapsed time:       0 days  0 hours 20 minutes 19.0 seconds.
 File lengths (MBytes):  RWF=    173 Int=      0 D2E=      0 Chk=     13 Scr=      1
 Normal termination of Gaussian 16 at Tue Feb 11 23:38:17 2020.
 Initial command:
 /n/sw/g16_nehalem/g16/l1.exe "/scratch/Gau-17972.inp" -scrdir="/scratch/"
 Entering Link 1 = /n/sw/g16_nehalem/g16/l1.exe PID=     20982.
  
 Copyright (c) 1988,1990,1992,1993,1995,1998,2003,2009,2016,
            Gaussian, Inc.  All Rights Reserved.
  
 This is part of the Gaussian(R) 16 program.  It is based on
 the Gaussian(R) 09 system (copyright 2009, Gaussian, Inc.),
 the Gaussian(R) 03 system (copyright 2003, Gaussian, Inc.),
 the Gaussian(R) 98 system (copyright 1998, Gaussian, Inc.),
 the Gaussian(R) 94 system (copyright 1995, Gaussian, Inc.),
 the Gaussian 92(TM) system (copyright 1992, Gaussian, Inc.),
 the Gaussian 90(TM) system (copyright 1990, Gaussian, Inc.),
 the Gaussian 88(TM) system (copyright 1988, Gaussian, Inc.),
 the Gaussian 86(TM) system (copyright 1986, Carnegie Mellon
 University), and the Gaussian 82(TM) system (copyright 1983,
 Carnegie Mellon University). Gaussian is a federally registered
 trademark of Gaussian, Inc.
  
 This software contains proprietary and confidential information,
 including trade secrets, belonging to Gaussian, Inc.
  
 This software is provided under written license and may be
 used, copied, transmitted, or stored only in accord with that
 written license.
  
 The following legend is applicable only to US Government
 contracts under FAR:
  
                    RESTRICTED RIGHTS LEGEND
  
 Use, reproduction and disclosure by the US Government is
 subject to restrictions as set forth in subparagraphs (a)
 and (c) of the Commercial Computer Software - Restricted
 Rights clause in FAR 52.227-19.
  
 Gaussian, Inc.
 340 Quinnipiac St., Bldg. 40, Wallingford CT 06492
  
  
 ---------------------------------------------------------------
 Warning -- This program may not be used in any manner that
 competes with the business of Gaussian, Inc. or will provide
 assistance to any competitor of Gaussian, Inc.  The licensee
 of this program is prohibited from giving any competitor of
 Gaussian, Inc. access to this program.  By using this program,
 the user acknowledges that Gaussian, Inc. is engaged in the
 business of creating and licensing software in the field of
 computational chemistry and represents and warrants to the
 licensee that it is not a competitor of Gaussian, Inc. and that
 it will not use this program in any manner prohibited above.
 ---------------------------------------------------------------
  

 Cite this work as:
 Gaussian 16, Revision A.03,
 M. J. Frisch, G. W. Trucks, H. B. Schlegel, G. E. Scuseria, 
 M. A. Robb, J. R. Cheeseman, G. Scalmani, V. Barone, 
 G. A. Petersson, H. Nakatsuji, X. Li, M. Caricato, A. V. Marenich, 
 J. Bloino, B. G. Janesko, R. Gomperts, B. Mennucci, H. P. Hratchian, 
 J. V. Ortiz, A. F. Izmaylov, J. L. Sonnenberg, D. Williams-Young, 
 F. Ding, F. Lipparini, F. Egidi, J. Goings, B. Peng, A. Petrone, 
 T. Henderson, D. Ranasinghe, V. G. Zakrzewski, J. Gao, N. Rega, 
 G. Zheng, W. Liang, M. Hada, M. Ehara, K. Toyota, R. Fukuda, 
 J. Hasegawa, M. Ishida, T. Nakajima, Y. Honda, O. Kitao, H. Nakai, 
 T. Vreven, K. Throssell, J. A. Montgomery, Jr., J. E. Peralta, 
 F. Ogliaro, M. J. Bearpark, J. J. Heyd, E. N. Brothers, K. N. Kudin, 
 V. N. Staroverov, T. A. Keith, R. Kobayashi, J. Normand, 
 K. Raghavachari, A. P. Rendell, J. C. Burant, S. S. Iyengar, 
 J. Tomasi, M. Cossi, J. M. Millam, M. Klene, C. Adamo, R. Cammi, 
 J. W. Ochterski, R. L. Martin, K. Morokuma, O. Farkas, 
 J. B. Foresman, and D. J. Fox, Gaussian, Inc., Wallingford CT, 2016.
 
 ******************************************
 Gaussian 16:  ES64L-G16RevA.03 25-Dec-2016
                11-Feb-2020 
 ******************************************
 %chk=checkpoint.chk
 %mem=3GB
 %nprocshared=4
 Will use up to    4 processors via shared memory.
 ---------------------------------------------------------------------
 #t pop=none jul-cc-pvdz guess=read upbe1pbe empiricaldispersion=gd3bj
 ---------------------------------------------------------------------
 -----------------------------
 theory_abbreviation pbe0_d3bj
 -----------------------------
 Symbolic Z-matrix:
 Charge =  0 Multiplicity = 6
 O                     0.24973   0.33168  -0.81456 
 C                     1.00304   1.31736  -0.6409 
 C                     3.18403   0.00412   0.39889 
 C                     2.53442  -0.9881   -0.24152 
 C                     2.79028  -1.28452  -1.69423 
 Fe                   -1.46817  -0.14243   0.04021 
 Cl                   -2.10001  -1.96112  -0.96965 
 C                     1.6094   -1.96177   0.4295 
 Cl                   -2.62989   1.65445  -0.42901 
 Cl                   -1.14856  -0.35765   2.19942 
 H                     3.90007   0.58817  -0.1802 
 H                     2.12135  -2.92757   0.54178 
 H                     1.27471  -1.64498   1.41704 
 H                     0.72742  -2.15619  -0.19076 
 H                     3.16994  -2.30869  -1.80456 
 H                     1.8575   -1.2374   -2.27058 
 H                     3.52419  -0.60552  -2.13822 
 C                     3.16653   0.29011   1.87552 
 H                     4.03495  -0.17348   2.36346 
 H                     3.23339   1.36473   2.07812 
 H                     2.27121  -0.09192   2.37287 
 C                     0.89258   2.16983   0.58258 
 H                     1.77997   2.78551   0.73379 
 H                     0.0304    2.83384   0.41901 
 H                     0.67811   1.57292   1.46965 
 C                     1.77184   1.84288  -1.81324 
 H                     1.15826   2.6503   -2.24029 
 H                     2.72841   2.27545  -1.51599 
 H                     1.90571   1.07854  -2.57663 
 
                    Distance matrix (angstroms):
                    1          2          3          4          5
     1  O    0.000000
     2  C    1.252682   0.000000
     3  C    3.192163   2.749999   0.000000
     4  C    2.699998   2.796382   1.347818   0.000000
     5  C    3.136927   3.327688   2.489335   1.504558   0.000000
     6  Fe   1.976506   2.949876   4.668306   4.100637   4.737829
     7  Cl   3.286676   4.526084   5.801392   4.791124   4.989761
     8  C    2.942154   3.502299   2.518949   1.501320   2.522570
     9  Cl   3.192270   3.654688   6.100060   5.804163   6.294170
    10  Cl   3.393297   3.937318   4.705758   4.463186   5.615522
    11  H    3.713922   3.022706   1.090494   2.086477   2.651586
    12  H    3.995656   4.546286   3.121613   2.132069   2.854257
    13  H    3.152428   3.617232   2.720595   2.183847   3.479496
    14  H    2.608982   3.513421   3.324085   2.152268   2.697333
    15  H    4.059463   4.381525   3.194444   2.142649   1.097828
    16  H    2.677107   3.148450   3.229110   2.153477   1.097492
    17  H    3.654108   3.506512   2.631409   2.173357   1.093980
    18  C    3.968120   3.473944   1.504166   2.552492   3.919708
    19  H    4.968190   4.521201   2.148285   3.114662   4.387308
    20  H    4.282169   3.517060   2.161826   3.377138   4.630924
    21  H    3.798092   3.560490   2.176930   2.776225   4.270011
    22  C    2.396681   1.495266   3.158292   3.653394   4.551668
    23  H    3.280291   2.156117   3.133644   3.969957   4.845737
    24  H    2.798319   2.090248   4.237113   4.616664   5.389209
    25  H    2.634733   2.150659   3.144414   3.596223   4.757772
    26  C    2.365991   1.497196   3.204506   3.326597   3.291202
    27  H    2.869524   2.087796   4.251047   4.373430   4.294711
    28  H    3.227090   2.158845   3.005549   3.508936   3.564964
    29  H    2.530805   2.149166   3.412074   3.181039   2.673040
                    6          7          8          9         10
     6  Fe   0.000000
     7  Cl   2.174094   0.000000
     8  C    3.596241   3.964507   0.000000
     9  Cl   2.190553   3.693965   5.637874   0.000000
    10  Cl   2.193318   3.676870   3.648588   3.626497   0.000000
    11  H    5.422209   6.566817   3.481536   6.621126   5.660908
    12  H    4.570905   4.586748   1.098846   6.671696   4.477119
    13  H    3.417118   4.145476   1.089779   5.435073   2.853348
    14  H    2.988174   2.939230   1.095630   5.084215   3.530868
    15  H    5.441313   5.346983   2.747120   7.157974   6.203862
    16  H    4.195086   4.228243   2.806544   5.647193   5.458137
    17  H    5.466593   5.902102   3.478362   6.775070   6.380532
    18  C    5.003583   6.395265   3.096217   6.385200   4.375446
    19  H    5.973504   7.207148   3.580709   7.453814   5.189378
    20  H    5.341269   6.985358   4.052265   6.383387   4.709858
    21  H    4.407581   5.811530   2.776871   5.909408   3.434467
    22  C    3.348706   5.331957   4.196113   3.700914   3.628851
    23  H    4.427667   6.362893   4.760079   4.698750   4.539141
    24  H    3.353702   5.427577   5.048877   3.031046   3.839969
    25  H    3.097126   5.114443   3.800425   3.815025   2.756147
    26  C    4.227809   5.493021   4.419456   4.618102   5.428857
    27  H    4.460734   5.787578   5.348133   4.315386   5.837828
    28  H    5.087156   6.446754   4.794904   5.502600   5.980669
    29  H    4.440910   5.278987   4.285800   5.051303   5.848239
                   11         12         13         14         15
    11  H    0.000000
    12  H    4.005683   0.000000
    13  H    3.798768   1.768593   0.000000
    14  H    4.194917   1.753472   1.773667   0.000000
    15  H    3.400505   2.643458   3.796202   2.931469   0.000000
    16  H    3.445943   3.291753   3.755573   2.539075   1.757082
    17  H    2.323800   3.813428   4.333649   3.744206   1.771323
    18  C    2.202927   3.636576   2.744762   4.025308   4.505189
    19  H    2.658665   3.816463   3.268015   4.625464   4.762329
    20  H    2.479414   4.692629   3.651266   4.881036   5.345391
    21  H    3.103841   3.378794   2.078125   3.635475   4.813802
    22  C    3.482599   5.243565   3.923658   4.397701   5.562548
    23  H    3.187247   5.726488   4.511247   5.136442   5.858848
    24  H    4.514028   6.130324   4.754381   5.075233   6.422344
    25  H    3.751376   4.816456   3.273155   4.082356   5.656552
    26  C    2.961501   5.331546   4.779852   4.440246   4.380667
    27  H    4.001746   6.307146   5.642615   5.242955   5.369200
    28  H    2.450316   5.627990   5.107412   5.039800   4.614378
    29  H    3.156082   5.081322   4.874950   4.188580   3.696976
                   16         17         18         19         20
    16  H    0.000000
    17  H    1.787360   0.000000
    18  C    4.608359   4.127973   0.000000
    19  H    5.229491   4.551118   1.098707   0.000000
    20  H    5.251219   4.663041   1.095597   1.757847   0.000000
    21  H    4.800508   4.709950   1.093110   1.765648   1.770444
    22  C    4.547616   4.693689   3.221162   4.305475   2.892086
    23  H    5.021557   4.773872   3.074600   4.061582   2.436857
    24  H    5.210288   5.529482   4.292704   5.372271   3.894873
    25  H    4.824748   5.085524   2.828885   3.888086   2.634962
    26  C    3.115222   3.028367   4.238298   5.160638   4.184180
    27  H    3.950200   4.025974   5.152049   6.119126   4.960597
    28  H    3.697022   3.052935   3.954221   4.770163   3.741927
    29  H    2.336567   2.376496   4.693926   5.523201   4.848847
                   21         22         23         24         25
    21  H    0.000000
    22  C    3.197065   0.000000
    23  H    3.347760   1.090586   0.000000
    24  H    4.171190   1.100463   1.778315   0.000000
    25  H    2.474965   1.090504   1.796103   1.764454   0.000000
    26  C    4.638562   2.572927   2.715870   2.999589   3.470809
    27  H    5.480847   2.875774   3.041374   2.894413   3.892945
    28  H    4.575658   2.790242   2.494237   3.366794   3.689362
    29  H    5.099126   3.492565   3.726722   3.946104   4.257215
                   26         27         28         29
    26  C    0.000000
    27  H    1.100364   0.000000
    28  H    1.091098   1.769328   0.000000
    29  H    1.088539   1.772644   1.798442   0.000000
 Framework group  C1[X(C8H16Cl3FeO)]
 Deg. of freedom    81
                         Standard orientation:                         
 ---------------------------------------------------------------------
 Center     Atomic      Atomic             Coordinates (Angstroms)
 Number     Number       Type             X           Y           Z
 ---------------------------------------------------------------------
      1          8           0        0.249730    0.331677   -0.814561
      2          6           0        1.003044    1.317360   -0.640900
      3          6           0        3.184033    0.004115    0.398894
      4          6           0        2.534420   -0.988098   -0.241520
      5          6           0        2.790280   -1.284522   -1.694229
      6         26           0       -1.468166   -0.142427    0.040211
      7         17           0       -2.100008   -1.961120   -0.969649
      8          6           0        1.609399   -1.961768    0.429498
      9         17           0       -2.629892    1.654445   -0.429010
     10         17           0       -1.148564   -0.357645    2.199419
     11          1           0        3.900074    0.588168   -0.180196
     12          1           0        2.121347   -2.927566    0.541776
     13          1           0        1.274711   -1.644976    1.417043
     14          1           0        0.727421   -2.156188   -0.190760
     15          1           0        3.169939   -2.308686   -1.804564
     16          1           0        1.857496   -1.237398   -2.270581
     17          1           0        3.524190   -0.605523   -2.138220
     18          6           0        3.166530    0.290105    1.875518
     19          1           0        4.034950   -0.173483    2.363462
     20          1           0        3.233385    1.364729    2.078116
     21          1           0        2.271212   -0.091917    2.372865
     22          6           0        0.892582    2.169830    0.582584
     23          1           0        1.779966    2.785512    0.733786
     24          1           0        0.030399    2.833835    0.419007
     25          1           0        0.678105    1.572917    1.469654
     26          6           0        1.771843    1.842879   -1.813237
     27          1           0        1.158257    2.650304   -2.240294
     28          1           0        2.728413    2.275446   -1.515992
     29          1           0        1.905712    1.078536   -2.576634
 ---------------------------------------------------------------------
 Rotational constants (GHZ):           0.5685414           0.3253988           0.3067213
   427 basis functions,  1056 primitive gaussians,   461 cartesian basis functions
    77 alpha electrons       72 beta electrons
       nuclear repulsion energy      1627.0771624184 Hartrees.
 NAtoms=   29 NActive=   29 NUniq=   29 SFac= 1.00D+00 NAtFMM=   60 NAOKFM=F Big=F
 Nuclear repulsion after empirical dispersion term =     1627.0405030263 Hartrees.
 Initial guess from the checkpoint file:  "checkpoint.chk"
 B after Tr=     0.000000    0.000000    0.000000
         Rot=    1.000000    0.000000    0.000000    0.000000 Ang=   0.00 deg.
 Initial guess <Sx>= 0.0000 <Sy>= 0.0000 <Sz>= 2.5000 <S**2>= 8.7629 S= 2.5021
 SCF Done:  E(UPBE1PBE) =  -3033.17045524     A.U. after    1 cycles
            NFock=  1  Conv=0.36D-08     -V/T= 2.0021
 <Sx>= 0.0000 <Sy>= 0.0000 <Sz>= 2.5000 <S**2>= 8.7629 S= 2.5021
 <L.S>= 0.000000000000E+00
 Annihilation of the first spin contaminant:
 S**2 before annihilation     8.7629,   after     8.7501
 1\1\GINC-HOLY7C18409\SP\UPBE1PBE\Jul-CC-pVDZ\C8H16Cl3Fe1O1(6)\EKWAN\11
 -Feb-2020\0\\#t pop=none jul-cc-pvdz guess=read upbe1pbe empiricaldisp
 ersion=gd3bj\\theory_abbreviation pbe0_d3bj\\0,6\O,0,0.24973,0.331677,
 -0.814561\C,0,1.003044,1.31736,-0.6409\C,0,3.184033,0.004115,0.398894\
 C,0,2.53442,-0.988098,-0.24152\C,0,2.79028,-1.284522,-1.694229\Fe,0,-1
 .468166,-0.142427,0.040211\Cl,0,-2.100008,-1.96112,-0.969649\C,0,1.609
 399,-1.961768,0.429498\Cl,0,-2.629892,1.654445,-0.42901\Cl,0,-1.148564
 ,-0.357645,2.199419\H,0,3.900074,0.588168,-0.180196\H,0,2.121347,-2.92
 7566,0.541776\H,0,1.274711,-1.644976,1.417043\H,0,0.727421,-2.156188,-
 0.19076\H,0,3.169939,-2.308686,-1.804564\H,0,1.857496,-1.237398,-2.270
 581\H,0,3.52419,-0.605523,-2.13822\C,0,3.16653,0.290105,1.875518\H,0,4
 .03495,-0.173483,2.363462\H,0,3.233385,1.364729,2.078116\H,0,2.271212,
 -0.091917,2.372865\C,0,0.892582,2.16983,0.582584\H,0,1.779966,2.785512
 ,0.733786\H,0,0.030399,2.833835,0.419007\H,0,0.678105,1.572917,1.46965
 4\C,0,1.771843,1.842879,-1.813237\H,0,1.158257,2.650304,-2.240294\H,0,
 2.728413,2.275446,-1.515992\H,0,1.905712,1.078536,-2.576634\\Version=E
 S64L-G16RevA.03\HF=-3033.1704552\S2=8.762904\S2-1=0.\S2A=8.750051\RMSD
 =3.573e-09\PG=C01 [X(C8H16Cl3Fe1O1)]\\@


 THE DIFFERENCE BETWEEN A NOOSE AND A HALO IS ONLY 12 INCHES.
 Job cpu time:       0 days  0 hours  4 minutes 23.1 seconds.
 Elapsed time:       0 days  0 hours  1 minutes  6.1 seconds.
 File lengths (MBytes):  RWF=    170 Int=      0 D2E=      0 Chk=     13 Scr=      1
 Normal termination of Gaussian 16 at Tue Feb 11 23:39:24 2020.
 Initial command:
 /n/sw/g16_nehalem/g16/l1.exe "/scratch/Gau-17972.inp" -scrdir="/scratch/"
 Entering Link 1 = /n/sw/g16_nehalem/g16/l1.exe PID=     21158.
  
 Copyright (c) 1988,1990,1992,1993,1995,1998,2003,2009,2016,
            Gaussian, Inc.  All Rights Reserved.
  
 This is part of the Gaussian(R) 16 program.  It is based on
 the Gaussian(R) 09 system (copyright 2009, Gaussian, Inc.),
 the Gaussian(R) 03 system (copyright 2003, Gaussian, Inc.),
 the Gaussian(R) 98 system (copyright 1998, Gaussian, Inc.),
 the Gaussian(R) 94 system (copyright 1995, Gaussian, Inc.),
 the Gaussian 92(TM) system (copyright 1992, Gaussian, Inc.),
 the Gaussian 90(TM) system (copyright 1990, Gaussian, Inc.),
 the Gaussian 88(TM) system (copyright 1988, Gaussian, Inc.),
 the Gaussian 86(TM) system (copyright 1986, Carnegie Mellon
 University), and the Gaussian 82(TM) system (copyright 1983,
 Carnegie Mellon University). Gaussian is a federally registered
 trademark of Gaussian, Inc.
  
 This software contains proprietary and confidential information,
 including trade secrets, belonging to Gaussian, Inc.
  
 This software is provided under written license and may be
 used, copied, transmitted, or stored only in accord with that
 written license.
  
 The following legend is applicable only to US Government
 contracts under FAR:
  
                    RESTRICTED RIGHTS LEGEND
  
 Use, reproduction and disclosure by the US Government is
 subject to restrictions as set forth in subparagraphs (a)
 and (c) of the Commercial Computer Software - Restricted
 Rights clause in FAR 52.227-19.
  
 Gaussian, Inc.
 340 Quinnipiac St., Bldg. 40, Wallingford CT 06492
  
  
 ---------------------------------------------------------------
 Warning -- This program may not be used in any manner that
 competes with the business of Gaussian, Inc. or will provide
 assistance to any competitor of Gaussian, Inc.  The licensee
 of this program is prohibited from giving any competitor of
 Gaussian, Inc. access to this program.  By using this program,
 the user acknowledges that Gaussian, Inc. is engaged in the
 business of creating and licensing software in the field of
 computational chemistry and represents and warrants to the
 licensee that it is not a competitor of Gaussian, Inc. and that
 it will not use this program in any manner prohibited above.
 ---------------------------------------------------------------
  

 Cite this work as:
 Gaussian 16, Revision A.03,
 M. J. Frisch, G. W. Trucks, H. B. Schlegel, G. E. Scuseria, 
 M. A. Robb, J. R. Cheeseman, G. Scalmani, V. Barone, 
 G. A. Petersson, H. Nakatsuji, X. Li, M. Caricato, A. V. Marenich, 
 J. Bloino, B. G. Janesko, R. Gomperts, B. Mennucci, H. P. Hratchian, 
 J. V. Ortiz, A. F. Izmaylov, J. L. Sonnenberg, D. Williams-Young, 
 F. Ding, F. Lipparini, F. Egidi, J. Goings, B. Peng, A. Petrone, 
 T. Henderson, D. Ranasinghe, V. G. Zakrzewski, J. Gao, N. Rega, 
 G. Zheng, W. Liang, M. Hada, M. Ehara, K. Toyota, R. Fukuda, 
 J. Hasegawa, M. Ishida, T. Nakajima, Y. Honda, O. Kitao, H. Nakai, 
 T. Vreven, K. Throssell, J. A. Montgomery, Jr., J. E. Peralta, 
 F. Ogliaro, M. J. Bearpark, J. J. Heyd, E. N. Brothers, K. N. Kudin, 
 V. N. Staroverov, T. A. Keith, R. Kobayashi, J. Normand, 
 K. Raghavachari, A. P. Rendell, J. C. Burant, S. S. Iyengar, 
 J. Tomasi, M. Cossi, J. M. Millam, M. Klene, C. Adamo, R. Cammi, 
 J. W. Ochterski, R. L. Martin, K. Morokuma, O. Farkas, 
 J. B. Foresman, and D. J. Fox, Gaussian, Inc., Wallingford CT, 2016.
 
 ******************************************
 Gaussian 16:  ES64L-G16RevA.03 25-Dec-2016
                11-Feb-2020 
 ******************************************
 %chk=checkpoint.chk
 %mem=3GB
 %nprocshared=4
 Will use up to    4 processors via shared memory.
 -----------------------------------------
 #t pop=none jul-cc-pvdz guess=read ub3lyp
 -----------------------------------------
 -------------------------
 theory_abbreviation b3lyp
 -------------------------
 Symbolic Z-matrix:
 Charge =  0 Multiplicity = 6
 O                     0.24973   0.33168  -0.81456 
 C                     1.00304   1.31736  -0.6409 
 C                     3.18403   0.00412   0.39889 
 C                     2.53442  -0.9881   -0.24152 
 C                     2.79028  -1.28452  -1.69423 
 Fe                   -1.46817  -0.14243   0.04021 
 Cl                   -2.10001  -1.96112  -0.96965 
 C                     1.6094   -1.96177   0.4295 
 Cl                   -2.62989   1.65445  -0.42901 
 Cl                   -1.14856  -0.35765   2.19942 
 H                     3.90007   0.58817  -0.1802 
 H                     2.12135  -2.92757   0.54178 
 H                     1.27471  -1.64498   1.41704 
 H                     0.72742  -2.15619  -0.19076 
 H                     3.16994  -2.30869  -1.80456 
 H                     1.8575   -1.2374   -2.27058 
 H                     3.52419  -0.60552  -2.13822 
 C                     3.16653   0.29011   1.87552 
 H                     4.03495  -0.17348   2.36346 
 H                     3.23339   1.36473   2.07812 
 H                     2.27121  -0.09192   2.37287 
 C                     0.89258   2.16983   0.58258 
 H                     1.77997   2.78551   0.73379 
 H                     0.0304    2.83384   0.41901 
 H                     0.67811   1.57292   1.46965 
 C                     1.77184   1.84288  -1.81324 
 H                     1.15826   2.6503   -2.24029 
 H                     2.72841   2.27545  -1.51599 
 H                     1.90571   1.07854  -2.57663 
 
                    Distance matrix (angstroms):
                    1          2          3          4          5
     1  O    0.000000
     2  C    1.252682   0.000000
     3  C    3.192163   2.749999   0.000000
     4  C    2.699998   2.796382   1.347818   0.000000
     5  C    3.136927   3.327688   2.489335   1.504558   0.000000
     6  Fe   1.976506   2.949876   4.668306   4.100637   4.737829
     7  Cl   3.286676   4.526084   5.801392   4.791124   4.989761
     8  C    2.942154   3.502299   2.518949   1.501320   2.522570
     9  Cl   3.192270   3.654688   6.100060   5.804163   6.294170
    10  Cl   3.393297   3.937318   4.705758   4.463186   5.615522
    11  H    3.713922   3.022706   1.090494   2.086477   2.651586
    12  H    3.995656   4.546286   3.121613   2.132069   2.854257
    13  H    3.152428   3.617232   2.720595   2.183847   3.479496
    14  H    2.608982   3.513421   3.324085   2.152268   2.697333
    15  H    4.059463   4.381525   3.194444   2.142649   1.097828
    16  H    2.677107   3.148450   3.229110   2.153477   1.097492
    17  H    3.654108   3.506512   2.631409   2.173357   1.093980
    18  C    3.968120   3.473944   1.504166   2.552492   3.919708
    19  H    4.968190   4.521201   2.148285   3.114662   4.387308
    20  H    4.282169   3.517060   2.161826   3.377138   4.630924
    21  H    3.798092   3.560490   2.176930   2.776225   4.270011
    22  C    2.396681   1.495266   3.158292   3.653394   4.551668
    23  H    3.280291   2.156117   3.133644   3.969957   4.845737
    24  H    2.798319   2.090248   4.237113   4.616664   5.389209
    25  H    2.634733   2.150659   3.144414   3.596223   4.757772
    26  C    2.365991   1.497196   3.204506   3.326597   3.291202
    27  H    2.869524   2.087796   4.251047   4.373430   4.294711
    28  H    3.227090   2.158845   3.005549   3.508936   3.564964
    29  H    2.530805   2.149166   3.412074   3.181039   2.673040
                    6          7          8          9         10
     6  Fe   0.000000
     7  Cl   2.174094   0.000000
     8  C    3.596241   3.964507   0.000000
     9  Cl   2.190553   3.693965   5.637874   0.000000
    10  Cl   2.193318   3.676870   3.648588   3.626497   0.000000
    11  H    5.422209   6.566817   3.481536   6.621126   5.660908
    12  H    4.570905   4.586748   1.098846   6.671696   4.477119
    13  H    3.417118   4.145476   1.089779   5.435073   2.853348
    14  H    2.988174   2.939230   1.095630   5.084215   3.530868
    15  H    5.441313   5.346983   2.747120   7.157974   6.203862
    16  H    4.195086   4.228243   2.806544   5.647193   5.458137
    17  H    5.466593   5.902102   3.478362   6.775070   6.380532
    18  C    5.003583   6.395265   3.096217   6.385200   4.375446
    19  H    5.973504   7.207148   3.580709   7.453814   5.189378
    20  H    5.341269   6.985358   4.052265   6.383387   4.709858
    21  H    4.407581   5.811530   2.776871   5.909408   3.434467
    22  C    3.348706   5.331957   4.196113   3.700914   3.628851
    23  H    4.427667   6.362893   4.760079   4.698750   4.539141
    24  H    3.353702   5.427577   5.048877   3.031046   3.839969
    25  H    3.097126   5.114443   3.800425   3.815025   2.756147
    26  C    4.227809   5.493021   4.419456   4.618102   5.428857
    27  H    4.460734   5.787578   5.348133   4.315386   5.837828
    28  H    5.087156   6.446754   4.794904   5.502600   5.980669
    29  H    4.440910   5.278987   4.285800   5.051303   5.848239
                   11         12         13         14         15
    11  H    0.000000
    12  H    4.005683   0.000000
    13  H    3.798768   1.768593   0.000000
    14  H    4.194917   1.753472   1.773667   0.000000
    15  H    3.400505   2.643458   3.796202   2.931469   0.000000
    16  H    3.445943   3.291753   3.755573   2.539075   1.757082
    17  H    2.323800   3.813428   4.333649   3.744206   1.771323
    18  C    2.202927   3.636576   2.744762   4.025308   4.505189
    19  H    2.658665   3.816463   3.268015   4.625464   4.762329
    20  H    2.479414   4.692629   3.651266   4.881036   5.345391
    21  H    3.103841   3.378794   2.078125   3.635475   4.813802
    22  C    3.482599   5.243565   3.923658   4.397701   5.562548
    23  H    3.187247   5.726488   4.511247   5.136442   5.858848
    24  H    4.514028   6.130324   4.754381   5.075233   6.422344
    25  H    3.751376   4.816456   3.273155   4.082356   5.656552
    26  C    2.961501   5.331546   4.779852   4.440246   4.380667
    27  H    4.001746   6.307146   5.642615   5.242955   5.369200
    28  H    2.450316   5.627990   5.107412   5.039800   4.614378
    29  H    3.156082   5.081322   4.874950   4.188580   3.696976
                   16         17         18         19         20
    16  H    0.000000
    17  H    1.787360   0.000000
    18  C    4.608359   4.127973   0.000000
    19  H    5.229491   4.551118   1.098707   0.000000
    20  H    5.251219   4.663041   1.095597   1.757847   0.000000
    21  H    4.800508   4.709950   1.093110   1.765648   1.770444
    22  C    4.547616   4.693689   3.221162   4.305475   2.892086
    23  H    5.021557   4.773872   3.074600   4.061582   2.436857
    24  H    5.210288   5.529482   4.292704   5.372271   3.894873
    25  H    4.824748   5.085524   2.828885   3.888086   2.634962
    26  C    3.115222   3.028367   4.238298   5.160638   4.184180
    27  H    3.950200   4.025974   5.152049   6.119126   4.960597
    28  H    3.697022   3.052935   3.954221   4.770163   3.741927
    29  H    2.336567   2.376496   4.693926   5.523201   4.848847
                   21         22         23         24         25
    21  H    0.000000
    22  C    3.197065   0.000000
    23  H    3.347760   1.090586   0.000000
    24  H    4.171190   1.100463   1.778315   0.000000
    25  H    2.474965   1.090504   1.796103   1.764454   0.000000
    26  C    4.638562   2.572927   2.715870   2.999589   3.470809
    27  H    5.480847   2.875774   3.041374   2.894413   3.892945
    28  H    4.575658   2.790242   2.494237   3.366794   3.689362
    29  H    5.099126   3.492565   3.726722   3.946104   4.257215
                   26         27         28         29
    26  C    0.000000
    27  H    1.100364   0.000000
    28  H    1.091098   1.769328   0.000000
    29  H    1.088539   1.772644   1.798442   0.000000
 Framework group  C1[X(C8H16Cl3FeO)]
 Deg. of freedom    81
                         Standard orientation:                         
 ---------------------------------------------------------------------
 Center     Atomic      Atomic             Coordinates (Angstroms)
 Number     Number       Type             X           Y           Z
 ---------------------------------------------------------------------
      1          8           0        0.249730    0.331677   -0.814561
      2          6           0        1.003044    1.317360   -0.640900
      3          6           0        3.184033    0.004115    0.398894
      4          6           0        2.534420   -0.988098   -0.241520
      5          6           0        2.790280   -1.284522   -1.694229
      6         26           0       -1.468166   -0.142427    0.040211
      7         17           0       -2.100008   -1.961120   -0.969649
      8          6           0        1.609399   -1.961768    0.429498
      9         17           0       -2.629892    1.654445   -0.429010
     10         17           0       -1.148564   -0.357645    2.199419
     11          1           0        3.900074    0.588168   -0.180196
     12          1           0        2.121347   -2.927566    0.541776
     13          1           0        1.274711   -1.644976    1.417043
     14          1           0        0.727421   -2.156188   -0.190760
     15          1           0        3.169939   -2.308686   -1.804564
     16          1           0        1.857496   -1.237398   -2.270581
     17          1           0        3.524190   -0.605523   -2.138220
     18          6           0        3.166530    0.290105    1.875518
     19          1           0        4.034950   -0.173483    2.363462
     20          1           0        3.233385    1.364729    2.078116
     21          1           0        2.271212   -0.091917    2.372865
     22          6           0        0.892582    2.169830    0.582584
     23          1           0        1.779966    2.785512    0.733786
     24          1           0        0.030399    2.833835    0.419007
     25          1           0        0.678105    1.572917    1.469654
     26          6           0        1.771843    1.842879   -1.813237
     27          1           0        1.158257    2.650304   -2.240294
     28          1           0        2.728413    2.275446   -1.515992
     29          1           0        1.905712    1.078536   -2.576634
 ---------------------------------------------------------------------
 Rotational constants (GHZ):           0.5685414           0.3253988           0.3067213
   427 basis functions,  1056 primitive gaussians,   461 cartesian basis functions
    77 alpha electrons       72 beta electrons
       nuclear repulsion energy      1627.0771624184 Hartrees.
 NAtoms=   29 NActive=   29 NUniq=   29 SFac= 1.00D+00 NAtFMM=   60 NAOKFM=F Big=F
 Initial guess from the checkpoint file:  "checkpoint.chk"
 B after Tr=     0.000000    0.000000    0.000000
         Rot=    1.000000    0.000000    0.000000    0.000000 Ang=   0.00 deg.
 Initial guess <Sx>= 0.0000 <Sy>= 0.0000 <Sz>= 2.5000 <S**2>= 8.7629 S= 2.5021
 SCF Done:  E(UB3LYP) =  -3034.35170554     A.U. after   13 cycles
            NFock= 13  Conv=0.81D-08     -V/T= 2.0024
 <Sx>= 0.0000 <Sy>= 0.0000 <Sz>= 2.5000 <S**2>= 8.7622 S= 2.5020
 <L.S>= 0.000000000000E+00
 Annihilation of the first spin contaminant:
 S**2 before annihilation     8.7622,   after     8.7500
 1\1\GINC-HOLY7C18409\SP\UB3LYP\Jul-CC-pVDZ\C8H16Cl3Fe1O1(6)\EKWAN\11-F
 eb-2020\0\\#t pop=none jul-cc-pvdz guess=read ub3lyp\\theory_abbreviat
 ion b3lyp\\0,6\O,0,0.24973,0.331677,-0.814561\C,0,1.003044,1.31736,-0.
 6409\C,0,3.184033,0.004115,0.398894\C,0,2.53442,-0.988098,-0.24152\C,0
 ,2.79028,-1.284522,-1.694229\Fe,0,-1.468166,-0.142427,0.040211\Cl,0,-2
 .100008,-1.96112,-0.969649\C,0,1.609399,-1.961768,0.429498\Cl,0,-2.629
 892,1.654445,-0.42901\Cl,0,-1.148564,-0.357645,2.199419\H,0,3.900074,0
 .588168,-0.180196\H,0,2.121347,-2.927566,0.541776\H,0,1.274711,-1.6449
 76,1.417043\H,0,0.727421,-2.156188,-0.19076\H,0,3.169939,-2.308686,-1.
 804564\H,0,1.857496,-1.237398,-2.270581\H,0,3.52419,-0.605523,-2.13822
 \C,0,3.16653,0.290105,1.875518\H,0,4.03495,-0.173483,2.363462\H,0,3.23
 3385,1.364729,2.078116\H,0,2.271212,-0.091917,2.372865\C,0,0.892582,2.
 16983,0.582584\H,0,1.779966,2.785512,0.733786\H,0,0.030399,2.833835,0.
 419007\H,0,0.678105,1.572917,1.469654\C,0,1.771843,1.842879,-1.813237\
 H,0,1.158257,2.650304,-2.240294\H,0,2.728413,2.275446,-1.515992\H,0,1.
 905712,1.078536,-2.576634\\Version=ES64L-G16RevA.03\HF=-3034.3517055\S
 2=8.762179\S2-1=0.\S2A=8.750046\RMSD=8.094e-09\PG=C01 [X(C8H16Cl3Fe1O1
 )]\\@


 TIME GOES, YOU SAY?  AH NO!
 ALAS, TIME STAYS, WE GO.
    -- A. DOBSON (1840-1921)
 Job cpu time:       0 days  0 hours 52 minutes  9.6 seconds.
 Elapsed time:       0 days  0 hours 13 minutes  4.5 seconds.
 File lengths (MBytes):  RWF=    174 Int=      0 D2E=      0 Chk=     13 Scr=      1
 Normal termination of Gaussian 16 at Tue Feb 11 23:52:29 2020.
 Initial command:
 /n/sw/g16_nehalem/g16/l1.exe "/scratch/Gau-17972.inp" -scrdir="/scratch/"
 Entering Link 1 = /n/sw/g16_nehalem/g16/l1.exe PID=     22447.
  
 Copyright (c) 1988,1990,1992,1993,1995,1998,2003,2009,2016,
            Gaussian, Inc.  All Rights Reserved.
  
 This is part of the Gaussian(R) 16 program.  It is based on
 the Gaussian(R) 09 system (copyright 2009, Gaussian, Inc.),
 the Gaussian(R) 03 system (copyright 2003, Gaussian, Inc.),
 the Gaussian(R) 98 system (copyright 1998, Gaussian, Inc.),
 the Gaussian(R) 94 system (copyright 1995, Gaussian, Inc.),
 the Gaussian 92(TM) system (copyright 1992, Gaussian, Inc.),
 the Gaussian 90(TM) system (copyright 1990, Gaussian, Inc.),
 the Gaussian 88(TM) system (copyright 1988, Gaussian, Inc.),
 the Gaussian 86(TM) system (copyright 1986, Carnegie Mellon
 University), and the Gaussian 82(TM) system (copyright 1983,
 Carnegie Mellon University). Gaussian is a federally registered
 trademark of Gaussian, Inc.
  
 This software contains proprietary and confidential information,
 including trade secrets, belonging to Gaussian, Inc.
  
 This software is provided under written license and may be
 used, copied, transmitted, or stored only in accord with that
 written license.
  
 The following legend is applicable only to US Government
 contracts under FAR:
  
                    RESTRICTED RIGHTS LEGEND
  
 Use, reproduction and disclosure by the US Government is
 subject to restrictions as set forth in subparagraphs (a)
 and (c) of the Commercial Computer Software - Restricted
 Rights clause in FAR 52.227-19.
  
 Gaussian, Inc.
 340 Quinnipiac St., Bldg. 40, Wallingford CT 06492
  
  
 ---------------------------------------------------------------
 Warning -- This program may not be used in any manner that
 competes with the business of Gaussian, Inc. or will provide
 assistance to any competitor of Gaussian, Inc.  The licensee
 of this program is prohibited from giving any competitor of
 Gaussian, Inc. access to this program.  By using this program,
 the user acknowledges that Gaussian, Inc. is engaged in the
 business of creating and licensing software in the field of
 computational chemistry and represents and warrants to the
 licensee that it is not a competitor of Gaussian, Inc. and that
 it will not use this program in any manner prohibited above.
 ---------------------------------------------------------------
  

 Cite this work as:
 Gaussian 16, Revision A.03,
 M. J. Frisch, G. W. Trucks, H. B. Schlegel, G. E. Scuseria, 
 M. A. Robb, J. R. Cheeseman, G. Scalmani, V. Barone, 
 G. A. Petersson, H. Nakatsuji, X. Li, M. Caricato, A. V. Marenich, 
 J. Bloino, B. G. Janesko, R. Gomperts, B. Mennucci, H. P. Hratchian, 
 J. V. Ortiz, A. F. Izmaylov, J. L. Sonnenberg, D. Williams-Young, 
 F. Ding, F. Lipparini, F. Egidi, J. Goings, B. Peng, A. Petrone, 
 T. Henderson, D. Ranasinghe, V. G. Zakrzewski, J. Gao, N. Rega, 
 G. Zheng, W. Liang, M. Hada, M. Ehara, K. Toyota, R. Fukuda, 
 J. Hasegawa, M. Ishida, T. Nakajima, Y. Honda, O. Kitao, H. Nakai, 
 T. Vreven, K. Throssell, J. A. Montgomery, Jr., J. E. Peralta, 
 F. Ogliaro, M. J. Bearpark, J. J. Heyd, E. N. Brothers, K. N. Kudin, 
 V. N. Staroverov, T. A. Keith, R. Kobayashi, J. Normand, 
 K. Raghavachari, A. P. Rendell, J. C. Burant, S. S. Iyengar, 
 J. Tomasi, M. Cossi, J. M. Millam, M. Klene, C. Adamo, R. Cammi, 
 J. W. Ochterski, R. L. Martin, K. Morokuma, O. Farkas, 
 J. B. Foresman, and D. J. Fox, Gaussian, Inc., Wallingford CT, 2016.
 
 ******************************************
 Gaussian 16:  ES64L-G16RevA.03 25-Dec-2016
                11-Feb-2020 
 ******************************************
 %chk=checkpoint.chk
 %mem=3GB
 %nprocshared=4
 Will use up to    4 processors via shared memory.
 -------------------------------------------------------------------
 #t pop=none jul-cc-pvdz guess=read ub3lyp empiricaldispersion=gd3bj
 -------------------------------------------------------------------
 ------------------------------
 theory_abbreviation b3lyp_d3bj
 ------------------------------
 Symbolic Z-matrix:
 Charge =  0 Multiplicity = 6
 O                     0.24973   0.33168  -0.81456 
 C                     1.00304   1.31736  -0.6409 
 C                     3.18403   0.00412   0.39889 
 C                     2.53442  -0.9881   -0.24152 
 C                     2.79028  -1.28452  -1.69423 
 Fe                   -1.46817  -0.14243   0.04021 
 Cl                   -2.10001  -1.96112  -0.96965 
 C                     1.6094   -1.96177   0.4295 
 Cl                   -2.62989   1.65445  -0.42901 
 Cl                   -1.14856  -0.35765   2.19942 
 H                     3.90007   0.58817  -0.1802 
 H                     2.12135  -2.92757   0.54178 
 H                     1.27471  -1.64498   1.41704 
 H                     0.72742  -2.15619  -0.19076 
 H                     3.16994  -2.30869  -1.80456 
 H                     1.8575   -1.2374   -2.27058 
 H                     3.52419  -0.60552  -2.13822 
 C                     3.16653   0.29011   1.87552 
 H                     4.03495  -0.17348   2.36346 
 H                     3.23339   1.36473   2.07812 
 H                     2.27121  -0.09192   2.37287 
 C                     0.89258   2.16983   0.58258 
 H                     1.77997   2.78551   0.73379 
 H                     0.0304    2.83384   0.41901 
 H                     0.67811   1.57292   1.46965 
 C                     1.77184   1.84288  -1.81324 
 H                     1.15826   2.6503   -2.24029 
 H                     2.72841   2.27545  -1.51599 
 H                     1.90571   1.07854  -2.57663 
 
                    Distance matrix (angstroms):
                    1          2          3          4          5
     1  O    0.000000
     2  C    1.252682   0.000000
     3  C    3.192163   2.749999   0.000000
     4  C    2.699998   2.796382   1.347818   0.000000
     5  C    3.136927   3.327688   2.489335   1.504558   0.000000
     6  Fe   1.976506   2.949876   4.668306   4.100637   4.737829
     7  Cl   3.286676   4.526084   5.801392   4.791124   4.989761
     8  C    2.942154   3.502299   2.518949   1.501320   2.522570
     9  Cl   3.192270   3.654688   6.100060   5.804163   6.294170
    10  Cl   3.393297   3.937318   4.705758   4.463186   5.615522
    11  H    3.713922   3.022706   1.090494   2.086477   2.651586
    12  H    3.995656   4.546286   3.121613   2.132069   2.854257
    13  H    3.152428   3.617232   2.720595   2.183847   3.479496
    14  H    2.608982   3.513421   3.324085   2.152268   2.697333
    15  H    4.059463   4.381525   3.194444   2.142649   1.097828
    16  H    2.677107   3.148450   3.229110   2.153477   1.097492
    17  H    3.654108   3.506512   2.631409   2.173357   1.093980
    18  C    3.968120   3.473944   1.504166   2.552492   3.919708
    19  H    4.968190   4.521201   2.148285   3.114662   4.387308
    20  H    4.282169   3.517060   2.161826   3.377138   4.630924
    21  H    3.798092   3.560490   2.176930   2.776225   4.270011
    22  C    2.396681   1.495266   3.158292   3.653394   4.551668
    23  H    3.280291   2.156117   3.133644   3.969957   4.845737
    24  H    2.798319   2.090248   4.237113   4.616664   5.389209
    25  H    2.634733   2.150659   3.144414   3.596223   4.757772
    26  C    2.365991   1.497196   3.204506   3.326597   3.291202
    27  H    2.869524   2.087796   4.251047   4.373430   4.294711
    28  H    3.227090   2.158845   3.005549   3.508936   3.564964
    29  H    2.530805   2.149166   3.412074   3.181039   2.673040
                    6          7          8          9         10
     6  Fe   0.000000
     7  Cl   2.174094   0.000000
     8  C    3.596241   3.964507   0.000000
     9  Cl   2.190553   3.693965   5.637874   0.000000
    10  Cl   2.193318   3.676870   3.648588   3.626497   0.000000
    11  H    5.422209   6.566817   3.481536   6.621126   5.660908
    12  H    4.570905   4.586748   1.098846   6.671696   4.477119
    13  H    3.417118   4.145476   1.089779   5.435073   2.853348
    14  H    2.988174   2.939230   1.095630   5.084215   3.530868
    15  H    5.441313   5.346983   2.747120   7.157974   6.203862
    16  H    4.195086   4.228243   2.806544   5.647193   5.458137
    17  H    5.466593   5.902102   3.478362   6.775070   6.380532
    18  C    5.003583   6.395265   3.096217   6.385200   4.375446
    19  H    5.973504   7.207148   3.580709   7.453814   5.189378
    20  H    5.341269   6.985358   4.052265   6.383387   4.709858
    21  H    4.407581   5.811530   2.776871   5.909408   3.434467
    22  C    3.348706   5.331957   4.196113   3.700914   3.628851
    23  H    4.427667   6.362893   4.760079   4.698750   4.539141
    24  H    3.353702   5.427577   5.048877   3.031046   3.839969
    25  H    3.097126   5.114443   3.800425   3.815025   2.756147
    26  C    4.227809   5.493021   4.419456   4.618102   5.428857
    27  H    4.460734   5.787578   5.348133   4.315386   5.837828
    28  H    5.087156   6.446754   4.794904   5.502600   5.980669
    29  H    4.440910   5.278987   4.285800   5.051303   5.848239
                   11         12         13         14         15
    11  H    0.000000
    12  H    4.005683   0.000000
    13  H    3.798768   1.768593   0.000000
    14  H    4.194917   1.753472   1.773667   0.000000
    15  H    3.400505   2.643458   3.796202   2.931469   0.000000
    16  H    3.445943   3.291753   3.755573   2.539075   1.757082
    17  H    2.323800   3.813428   4.333649   3.744206   1.771323
    18  C    2.202927   3.636576   2.744762   4.025308   4.505189
    19  H    2.658665   3.816463   3.268015   4.625464   4.762329
    20  H    2.479414   4.692629   3.651266   4.881036   5.345391
    21  H    3.103841   3.378794   2.078125   3.635475   4.813802
    22  C    3.482599   5.243565   3.923658   4.397701   5.562548
    23  H    3.187247   5.726488   4.511247   5.136442   5.858848
    24  H    4.514028   6.130324   4.754381   5.075233   6.422344
    25  H    3.751376   4.816456   3.273155   4.082356   5.656552
    26  C    2.961501   5.331546   4.779852   4.440246   4.380667
    27  H    4.001746   6.307146   5.642615   5.242955   5.369200
    28  H    2.450316   5.627990   5.107412   5.039800   4.614378
    29  H    3.156082   5.081322   4.874950   4.188580   3.696976
                   16         17         18         19         20
    16  H    0.000000
    17  H    1.787360   0.000000
    18  C    4.608359   4.127973   0.000000
    19  H    5.229491   4.551118   1.098707   0.000000
    20  H    5.251219   4.663041   1.095597   1.757847   0.000000
    21  H    4.800508   4.709950   1.093110   1.765648   1.770444
    22  C    4.547616   4.693689   3.221162   4.305475   2.892086
    23  H    5.021557   4.773872   3.074600   4.061582   2.436857
    24  H    5.210288   5.529482   4.292704   5.372271   3.894873
    25  H    4.824748   5.085524   2.828885   3.888086   2.634962
    26  C    3.115222   3.028367   4.238298   5.160638   4.184180
    27  H    3.950200   4.025974   5.152049   6.119126   4.960597
    28  H    3.697022   3.052935   3.954221   4.770163   3.741927
    29  H    2.336567   2.376496   4.693926   5.523201   4.848847
                   21         22         23         24         25
    21  H    0.000000
    22  C    3.197065   0.000000
    23  H    3.347760   1.090586   0.000000
    24  H    4.171190   1.100463   1.778315   0.000000
    25  H    2.474965   1.090504   1.796103   1.764454   0.000000
    26  C    4.638562   2.572927   2.715870   2.999589   3.470809
    27  H    5.480847   2.875774   3.041374   2.894413   3.892945
    28  H    4.575658   2.790242   2.494237   3.366794   3.689362
    29  H    5.099126   3.492565   3.726722   3.946104   4.257215
                   26         27         28         29
    26  C    0.000000
    27  H    1.100364   0.000000
    28  H    1.091098   1.769328   0.000000
    29  H    1.088539   1.772644   1.798442   0.000000
 Framework group  C1[X(C8H16Cl3FeO)]
 Deg. of freedom    81
                         Standard orientation:                         
 ---------------------------------------------------------------------
 Center     Atomic      Atomic             Coordinates (Angstroms)
 Number     Number       Type             X           Y           Z
 ---------------------------------------------------------------------
      1          8           0        0.249730    0.331677   -0.814561
      2          6           0        1.003044    1.317360   -0.640900
      3          6           0        3.184033    0.004115    0.398894
      4          6           0        2.534420   -0.988098   -0.241520
      5          6           0        2.790280   -1.284522   -1.694229
      6         26           0       -1.468166   -0.142427    0.040211
      7         17           0       -2.100008   -1.961120   -0.969649
      8          6           0        1.609399   -1.961768    0.429498
      9         17           0       -2.629892    1.654445   -0.429010
     10         17           0       -1.148564   -0.357645    2.199419
     11          1           0        3.900074    0.588168   -0.180196
     12          1           0        2.121347   -2.927566    0.541776
     13          1           0        1.274711   -1.644976    1.417043
     14          1           0        0.727421   -2.156188   -0.190760
     15          1           0        3.169939   -2.308686   -1.804564
     16          1           0        1.857496   -1.237398   -2.270581
     17          1           0        3.524190   -0.605523   -2.138220
     18          6           0        3.166530    0.290105    1.875518
     19          1           0        4.034950   -0.173483    2.363462
     20          1           0        3.233385    1.364729    2.078116
     21          1           0        2.271212   -0.091917    2.372865
     22          6           0        0.892582    2.169830    0.582584
     23          1           0        1.779966    2.785512    0.733786
     24          1           0        0.030399    2.833835    0.419007
     25          1           0        0.678105    1.572917    1.469654
     26          6           0        1.771843    1.842879   -1.813237
     27          1           0        1.158257    2.650304   -2.240294
     28          1           0        2.728413    2.275446   -1.515992
     29          1           0        1.905712    1.078536   -2.576634
 ---------------------------------------------------------------------
 Rotational constants (GHZ):           0.5685414           0.3253988           0.3067213
   427 basis functions,  1056 primitive gaussians,   461 cartesian basis functions
    77 alpha electrons       72 beta electrons
       nuclear repulsion energy      1627.0771624184 Hartrees.
 NAtoms=   29 NActive=   29 NUniq=   29 SFac= 1.00D+00 NAtFMM=   60 NAOKFM=F Big=F
 Nuclear repulsion after empirical dispersion term =     1627.0092206793 Hartrees.
 Initial guess from the checkpoint file:  "checkpoint.chk"
 B after Tr=     0.000000    0.000000    0.000000
         Rot=    1.000000    0.000000    0.000000    0.000000 Ang=   0.00 deg.
 Initial guess <Sx>= 0.0000 <Sy>= 0.0000 <Sz>= 2.5000 <S**2>= 8.7622 S= 2.5020
 SCF Done:  E(UB3LYP) =  -3034.41964728     A.U. after    1 cycles
            NFock=  1  Conv=0.60D-08     -V/T= 2.0024
 <Sx>= 0.0000 <Sy>= 0.0000 <Sz>= 2.5000 <S**2>= 8.7622 S= 2.5020
 <L.S>= 0.000000000000E+00
 Annihilation of the first spin contaminant:
 S**2 before annihilation     8.7622,   after     8.7500
 1\1\GINC-HOLY7C18409\SP\UB3LYP\Jul-CC-pVDZ\C8H16Cl3Fe1O1(6)\EKWAN\11-F
 eb-2020\0\\#t pop=none jul-cc-pvdz guess=read ub3lyp empiricaldispersi
 on=gd3bj\\theory_abbreviation b3lyp_d3bj\\0,6\O,0,0.24973,0.331677,-0.
 814561\C,0,1.003044,1.31736,-0.6409\C,0,3.184033,0.004115,0.398894\C,0
 ,2.53442,-0.988098,-0.24152\C,0,2.79028,-1.284522,-1.694229\Fe,0,-1.46
 8166,-0.142427,0.040211\Cl,0,-2.100008,-1.96112,-0.969649\C,0,1.609399
 ,-1.961768,0.429498\Cl,0,-2.629892,1.654445,-0.42901\Cl,0,-1.148564,-0
 .357645,2.199419\H,0,3.900074,0.588168,-0.180196\H,0,2.121347,-2.92756
 6,0.541776\H,0,1.274711,-1.644976,1.417043\H,0,0.727421,-2.156188,-0.1
 9076\H,0,3.169939,-2.308686,-1.804564\H,0,1.857496,-1.237398,-2.270581
 \H,0,3.52419,-0.605523,-2.13822\C,0,3.16653,0.290105,1.875518\H,0,4.03
 495,-0.173483,2.363462\H,0,3.233385,1.364729,2.078116\H,0,2.271212,-0.
 091917,2.372865\C,0,0.892582,2.16983,0.582584\H,0,1.779966,2.785512,0.
 733786\H,0,0.030399,2.833835,0.419007\H,0,0.678105,1.572917,1.469654\C
 ,0,1.771843,1.842879,-1.813237\H,0,1.158257,2.650304,-2.240294\H,0,2.7
 28413,2.275446,-1.515992\H,0,1.905712,1.078536,-2.576634\\Version=ES64
 L-G16RevA.03\HF=-3034.4196473\S2=8.762179\S2-1=0.\S2A=8.750046\RMSD=5.
 972e-09\PG=C01 [X(C8H16Cl3Fe1O1)]\\@


 ARTHROPOD AXIOM: A COMPUTER SYSTEM IS LIKE A SPIDER'S WEB.
 YOU CANNOT PULL ON ONE END WITHOUT MAKING THE OTHER END MOVE.
     -- GREG WETTSTEIN
 Job cpu time:       0 days  0 hours  4 minutes 22.7 seconds.
 Elapsed time:       0 days  0 hours  1 minutes  6.0 seconds.
 File lengths (MBytes):  RWF=    170 Int=      0 D2E=      0 Chk=     13 Scr=      1
 Normal termination of Gaussian 16 at Tue Feb 11 23:53:36 2020.
 Initial command:
 /n/sw/g16_nehalem/g16/l1.exe "/scratch/Gau-17972.inp" -scrdir="/scratch/"
 Entering Link 1 = /n/sw/g16_nehalem/g16/l1.exe PID=     22651.
  
 Copyright (c) 1988,1990,1992,1993,1995,1998,2003,2009,2016,
            Gaussian, Inc.  All Rights Reserved.
  
 This is part of the Gaussian(R) 16 program.  It is based on
 the Gaussian(R) 09 system (copyright 2009, Gaussian, Inc.),
 the Gaussian(R) 03 system (copyright 2003, Gaussian, Inc.),
 the Gaussian(R) 98 system (copyright 1998, Gaussian, Inc.),
 the Gaussian(R) 94 system (copyright 1995, Gaussian, Inc.),
 the Gaussian 92(TM) system (copyright 1992, Gaussian, Inc.),
 the Gaussian 90(TM) system (copyright 1990, Gaussian, Inc.),
 the Gaussian 88(TM) system (copyright 1988, Gaussian, Inc.),
 the Gaussian 86(TM) system (copyright 1986, Carnegie Mellon
 University), and the Gaussian 82(TM) system (copyright 1983,
 Carnegie Mellon University). Gaussian is a federally registered
 trademark of Gaussian, Inc.
  
 This software contains proprietary and confidential information,
 including trade secrets, belonging to Gaussian, Inc.
  
 This software is provided under written license and may be
 used, copied, transmitted, or stored only in accord with that
 written license.
  
 The following legend is applicable only to US Government
 contracts under FAR:
  
                    RESTRICTED RIGHTS LEGEND
  
 Use, reproduction and disclosure by the US Government is
 subject to restrictions as set forth in subparagraphs (a)
 and (c) of the Commercial Computer Software - Restricted
 Rights clause in FAR 52.227-19.
  
 Gaussian, Inc.
 340 Quinnipiac St., Bldg. 40, Wallingford CT 06492
  
  
 ---------------------------------------------------------------
 Warning -- This program may not be used in any manner that
 competes with the business of Gaussian, Inc. or will provide
 assistance to any competitor of Gaussian, Inc.  The licensee
 of this program is prohibited from giving any competitor of
 Gaussian, Inc. access to this program.  By using this program,
 the user acknowledges that Gaussian, Inc. is engaged in the
 business of creating and licensing software in the field of
 computational chemistry and represents and warrants to the
 licensee that it is not a competitor of Gaussian, Inc. and that
 it will not use this program in any manner prohibited above.
 ---------------------------------------------------------------
  

 Cite this work as:
 Gaussian 16, Revision A.03,
 M. J. Frisch, G. W. Trucks, H. B. Schlegel, G. E. Scuseria, 
 M. A. Robb, J. R. Cheeseman, G. Scalmani, V. Barone, 
 G. A. Petersson, H. Nakatsuji, X. Li, M. Caricato, A. V. Marenich, 
 J. Bloino, B. G. Janesko, R. Gomperts, B. Mennucci, H. P. Hratchian, 
 J. V. Ortiz, A. F. Izmaylov, J. L. Sonnenberg, D. Williams-Young, 
 F. Ding, F. Lipparini, F. Egidi, J. Goings, B. Peng, A. Petrone, 
 T. Henderson, D. Ranasinghe, V. G. Zakrzewski, J. Gao, N. Rega, 
 G. Zheng, W. Liang, M. Hada, M. Ehara, K. Toyota, R. Fukuda, 
 J. Hasegawa, M. Ishida, T. Nakajima, Y. Honda, O. Kitao, H. Nakai, 
 T. Vreven, K. Throssell, J. A. Montgomery, Jr., J. E. Peralta, 
 F. Ogliaro, M. J. Bearpark, J. J. Heyd, E. N. Brothers, K. N. Kudin, 
 V. N. Staroverov, T. A. Keith, R. Kobayashi, J. Normand, 
 K. Raghavachari, A. P. Rendell, J. C. Burant, S. S. Iyengar, 
 J. Tomasi, M. Cossi, J. M. Millam, M. Klene, C. Adamo, R. Cammi, 
 J. W. Ochterski, R. L. Martin, K. Morokuma, O. Farkas, 
 J. B. Foresman, and D. J. Fox, Gaussian, Inc., Wallingford CT, 2016.
 
 ******************************************
 Gaussian 16:  ES64L-G16RevA.03 25-Dec-2016
                11-Feb-2020 
 ******************************************
 %chk=checkpoint.chk
 %mem=3GB
 %nprocshared=4
 Will use up to    4 processors via shared memory.
 ----------------------------------------
 #t pop=none jul-cc-pvdz guess=read ub97d
 ----------------------------------------
 ------------------------
 theory_abbreviation b97d
 ------------------------
 Symbolic Z-matrix:
 Charge =  0 Multiplicity = 6
 O                     0.24973   0.33168  -0.81456 
 C                     1.00304   1.31736  -0.6409 
 C                     3.18403   0.00412   0.39889 
 C                     2.53442  -0.9881   -0.24152 
 C                     2.79028  -1.28452  -1.69423 
 Fe                   -1.46817  -0.14243   0.04021 
 Cl                   -2.10001  -1.96112  -0.96965 
 C                     1.6094   -1.96177   0.4295 
 Cl                   -2.62989   1.65445  -0.42901 
 Cl                   -1.14856  -0.35765   2.19942 
 H                     3.90007   0.58817  -0.1802 
 H                     2.12135  -2.92757   0.54178 
 H                     1.27471  -1.64498   1.41704 
 H                     0.72742  -2.15619  -0.19076 
 H                     3.16994  -2.30869  -1.80456 
 H                     1.8575   -1.2374   -2.27058 
 H                     3.52419  -0.60552  -2.13822 
 C                     3.16653   0.29011   1.87552 
 H                     4.03495  -0.17348   2.36346 
 H                     3.23339   1.36473   2.07812 
 H                     2.27121  -0.09192   2.37287 
 C                     0.89258   2.16983   0.58258 
 H                     1.77997   2.78551   0.73379 
 H                     0.0304    2.83384   0.41901 
 H                     0.67811   1.57292   1.46965 
 C                     1.77184   1.84288  -1.81324 
 H                     1.15826   2.6503   -2.24029 
 H                     2.72841   2.27545  -1.51599 
 H                     1.90571   1.07854  -2.57663 
 
                    Distance matrix (angstroms):
                    1          2          3          4          5
     1  O    0.000000
     2  C    1.252682   0.000000
     3  C    3.192163   2.749999   0.000000
     4  C    2.699998   2.796382   1.347818   0.000000
     5  C    3.136927   3.327688   2.489335   1.504558   0.000000
     6  Fe   1.976506   2.949876   4.668306   4.100637   4.737829
     7  Cl   3.286676   4.526084   5.801392   4.791124   4.989761
     8  C    2.942154   3.502299   2.518949   1.501320   2.522570
     9  Cl   3.192270   3.654688   6.100060   5.804163   6.294170
    10  Cl   3.393297   3.937318   4.705758   4.463186   5.615522
    11  H    3.713922   3.022706   1.090494   2.086477   2.651586
    12  H    3.995656   4.546286   3.121613   2.132069   2.854257
    13  H    3.152428   3.617232   2.720595   2.183847   3.479496
    14  H    2.608982   3.513421   3.324085   2.152268   2.697333
    15  H    4.059463   4.381525   3.194444   2.142649   1.097828
    16  H    2.677107   3.148450   3.229110   2.153477   1.097492
    17  H    3.654108   3.506512   2.631409   2.173357   1.093980
    18  C    3.968120   3.473944   1.504166   2.552492   3.919708
    19  H    4.968190   4.521201   2.148285   3.114662   4.387308
    20  H    4.282169   3.517060   2.161826   3.377138   4.630924
    21  H    3.798092   3.560490   2.176930   2.776225   4.270011
    22  C    2.396681   1.495266   3.158292   3.653394   4.551668
    23  H    3.280291   2.156117   3.133644   3.969957   4.845737
    24  H    2.798319   2.090248   4.237113   4.616664   5.389209
    25  H    2.634733   2.150659   3.144414   3.596223   4.757772
    26  C    2.365991   1.497196   3.204506   3.326597   3.291202
    27  H    2.869524   2.087796   4.251047   4.373430   4.294711
    28  H    3.227090   2.158845   3.005549   3.508936   3.564964
    29  H    2.530805   2.149166   3.412074   3.181039   2.673040
                    6          7          8          9         10
     6  Fe   0.000000
     7  Cl   2.174094   0.000000
     8  C    3.596241   3.964507   0.000000
     9  Cl   2.190553   3.693965   5.637874   0.000000
    10  Cl   2.193318   3.676870   3.648588   3.626497   0.000000
    11  H    5.422209   6.566817   3.481536   6.621126   5.660908
    12  H    4.570905   4.586748   1.098846   6.671696   4.477119
    13  H    3.417118   4.145476   1.089779   5.435073   2.853348
    14  H    2.988174   2.939230   1.095630   5.084215   3.530868
    15  H    5.441313   5.346983   2.747120   7.157974   6.203862
    16  H    4.195086   4.228243   2.806544   5.647193   5.458137
    17  H    5.466593   5.902102   3.478362   6.775070   6.380532
    18  C    5.003583   6.395265   3.096217   6.385200   4.375446
    19  H    5.973504   7.207148   3.580709   7.453814   5.189378
    20  H    5.341269   6.985358   4.052265   6.383387   4.709858
    21  H    4.407581   5.811530   2.776871   5.909408   3.434467
    22  C    3.348706   5.331957   4.196113   3.700914   3.628851
    23  H    4.427667   6.362893   4.760079   4.698750   4.539141
    24  H    3.353702   5.427577   5.048877   3.031046   3.839969
    25  H    3.097126   5.114443   3.800425   3.815025   2.756147
    26  C    4.227809   5.493021   4.419456   4.618102   5.428857
    27  H    4.460734   5.787578   5.348133   4.315386   5.837828
    28  H    5.087156   6.446754   4.794904   5.502600   5.980669
    29  H    4.440910   5.278987   4.285800   5.051303   5.848239
                   11         12         13         14         15
    11  H    0.000000
    12  H    4.005683   0.000000
    13  H    3.798768   1.768593   0.000000
    14  H    4.194917   1.753472   1.773667   0.000000
    15  H    3.400505   2.643458   3.796202   2.931469   0.000000
    16  H    3.445943   3.291753   3.755573   2.539075   1.757082
    17  H    2.323800   3.813428   4.333649   3.744206   1.771323
    18  C    2.202927   3.636576   2.744762   4.025308   4.505189
    19  H    2.658665   3.816463   3.268015   4.625464   4.762329
    20  H    2.479414   4.692629   3.651266   4.881036   5.345391
    21  H    3.103841   3.378794   2.078125   3.635475   4.813802
    22  C    3.482599   5.243565   3.923658   4.397701   5.562548
    23  H    3.187247   5.726488   4.511247   5.136442   5.858848
    24  H    4.514028   6.130324   4.754381   5.075233   6.422344
    25  H    3.751376   4.816456   3.273155   4.082356   5.656552
    26  C    2.961501   5.331546   4.779852   4.440246   4.380667
    27  H    4.001746   6.307146   5.642615   5.242955   5.369200
    28  H    2.450316   5.627990   5.107412   5.039800   4.614378
    29  H    3.156082   5.081322   4.874950   4.188580   3.696976
                   16         17         18         19         20
    16  H    0.000000
    17  H    1.787360   0.000000
    18  C    4.608359   4.127973   0.000000
    19  H    5.229491   4.551118   1.098707   0.000000
    20  H    5.251219   4.663041   1.095597   1.757847   0.000000
    21  H    4.800508   4.709950   1.093110   1.765648   1.770444
    22  C    4.547616   4.693689   3.221162   4.305475   2.892086
    23  H    5.021557   4.773872   3.074600   4.061582   2.436857
    24  H    5.210288   5.529482   4.292704   5.372271   3.894873
    25  H    4.824748   5.085524   2.828885   3.888086   2.634962
    26  C    3.115222   3.028367   4.238298   5.160638   4.184180
    27  H    3.950200   4.025974   5.152049   6.119126   4.960597
    28  H    3.697022   3.052935   3.954221   4.770163   3.741927
    29  H    2.336567   2.376496   4.693926   5.523201   4.848847
                   21         22         23         24         25
    21  H    0.000000
[...]
     28          1           0        2.728413    2.275446   -1.515992
     29          1           0        1.905712    1.078536   -2.576634
 ---------------------------------------------------------------------
 Rotational constants (GHZ):           0.5685414           0.3253988           0.3067213
   427 basis functions,  1056 primitive gaussians,   461 cartesian basis functions
    77 alpha electrons       72 beta electrons
       nuclear repulsion energy      1627.0771624184 Hartrees.
 NAtoms=   29 NActive=   29 NUniq=   29 SFac= 1.00D+00 NAtFMM=   60 NAOKFM=F Big=F
 Nuclear repulsion after empirical dispersion term =     1627.0746726031 Hartrees.
 Initial guess from the checkpoint file:  "checkpoint.chk"
 B after Tr=     0.000000    0.000000    0.000000
         Rot=    1.000000    0.000000    0.000000    0.000000 Ang=   0.00 deg.
 Initial guess <Sx>= 0.0000 <Sy>= 0.0000 <Sz>= 2.5000 <S**2>= 8.7619 S= 2.5020
 SCF Done:  E(UM06L) =  -3034.21999844     A.U. after   17 cycles
            NFock= 17  Conv=0.75D-08     -V/T= 2.0020
 <Sx>= 0.0000 <Sy>= 0.0000 <Sz>= 2.5000 <S**2>= 8.7617 S= 2.5020
 <L.S>= 0.000000000000E+00
 Annihilation of the first spin contaminant:
 S**2 before annihilation     8.7617,   after     8.7500
 1\1\GINC-HOLY7C18409\SP\UM06L\Jul-CC-pVDZ\C8H16Cl3Fe1O1(6)\EKWAN\12-Fe
 b-2020\0\\#t pop=none jul-cc-pvdz guess=read um06l empiricaldispersion
 =gd3\\theory_abbreviation m06l_d3\\0,6\O,0,0.24973,0.331677,-0.814561\
 C,0,1.003044,1.31736,-0.6409\C,0,3.184033,0.004115,0.398894\C,0,2.5344
 2,-0.988098,-0.24152\C,0,2.79028,-1.284522,-1.694229\Fe,0,-1.468166,-0
 .142427,0.040211\Cl,0,-2.100008,-1.96112,-0.969649\C,0,1.609399,-1.961
 768,0.429498\Cl,0,-2.629892,1.654445,-0.42901\Cl,0,-1.148564,-0.357645
 ,2.199419\H,0,3.900074,0.588168,-0.180196\H,0,2.121347,-2.927566,0.541
 776\H,0,1.274711,-1.644976,1.417043\H,0,0.727421,-2.156188,-0.19076\H,
 0,3.169939,-2.308686,-1.804564\H,0,1.857496,-1.237398,-2.270581\H,0,3.
 52419,-0.605523,-2.13822\C,0,3.16653,0.290105,1.875518\H,0,4.03495,-0.
 173483,2.363462\H,0,3.233385,1.364729,2.078116\H,0,2.271212,-0.091917,
 2.372865\C,0,0.892582,2.16983,0.582584\H,0,1.779966,2.785512,0.733786\
 H,0,0.030399,2.833835,0.419007\H,0,0.678105,1.572917,1.469654\C,0,1.77
 1843,1.842879,-1.813237\H,0,1.158257,2.650304,-2.240294\H,0,2.728413,2
 .275446,-1.515992\H,0,1.905712,1.078536,-2.576634\\Version=ES64L-G16Re
 vA.03\HF=-3034.2199984\S2=8.761705\S2-1=0.\S2A=8.750044\RMSD=7.516e-09
 \PG=C01 [X(C8H16Cl3Fe1O1)]\\@


 THERE'S SMALL CHOICE IN A BOWL OF ROTTEN APPLES.
                     SHAKESPEARE
 Job cpu time:       0 days  1 hours 13 minutes 28.1 seconds.
 Elapsed time:       0 days  0 hours 18 minutes 25.3 seconds.
 File lengths (MBytes):  RWF=    174 Int=      0 D2E=      0 Chk=     13 Scr=      1
 Normal termination of Gaussian 16 at Wed Feb 12 08:34:44 2020.
 Initial command:
 /n/sw/g16_nehalem/g16/l1.exe "/scratch/Gau-17972.inp" -scrdir="/scratch/"
 Entering Link 1 = /n/sw/g16_nehalem/g16/l1.exe PID=     71329.
  
 Copyright (c) 1988,1990,1992,1993,1995,1998,2003,2009,2016,
            Gaussian, Inc.  All Rights Reserved.
  
 This is part of the Gaussian(R) 16 program.  It is based on
 the Gaussian(R) 09 system (copyright 2009, Gaussian, Inc.),
 the Gaussian(R) 03 system (copyright 2003, Gaussian, Inc.),
 the Gaussian(R) 98 system (copyright 1998, Gaussian, Inc.),
 the Gaussian(R) 94 system (copyright 1995, Gaussian, Inc.),
 the Gaussian 92(TM) system (copyright 1992, Gaussian, Inc.),
 the Gaussian 90(TM) system (copyright 1990, Gaussian, Inc.),
 the Gaussian 88(TM) system (copyright 1988, Gaussian, Inc.),
 the Gaussian 86(TM) system (copyright 1986, Carnegie Mellon
 University), and the Gaussian 82(TM) system (copyright 1983,
 Carnegie Mellon University). Gaussian is a federally registered
 trademark of Gaussian, Inc.
  
 This software contains proprietary and confidential information,
 including trade secrets, belonging to Gaussian, Inc.
  
 This software is provided under written license and may be
 used, copied, transmitted, or stored only in accord with that
 written license.
  
 The following legend is applicable only to US Government
 contracts under FAR:
  
                    RESTRICTED RIGHTS LEGEND
  
 Use, reproduction and disclosure by the US Government is
 subject to restrictions as set forth in subparagraphs (a)
 and (c) of the Commercial Computer Software - Restricted
 Rights clause in FAR 52.227-19.
  
 Gaussian, Inc.
 340 Quinnipiac St., Bldg. 40, Wallingford CT 06492
  
  
 ---------------------------------------------------------------
 Warning -- This program may not be used in any manner that
 competes with the business of Gaussian, Inc. or will provide
 assistance to any competitor of Gaussian, Inc.  The licensee
 of this program is prohibited from giving any competitor of
 Gaussian, Inc. access to this program.  By using this program,
 the user acknowledges that Gaussian, Inc. is engaged in the
 business of creating and licensing software in the field of
 computational chemistry and represents and warrants to the
 licensee that it is not a competitor of Gaussian, Inc. and that
 it will not use this program in any manner prohibited above.
 ---------------------------------------------------------------
  

 Cite this work as:
 Gaussian 16, Revision A.03,
 M. J. Frisch, G. W. Trucks, H. B. Schlegel, G. E. Scuseria, 
 M. A. Robb, J. R. Cheeseman, G. Scalmani, V. Barone, 
 G. A. Petersson, H. Nakatsuji, X. Li, M. Caricato, A. V. Marenich, 
 J. Bloino, B. G. Janesko, R. Gomperts, B. Mennucci, H. P. Hratchian, 
 J. V. Ortiz, A. F. Izmaylov, J. L. Sonnenberg, D. Williams-Young, 
 F. Ding, F. Lipparini, F. Egidi, J. Goings, B. Peng, A. Petrone, 
 T. Henderson, D. Ranasinghe, V. G. Zakrzewski, J. Gao, N. Rega, 
 G. Zheng, W. Liang, M. Hada, M. Ehara, K. Toyota, R. Fukuda, 
 J. Hasegawa, M. Ishida, T. Nakajima, Y. Honda, O. Kitao, H. Nakai, 
 T. Vreven, K. Throssell, J. A. Montgomery, Jr., J. E. Peralta, 
 F. Ogliaro, M. J. Bearpark, J. J. Heyd, E. N. Brothers, K. N. Kudin, 
 V. N. Staroverov, T. A. Keith, R. Kobayashi, J. Normand, 
 K. Raghavachari, A. P. Rendell, J. C. Burant, S. S. Iyengar, 
 J. Tomasi, M. Cossi, J. M. Millam, M. Klene, C. Adamo, R. Cammi, 
 J. W. Ochterski, R. L. Martin, K. Morokuma, O. Farkas, 
 J. B. Foresman, and D. J. Fox, Gaussian, Inc., Wallingford CT, 2016.
 
 ******************************************
 Gaussian 16:  ES64L-G16RevA.03 25-Dec-2016
                12-Feb-2020 
 ******************************************
 %chk=checkpoint.chk
 %mem=3GB
 %nprocshared=4
 Will use up to    4 processors via shared memory.
 -------------------------------------------------------------------
 #t pop=none jul-cc-pvdz guess=read ub97d3 empiricaldispersion=gd3bj
 -------------------------------------------------------------------
 ------------------------------
 theory_abbreviation b97d3_d3bj
 ------------------------------
 Symbolic Z-matrix:
 Charge =  0 Multiplicity = 6
 O                     0.24973   0.33168  -0.81456 
 C                     1.00304   1.31736  -0.6409 
 C                     3.18403   0.00412   0.39889 
 C                     2.53442  -0.9881   -0.24152 
 C                     2.79028  -1.28452  -1.69423 
 Fe                   -1.46817  -0.14243   0.04021 
 Cl                   -2.10001  -1.96112  -0.96965 
 C                     1.6094   -1.96177   0.4295 
 Cl                   -2.62989   1.65445  -0.42901 
 Cl                   -1.14856  -0.35765   2.19942 
 H                     3.90007   0.58817  -0.1802 
 H                     2.12135  -2.92757   0.54178 
 H                     1.27471  -1.64498   1.41704 
 H                     0.72742  -2.15619  -0.19076 
 H                     3.16994  -2.30869  -1.80456 
 H                     1.8575   -1.2374   -2.27058 
 H                     3.52419  -0.60552  -2.13822 
 C                     3.16653   0.29011   1.87552 
 H                     4.03495  -0.17348   2.36346 
 H                     3.23339   1.36473   2.07812 
 H                     2.27121  -0.09192   2.37287 
 C                     0.89258   2.16983   0.58258 
 H                     1.77997   2.78551   0.73379 
 H                     0.0304    2.83384   0.41901 
 H                     0.67811   1.57292   1.46965 
 C                     1.77184   1.84288  -1.81324 
 H                     1.15826   2.6503   -2.24029 
 H                     2.72841   2.27545  -1.51599 
 H                     1.90571   1.07854  -2.57663 
 
                    Distance matrix (angstroms):
                    1          2          3          4          5
     1  O    0.000000
     2  C    1.252682   0.000000
     3  C    3.192163   2.749999   0.000000
     4  C    2.699998   2.796382   1.347818   0.000000
     5  C    3.136927   3.327688   2.489335   1.504558   0.000000
     6  Fe   1.976506   2.949876   4.668306   4.100637   4.737829
     7  Cl   3.286676   4.526084   5.801392   4.791124   4.989761
     8  C    2.942154   3.502299   2.518949   1.501320   2.522570
     9  Cl   3.192270   3.654688   6.100060   5.804163   6.294170
    10  Cl   3.393297   3.937318   4.705758   4.463186   5.615522
    11  H    3.713922   3.022706   1.090494   2.086477   2.651586
    12  H    3.995656   4.546286   3.121613   2.132069   2.854257
    13  H    3.152428   3.617232   2.720595   2.183847   3.479496
    14  H    2.608982   3.513421   3.324085   2.152268   2.697333
    15  H    4.059463   4.381525   3.194444   2.142649   1.097828
    16  H    2.677107   3.148450   3.229110   2.153477   1.097492
    17  H    3.654108   3.506512   2.631409   2.173357   1.093980
    18  C    3.968120   3.473944   1.504166   2.552492   3.919708
    19  H    4.968190   4.521201   2.148285   3.114662   4.387308
    20  H    4.282169   3.517060   2.161826   3.377138   4.630924
    21  H    3.798092   3.560490   2.176930   2.776225   4.270011
    22  C    2.396681   1.495266   3.158292   3.653394   4.551668
    23  H    3.280291   2.156117   3.133644   3.969957   4.845737
    24  H    2.798319   2.090248   4.237113   4.616664   5.389209
    25  H    2.634733   2.150659   3.144414   3.596223   4.757772
    26  C    2.365991   1.497196   3.204506   3.326597   3.291202
    27  H    2.869524   2.087796   4.251047   4.373430   4.294711
    28  H    3.227090   2.158845   3.005549   3.508936   3.564964
    29  H    2.530805   2.149166   3.412074   3.181039   2.673040
                    6          7          8          9         10
     6  Fe   0.000000
     7  Cl   2.174094   0.000000
     8  C    3.596241   3.964507   0.000000
     9  Cl   2.190553   3.693965   5.637874   0.000000
    10  Cl   2.193318   3.676870   3.648588   3.626497   0.000000
    11  H    5.422209   6.566817   3.481536   6.621126   5.660908
    12  H    4.570905   4.586748   1.098846   6.671696   4.477119
    13  H    3.417118   4.145476   1.089779   5.435073   2.853348
    14  H    2.988174   2.939230   1.095630   5.084215   3.530868
    15  H    5.441313   5.346983   2.747120   7.157974   6.203862
    16  H    4.195086   4.228243   2.806544   5.647193   5.458137
    17  H    5.466593   5.902102   3.478362   6.775070   6.380532
    18  C    5.003583   6.395265   3.096217   6.385200   4.375446
    19  H    5.973504   7.207148   3.580709   7.453814   5.189378
    20  H    5.341269   6.985358   4.052265   6.383387   4.709858
    21  H    4.407581   5.811530   2.776871   5.909408   3.434467
    22  C    3.348706   5.331957   4.196113   3.700914   3.628851
    23  H    4.427667   6.362893   4.760079   4.698750   4.539141
    24  H    3.353702   5.427577   5.048877   3.031046   3.839969
    25  H    3.097126   5.114443   3.800425   3.815025   2.756147
    26  C    4.227809   5.493021   4.419456   4.618102   5.428857
    27  H    4.460734   5.787578   5.348133   4.315386   5.837828
    28  H    5.087156   6.446754   4.794904   5.502600   5.980669
    29  H    4.440910   5.278987   4.285800   5.051303   5.848239
                   11         12         13         14         15
    11  H    0.000000
    12  H    4.005683   0.000000
    13  H    3.798768   1.768593   0.000000
    14  H    4.194917   1.753472   1.773667   0.000000
    15  H    3.400505   2.643458   3.796202   2.931469   0.000000
    16  H    3.445943   3.291753   3.755573   2.539075   1.757082
    17  H    2.323800   3.813428   4.333649   3.744206   1.771323
    18  C    2.202927   3.636576   2.744762   4.025308   4.505189
    19  H    2.658665   3.816463   3.268015   4.625464   4.762329
    20  H    2.479414   4.692629   3.651266   4.881036   5.345391
    21  H    3.103841   3.378794   2.078125   3.635475   4.813802
    22  C    3.482599   5.243565   3.923658   4.397701   5.562548
    23  H    3.187247   5.726488   4.511247   5.136442   5.858848
    24  H    4.514028   6.130324   4.754381   5.075233   6.422344
    25  H    3.751376   4.816456   3.273155   4.082356   5.656552
    26  C    2.961501   5.331546   4.779852   4.440246   4.380667
    27  H    4.001746   6.307146   5.642615   5.242955   5.369200
    28  H    2.450316   5.627990   5.107412   5.039800   4.614378
    29  H    3.156082   5.081322   4.874950   4.188580   3.696976
                   16         17         18         19         20
    16  H    0.000000
    17  H    1.787360   0.000000
    18  C    4.608359   4.127973   0.000000
    19  H    5.229491   4.551118   1.098707   0.000000
    20  H    5.251219   4.663041   1.095597   1.757847   0.000000
    21  H    4.800508   4.709950   1.093110   1.765648   1.770444
    22  C    4.547616   4.693689   3.221162   4.305475   2.892086
    23  H    5.021557   4.773872   3.074600   4.061582   2.436857
    24  H    5.210288   5.529482   4.292704   5.372271   3.894873
    25  H    4.824748   5.085524   2.828885   3.888086   2.634962
    26  C    3.115222   3.028367   4.238298   5.160638   4.184180
    27  H    3.950200   4.025974   5.152049   6.119126   4.960597
    28  H    3.697022   3.052935   3.954221   4.770163   3.741927
    29  H    2.336567   2.376496   4.693926   5.523201   4.848847
                   21         22         23         24         25
    21  H    0.000000
    22  C    3.197065   0.000000
    23  H    3.347760   1.090586   0.000000
    24  H    4.171190   1.100463   1.778315   0.000000
    25  H    2.474965   1.090504   1.796103   1.764454   0.000000
    26  C    4.638562   2.572927   2.715870   2.999589   3.470809
    27  H    5.480847   2.875774   3.041374   2.894413   3.892945
    28  H    4.575658   2.790242   2.494237   3.366794   3.689362
    29  H    5.099126   3.492565   3.726722   3.946104   4.257215
                   26         27         28         29
    26  C    0.000000
    27  H    1.100364   0.000000
    28  H    1.091098   1.769328   0.000000
    29  H    1.088539   1.772644   1.798442   0.000000
 Framework group  C1[X(C8H16Cl3FeO)]
 Deg. of freedom    81
                         Standard orientation:                         
 ---------------------------------------------------------------------
 Center     Atomic      Atomic             Coordinates (Angstroms)
 Number     Number       Type             X           Y           Z
 ---------------------------------------------------------------------
      1          8           0        0.249730    0.331677   -0.814561
      2          6           0        1.003044    1.317360   -0.640900
      3          6           0        3.184033    0.004115    0.398894
      4          6           0        2.534420   -0.988098   -0.241520
      5          6           0        2.790280   -1.284522   -1.694229
      6         26           0       -1.468166   -0.142427    0.040211
      7         17           0       -2.100008   -1.961120   -0.969649
      8          6           0        1.609399   -1.961768    0.429498
      9         17           0       -2.629892    1.654445   -0.429010
     10         17           0       -1.148564   -0.357645    2.199419
     11          1           0        3.900074    0.588168   -0.180196
     12          1           0        2.121347   -2.927566    0.541776
     13          1           0        1.274711   -1.644976    1.417043
     14          1           0        0.727421   -2.156188   -0.190760
     15          1           0        3.169939   -2.308686   -1.804564
     16          1           0        1.857496   -1.237398   -2.270581
     17          1           0        3.524190   -0.605523   -2.138220
     18          6           0        3.166530    0.290105    1.875518
     19          1           0        4.034950   -0.173483    2.363462
     20          1           0        3.233385    1.364729    2.078116
     21          1           0        2.271212   -0.091917    2.372865
     22          6           0        0.892582    2.169830    0.582584
     23          1           0        1.779966    2.785512    0.733786
     24          1           0        0.030399    2.833835    0.419007
     25          1           0        0.678105    1.572917    1.469654
     26          6           0        1.771843    1.842879   -1.813237
     27          1           0        1.158257    2.650304   -2.240294
     28          1           0        2.728413    2.275446   -1.515992
     29          1           0        1.905712    1.078536   -2.576634
 ---------------------------------------------------------------------
 Rotational constants (GHZ):           0.5685414           0.3253988           0.3067213
   427 basis functions,  1056 primitive gaussians,   461 cartesian basis functions
    77 alpha electrons       72 beta electrons
       nuclear repulsion energy      1627.0771624184 Hartrees.
 NAtoms=   29 NActive=   29 NUniq=   29 SFac= 1.00D+00 NAtFMM=   60 NAOKFM=F Big=F
 Nuclear repulsion after empirical dispersion term =     1626.9779191377 Hartrees.
 Initial guess from the checkpoint file:  "checkpoint.chk"
 B after Tr=     0.000000    0.000000    0.000000
         Rot=    1.000000    0.000000    0.000000    0.000000 Ang=   0.00 deg.
 Initial guess <Sx>= 0.0000 <Sy>= 0.0000 <Sz>= 2.5000 <S**2>= 8.7617 S= 2.5020
 SCF Done:  E(UB97D3) =  -3034.63888371     A.U. after   16 cycles
            NFock= 16  Conv=0.57D-08     -V/T= 2.0019
 <Sx>= 0.0000 <Sy>= 0.0000 <Sz>= 2.5000 <S**2>= 8.7599 S= 2.5017
 <L.S>= 0.000000000000E+00
 Annihilation of the first spin contaminant:
 S**2 before annihilation     8.7599,   after     8.7500
 1\1\GINC-HOLY7C18409\SP\UB97D3\Jul-CC-pVDZ\C8H16Cl3Fe1O1(6)\EKWAN\12-F
 eb-2020\0\\#t pop=none jul-cc-pvdz guess=read ub97d3 empiricaldispersi
 on=gd3bj\\theory_abbreviation b97d3_d3bj\\0,6\O,0,0.24973,0.331677,-0.
 814561\C,0,1.003044,1.31736,-0.6409\C,0,3.184033,0.004115,0.398894\C,0
 ,2.53442,-0.988098,-0.24152\C,0,2.79028,-1.284522,-1.694229\Fe,0,-1.46
 8166,-0.142427,0.040211\Cl,0,-2.100008,-1.96112,-0.969649\C,0,1.609399
 ,-1.961768,0.429498\Cl,0,-2.629892,1.654445,-0.42901\Cl,0,-1.148564,-0
 .357645,2.199419\H,0,3.900074,0.588168,-0.180196\H,0,2.121347,-2.92756
 6,0.541776\H,0,1.274711,-1.644976,1.417043\H,0,0.727421,-2.156188,-0.1
 9076\H,0,3.169939,-2.308686,-1.804564\H,0,1.857496,-1.237398,-2.270581
 \H,0,3.52419,-0.605523,-2.13822\C,0,3.16653,0.290105,1.875518\H,0,4.03
 495,-0.173483,2.363462\H,0,3.233385,1.364729,2.078116\H,0,2.271212,-0.
 091917,2.372865\C,0,0.892582,2.16983,0.582584\H,0,1.779966,2.785512,0.
 733786\H,0,0.030399,2.833835,0.419007\H,0,0.678105,1.572917,1.469654\C
 ,0,1.771843,1.842879,-1.813237\H,0,1.158257,2.650304,-2.240294\H,0,2.7
 28413,2.275446,-1.515992\H,0,1.905712,1.078536,-2.576634\\Version=ES64
 L-G16RevA.03\HF=-3034.6388837\S2=8.759907\S2-1=0.\S2A=8.750031\RMSD=5.
 732e-09\PG=C01 [X(C8H16Cl3Fe1O1)]\\@


 SUCCESS IS NEVER CERTAIN,
 FAILURE IS NEVER FINAL.
 Job cpu time:       0 days  0 hours 49 minutes 28.2 seconds.
 Elapsed time:       0 days  0 hours 12 minutes 24.1 seconds.
 File lengths (MBytes):  RWF=    174 Int=      0 D2E=      0 Chk=     13 Scr=      1
 Normal termination of Gaussian 16 at Wed Feb 12 08:47:18 2020.
