 Entering Gaussian System, Link 0=g16
 Input=simple-grid-290-295-b3lyp_d3bj-631gd-gas-singlepoint-DFT-juldz2-gas.gjf
 Output=simple-grid-290-295-b3lyp_d3bj-631gd-gas-singlepoint-DFT-juldz2-gas.out
 Initial command:
 /n/sw/g16_nehalem/g16/l1.exe "/scratch/Gau-313989.inp" -scrdir="/scratch/"
 Entering Link 1 = /n/sw/g16_nehalem/g16/l1.exe PID=    313991.
  
 Copyright (c) 1988,1990,1992,1993,1995,1998,2003,2009,2016,
            Gaussian, Inc.  All Rights Reserved.
  
 This is part of the Gaussian(R) 16 program.  It is based on
 the Gaussian(R) 09 system (copyright 2009, Gaussian, Inc.),
 the Gaussian(R) 03 system (copyright 2003, Gaussian, Inc.),
 the Gaussian(R) 98 system (copyright 1998, Gaussian, Inc.),
 the Gaussian(R) 94 system (copyright 1995, Gaussian, Inc.),
 the Gaussian 92(TM) system (copyright 1992, Gaussian, Inc.),
 the Gaussian 90(TM) system (copyright 1990, Gaussian, Inc.),
 the Gaussian 88(TM) system (copyright 1988, Gaussian, Inc.),
 the Gaussian 86(TM) system (copyright 1986, Carnegie Mellon
 University), and the Gaussian 82(TM) system (copyright 1983,
 Carnegie Mellon University). Gaussian is a federally registered
 trademark of Gaussian, Inc.
  
 This software contains proprietary and confidential information,
 including trade secrets, belonging to Gaussian, Inc.
  
 This software is provided under written license and may be
 used, copied, transmitted, or stored only in accord with that
 written license.
  
 The following legend is applicable only to US Government
 contracts under FAR:
  
                    RESTRICTED RIGHTS LEGEND
  
 Use, reproduction and disclosure by the US Government is
 subject to restrictions as set forth in subparagraphs (a)
 and (c) of the Commercial Computer Software - Restricted
 Rights clause in FAR 52.227-19.
  
 Gaussian, Inc.
 340 Quinnipiac St., Bldg. 40, Wallingford CT 06492
  
  
 ---------------------------------------------------------------
 Warning -- This program may not be used in any manner that
 competes with the business of Gaussian, Inc. or will provide
 assistance to any competitor of Gaussian, Inc.  The licensee
 of this program is prohibited from giving any competitor of
 Gaussian, Inc. access to this program.  By using this program,
 the user acknowledges that Gaussian, Inc. is engaged in the
 business of creating and licensing software in the field of
 computational chemistry and represents and warrants to the
 licensee that it is not a competitor of Gaussian, Inc. and that
 it will not use this program in any manner prohibited above.
 ---------------------------------------------------------------
  

 Cite this work as:
 Gaussian 16, Revision A.03,
 M. J. Frisch, G. W. Trucks, H. B. Schlegel, G. E. Scuseria, 
 M. A. Robb, J. R. Cheeseman, G. Scalmani, V. Barone, 
 G. A. Petersson, H. Nakatsuji, X. Li, M. Caricato, A. V. Marenich, 
 J. Bloino, B. G. Janesko, R. Gomperts, B. Mennucci, H. P. Hratchian, 
 J. V. Ortiz, A. F. Izmaylov, J. L. Sonnenberg, D. Williams-Young, 
 F. Ding, F. Lipparini, F. Egidi, J. Goings, B. Peng, A. Petrone, 
 T. Henderson, D. Ranasinghe, V. G. Zakrzewski, J. Gao, N. Rega, 
 G. Zheng, W. Liang, M. Hada, M. Ehara, K. Toyota, R. Fukuda, 
 J. Hasegawa, M. Ishida, T. Nakajima, Y. Honda, O. Kitao, H. Nakai, 
 T. Vreven, K. Throssell, J. A. Montgomery, Jr., J. E. Peralta, 
 F. Ogliaro, M. J. Bearpark, J. J. Heyd, E. N. Brothers, K. N. Kudin, 
 V. N. Staroverov, T. A. Keith, R. Kobayashi, J. Normand, 
 K. Raghavachari, A. P. Rendell, J. C. Burant, S. S. Iyengar, 
 J. Tomasi, M. Cossi, J. M. Millam, M. Klene, C. Adamo, R. Cammi, 
 J. W. Ochterski, R. L. Martin, K. Morokuma, O. Farkas, 
 J. B. Foresman, and D. J. Fox, Gaussian, Inc., Wallingford CT, 2016.
 
 ******************************************
 Gaussian 16:  ES64L-G16RevA.03 25-Dec-2016
                12-Feb-2020 
 ******************************************
 %chk=checkpoint.chk
 %mem=3GB
 %nprocshared=4
 Will use up to    4 processors via shared memory.
 --------------------------------
 #t pop=none jul-cc-pvdz upbe1pbe
 --------------------------------
 ------------------------
 theory_abbreviation pbe0
 ------------------------
 Symbolic Z-matrix:
 Charge =  0 Multiplicity = 6
 O                     0.16161   0.44697  -0.88718 
 C                     0.90984   1.4231   -0.66649 
 C                     3.15694   0.05977   0.55903 
 C                     2.68595  -0.92846  -0.22502 
 C                     3.13388  -1.07232  -1.65589 
 Fe                   -1.4904   -0.17792   0.01926 
 Cl                   -2.06313  -1.96918  -1.0668 
 C                     1.74335  -2.00408   0.23451 
 Cl                   -2.76908   1.57176  -0.2803 
 Cl                   -1.03327  -0.50604   2.13776 
 H                     3.88436   0.74242   0.11682 
 H                     2.24683  -2.97966   0.1979 
 H                     1.36708  -1.85643   1.24651 
 H                     0.88431  -2.08119  -0.44388 
 H                     3.64062  -2.03579  -1.79918 
 H                     2.2726   -1.07466  -2.33716 
 H                     3.82581  -0.28088  -1.95925 
 C                     2.92444   0.24061   2.03411 
 H                     3.75642  -0.19058   2.60788 
 H                     2.87985   1.30155   2.30418 
 H                     2.00354  -0.23334   2.38242 
 C                     0.77036   2.24265   0.576 
 H                     1.64745   2.8657    0.7554 
 H                    -0.10161   2.89611   0.42371 
 H                     0.55698   1.61679   1.44366 
 C                     1.75563   1.94216  -1.7863 
 H                     1.23047   2.8174   -2.19646 
 H                     2.73042   2.28077  -1.43092 
 H                     1.86318   1.20014  -2.57581 
 
                    Distance matrix (angstroms):
                    1          2          3          4          5
     1  O    0.000000
     2  C    1.249553   0.000000
     3  C    3.348648   2.900000   0.000000
     4  C    2.950008   2.979810   1.346539   0.000000
     5  C    3.425426   3.486023   2.487573   1.506227   0.000000
     6  Fe   1.985261   2.965583   4.684614   4.250279   4.999005
     7  Cl   3.289297   4.528390   5.831729   4.934107   5.306625
     8  C    3.125338   3.640341   2.522506   1.502204   2.524945
     9  Cl   3.197244   3.702118   6.173185   6.000952   6.612736
    10  Cl   3.389129   3.919315   4.513350   4.426478   5.663703
    11  H    3.867068   3.150345   1.091196   2.084441   2.645560
    12  H    4.155395   4.681767   3.193248   2.139881   2.803804
    13  H    3.363248   3.824124   2.710725   2.183100   3.487162
    14  H    2.666528   3.511437   3.279385   2.150018   2.747243
    15  H    4.370281   4.550165   3.191619   2.148380   1.097991
    16  H    2.978932   3.299542   3.233707   2.157161   1.098152
    17  H    3.886570   3.616293   2.627760   2.173977   1.094155
    18  C    4.026136   3.570731   1.504201   2.554856   3.922212
    19  H    5.054171   4.629093   2.149387   3.117009   4.398271
    20  H    4.278306   3.566590   2.159710   3.377485   4.624059
    21  H    3.813896   3.638102   2.177382   2.783455   4.276621
    22  C    2.394984   1.494963   3.234349   3.790390   4.642908
    23  H    3.279644   2.155679   3.192241   4.054061   4.850963
    24  H    2.790339   2.093162   4.322178   4.776884   5.526437
    25  H    2.637724   2.148197   3.157003   3.714201   4.845504
    26  C    2.363244   1.496249   3.317777   3.397583   3.317181
    27  H    2.911299   2.094688   4.348397   4.476215   4.364074
    28  H    3.202699   2.152780   3.012422   3.428610   3.384765
    29  H    2.512779   2.145701   3.577912   3.276292   2.761344
                    6          7          8          9         10
     6  Fe   0.000000
     7  Cl   2.171670   0.000000
     8  C    3.719992   4.022923   0.000000
     9  Cl   2.187721   3.695290   5.780454   0.000000
    10  Cl   2.191953   3.670234   3.684576   3.630049   0.000000
    11  H    5.453865   6.642769   3.484403   6.716678   5.461312
    12  H    4.674242   4.603943   1.098444   6.789946   4.543224
    13  H    3.533941   4.138899   1.089737   5.584927   2.894747
    14  H    3.078337   3.014625   1.097318   5.168943   3.580927
    15  H    5.752026   5.750967   2.781461   7.510368   6.299590
    16  H    4.529569   4.605702   2.785210   6.054142   5.592577
    17  H    5.673373   6.190830   3.481180   7.052913   6.359773
    18  C    4.870897   6.274928   3.110020   6.288448   4.028858
    19  H    5.850667   7.108723   3.601971   7.350480   4.823034
    20  H    5.148665   6.818665   4.062313   6.217945   4.313644
    21  H    4.218436   5.607858   2.795849   5.755542   3.058825
    22  C    3.358594   5.335441   4.370133   3.702828   3.639699
    23  H    4.433016   6.361199   4.898505   4.717267   4.523909
    24  H    3.397348   5.453455   5.239418   3.060215   3.921799
    25  H    3.072724   5.101617   3.997527   3.746553   2.741720
    26  C    4.276859   5.513543   4.433584   4.783116   5.400912
    27  H    4.613521   5.919062   5.423965   4.606487   5.912297
    28  H    5.095442   6.416599   4.701910   5.663132   5.887878
    29  H    4.458690   5.266643   4.263715   5.183166   5.789482
                   11         12         13         14         15
    11  H    0.000000
    12  H    4.067178   0.000000
    13  H    3.790371   1.770644   0.000000
    14  H    4.157819   1.753739   1.772287   0.000000
    15  H    3.383615   2.611870   3.804912   3.071835   0.000000
    16  H    3.452756   3.171152   3.778066   2.554398   1.756330
    17  H    2.315294   3.798666   4.336421   3.766943   1.771898
    18  C    2.202104   3.768420   2.728238   3.961483   4.515417
    19  H    2.663130   3.983199   3.215176   4.597469   4.779161
    20  H    2.471078   4.813095   3.657864   4.793424   5.343605
    21  H    3.102023   3.517614   2.080818   3.557415   4.838865
    22  C    3.486915   5.440167   4.196200   4.443949   5.673173
    23  H    3.149594   5.902400   4.755873   5.147074   5.875647
    24  H    4.540981   6.331724   5.041887   5.147637   6.577923
    25  H    3.687347   5.053199   3.571887   4.164726   5.776342
    26  C    3.097218   5.329413   4.876289   4.329968   4.401981
    27  H    4.086560   6.353887   5.806672   5.214169   5.433241
    28  H    2.468528   5.528024   5.113098   4.838291   4.426823
    29  H    3.397782   5.031038   4.919229   4.033657   3.772757
                   16         17         18         19         20
    16  H    0.000000
    17  H    1.784758   0.000000
    18  C    4.611160   4.126896   0.000000
    19  H    5.238011   4.568547   1.098788   0.000000
    20  H    5.249484   4.644962   1.095679   1.757008   0.000000
    21  H    4.801520   4.708817   1.092710   1.767843   1.769157
    22  C    4.663444   4.704403   3.282422   4.354965   2.884821
    23  H    5.047885   4.692070   3.186991   4.149740   2.522716
    24  H    5.387593   5.585361   4.336125   5.402093   3.868825
    25  H    4.947903   5.085873   2.801319   3.854667   2.497118
    26  C    3.109964   3.042604   4.342456   5.278316   4.290252
    27  H    4.031616   4.048625   5.235181   6.205654   5.027326
    28  H    3.505674   2.835673   4.025710   4.844814   3.864217
    29  H    2.323633   2.534852   4.826830   5.691144   4.985793
                   21         22         23         24         25
    21  H    0.000000
    22  C    3.303690   0.000000
    23  H    3.518243   1.090716   0.000000
    24  H    4.249890   1.100236   1.780482   0.000000
    25  H    2.529184   1.090897   1.795162   1.763709   0.000000
    26  C    4.708766   2.577117   2.706452   3.040311   3.460528
    27  H    5.556150   2.868558   2.981561   2.940401   3.891728
    28  H    4.625005   2.805537   2.508981   3.440736   3.664413
    29  H    5.163191   3.494992   3.730626   3.966582   4.246860
                   26         27         28         29
    26  C    0.000000
    27  H    1.100032   0.000000
    28  H    1.091405   1.767444   0.000000
    29  H    1.088797   1.777569   1.797395   0.000000
 Framework group  C1[X(C8H16Cl3FeO)]
 Deg. of freedom    81
                         Standard orientation:                         
 ---------------------------------------------------------------------
 Center     Atomic      Atomic             Coordinates (Angstroms)
 Number     Number       Type             X           Y           Z
 ---------------------------------------------------------------------
      1          8           0        0.161608    0.446968   -0.887181
      2          6           0        0.909842    1.423095   -0.666492
      3          6           0        3.156938    0.059768    0.559028
      4          6           0        2.685946   -0.928463   -0.225022
      5          6           0        3.133878   -1.072323   -1.655889
      6         26           0       -1.490402   -0.177921    0.019262
      7         17           0       -2.063131   -1.969175   -1.066804
      8          6           0        1.743348   -2.004084    0.234506
      9         17           0       -2.769075    1.571760   -0.280297
     10         17           0       -1.033266   -0.506036    2.137758
     11          1           0        3.884364    0.742416    0.116816
     12          1           0        2.246828   -2.979659    0.197898
     13          1           0        1.367082   -1.856430    1.246508
     14          1           0        0.884306   -2.081186   -0.443881
     15          1           0        3.640623   -2.035787   -1.799177
     16          1           0        2.272596   -1.074655   -2.337157
     17          1           0        3.825806   -0.280877   -1.959245
     18          6           0        2.924444    0.240614    2.034108
     19          1           0        3.756424   -0.190579    2.607883
     20          1           0        2.879848    1.301551    2.304176
     21          1           0        2.003539   -0.233336    2.382418
     22          6           0        0.770359    2.242648    0.576002
     23          1           0        1.647445    2.865703    0.755400
     24          1           0       -0.101605    2.896105    0.423712
     25          1           0        0.556977    1.616787    1.443655
     26          6           0        1.755629    1.942161   -1.786302
     27          1           0        1.230474    2.817403   -2.196465
     28          1           0        2.730418    2.280772   -1.430924
     29          1           0        1.863176    1.200140   -2.575806
 ---------------------------------------------------------------------
 Rotational constants (GHZ):           0.5638539           0.3185903           0.2999710
   427 basis functions,  1056 primitive gaussians,   461 cartesian basis functions
    77 alpha electrons       72 beta electrons
       nuclear repulsion energy      1615.9881000392 Hartrees.
 NAtoms=   29 NActive=   29 NUniq=   29 SFac= 1.00D+00 NAtFMM=   60 NAOKFM=F Big=F
 ExpMin= 1.40D-02 ExpMax= 4.32D+06 ExpMxC= 4.91D+03 IAcc=3 IRadAn=         5 AccDes= 0.00D+00
 Harris functional with IExCor= 1009 and IRadAn=       5 diagonalized for initial guess.
 HarFok:  IExCor= 1009 AccDes= 0.00D+00 IRadAn=         5 IDoV= 1 UseB2=F ITyADJ=14
 ICtDFT=  3500011 ScaDFX=  1.000000  1.000000  1.000000  1.000000
 FoFCou: FMM=F IPFlag=           0 FMFlag=      100000 FMFlg1=           0
         NFxFlg=           0 DoJE=T BraDBF=F KetDBF=T FulRan=T
         wScrn=  0.000000 ICntrl=       500 IOpCl=  0 I1Cent=   200000004 NGrid=           0
         NMat0=    1 NMatS0=      1 NMatT0=    0 NMatD0=    1 NMtDS0=    0 NMtDT0=    0
 Petite list used in FoFCou.
 Initial guess <Sx>= 0.0000 <Sy>= 0.0000 <Sz>= 2.5000 <S**2>= 8.7500 S= 2.5000
 EnCoef did   100 forward-backward iterations
 SCF Done:  E(UPBE1PBE) =  -3033.13956200     A.U. after   20 cycles
            NFock= 20  Conv=0.96D-08     -V/T= 2.0021
 <Sx>= 0.0000 <Sy>= 0.0000 <Sz>= 2.5000 <S**2>= 8.7630 S= 2.5022
 <L.S>= 0.000000000000E+00
 Annihilation of the first spin contaminant:
 S**2 before annihilation     8.7630,   after     8.7501
 1\1\GINC-HOLY7C08404\SP\UPBE1PBE\Jul-CC-pVDZ\C8H16Cl3Fe1O1(6)\EKWAN\12
 -Feb-2020\0\\#t pop=none jul-cc-pvdz upbe1pbe\\theory_abbreviation pbe
 0\\0,6\O,0,0.161608,0.446968,-0.887181\C,0,0.909842,1.423095,-0.666492
 \C,0,3.156938,0.059768,0.559028\C,0,2.685946,-0.928463,-0.225022\C,0,3
 .133878,-1.072323,-1.655889\Fe,0,-1.490402,-0.177921,0.019262\Cl,0,-2.
 063131,-1.969175,-1.066804\C,0,1.743348,-2.004084,0.234506\Cl,0,-2.769
 075,1.57176,-0.280297\Cl,0,-1.033266,-0.506036,2.137758\H,0,3.884364,0
 .742416,0.116816\H,0,2.246828,-2.979659,0.197898\H,0,1.367082,-1.85643
 ,1.246508\H,0,0.884306,-2.081186,-0.443881\H,0,3.640623,-2.035787,-1.7
 99177\H,0,2.272596,-1.074655,-2.337157\H,0,3.825806,-0.280877,-1.95924
 5\C,0,2.924444,0.240614,2.034108\H,0,3.756424,-0.190579,2.607883\H,0,2
 .879848,1.301551,2.304176\H,0,2.003539,-0.233336,2.382418\C,0,0.770359
 ,2.242648,0.576002\H,0,1.647445,2.865703,0.7554\H,0,-0.101605,2.896105
 ,0.423712\H,0,0.556977,1.616787,1.443655\C,0,1.755629,1.942161,-1.7863
 02\H,0,1.230474,2.817403,-2.196465\H,0,2.730418,2.280772,-1.430924\H,0
 ,1.863176,1.20014,-2.575806\\Version=ES64L-G16RevA.03\HF=-3033.139562\
 S2=8.762966\S2-1=0.\S2A=8.750052\RMSD=9.592e-09\PG=C01 [X(C8H16Cl3Fe1O
 1)]\\@


 "WOULD YOU TELL ME PLEASE, WHICH WAY I OUGHT TO WALK FROM HERE?"
 "THAT DEPENDS A GREAT DEAL ON WHERE YOU WANT TO GO," SAID THE CAT.
 "I DON'T MUCH CARE WHERE -- ", SAID ALICE.
 "THEN IT DOESN'T MATTER WHICH WAY YOU WALK," SAID THE CAT.

                                      -- LEWIS CARROLL
 Job cpu time:       0 days  1 hours 20 minutes 40.1 seconds.
 Elapsed time:       0 days  0 hours 20 minutes 14.8 seconds.
 File lengths (MBytes):  RWF=    173 Int=      0 D2E=      0 Chk=     13 Scr=      1
 Normal termination of Gaussian 16 at Wed Feb 12 14:11:17 2020.
 Initial command:
 /n/sw/g16_nehalem/g16/l1.exe "/scratch/Gau-313989.inp" -scrdir="/scratch/"
 Entering Link 1 = /n/sw/g16_nehalem/g16/l1.exe PID=    315402.
  
 Copyright (c) 1988,1990,1992,1993,1995,1998,2003,2009,2016,
            Gaussian, Inc.  All Rights Reserved.
  
 This is part of the Gaussian(R) 16 program.  It is based on
 the Gaussian(R) 09 system (copyright 2009, Gaussian, Inc.),
 the Gaussian(R) 03 system (copyright 2003, Gaussian, Inc.),
 the Gaussian(R) 98 system (copyright 1998, Gaussian, Inc.),
 the Gaussian(R) 94 system (copyright 1995, Gaussian, Inc.),
 the Gaussian 92(TM) system (copyright 1992, Gaussian, Inc.),
 the Gaussian 90(TM) system (copyright 1990, Gaussian, Inc.),
 the Gaussian 88(TM) system (copyright 1988, Gaussian, Inc.),
 the Gaussian 86(TM) system (copyright 1986, Carnegie Mellon
 University), and the Gaussian 82(TM) system (copyright 1983,
 Carnegie Mellon University). Gaussian is a federally registered
 trademark of Gaussian, Inc.
  
 This software contains proprietary and confidential information,
 including trade secrets, belonging to Gaussian, Inc.
  
 This software is provided under written license and may be
 used, copied, transmitted, or stored only in accord with that
 written license.
  
 The following legend is applicable only to US Government
 contracts under FAR:
  
                    RESTRICTED RIGHTS LEGEND
  
 Use, reproduction and disclosure by the US Government is
 subject to restrictions as set forth in subparagraphs (a)
 and (c) of the Commercial Computer Software - Restricted
 Rights clause in FAR 52.227-19.
  
 Gaussian, Inc.
 340 Quinnipiac St., Bldg. 40, Wallingford CT 06492
  
  
 ---------------------------------------------------------------
 Warning -- This program may not be used in any manner that
 competes with the business of Gaussian, Inc. or will provide
 assistance to any competitor of Gaussian, Inc.  The licensee
 of this program is prohibited from giving any competitor of
 Gaussian, Inc. access to this program.  By using this program,
 the user acknowledges that Gaussian, Inc. is engaged in the
 business of creating and licensing software in the field of
 computational chemistry and represents and warrants to the
 licensee that it is not a competitor of Gaussian, Inc. and that
 it will not use this program in any manner prohibited above.
 ---------------------------------------------------------------
  

 Cite this work as:
 Gaussian 16, Revision A.03,
 M. J. Frisch, G. W. Trucks, H. B. Schlegel, G. E. Scuseria, 
 M. A. Robb, J. R. Cheeseman, G. Scalmani, V. Barone, 
 G. A. Petersson, H. Nakatsuji, X. Li, M. Caricato, A. V. Marenich, 
 J. Bloino, B. G. Janesko, R. Gomperts, B. Mennucci, H. P. Hratchian, 
 J. V. Ortiz, A. F. Izmaylov, J. L. Sonnenberg, D. Williams-Young, 
 F. Ding, F. Lipparini, F. Egidi, J. Goings, B. Peng, A. Petrone, 
 T. Henderson, D. Ranasinghe, V. G. Zakrzewski, J. Gao, N. Rega, 
 G. Zheng, W. Liang, M. Hada, M. Ehara, K. Toyota, R. Fukuda, 
 J. Hasegawa, M. Ishida, T. Nakajima, Y. Honda, O. Kitao, H. Nakai, 
 T. Vreven, K. Throssell, J. A. Montgomery, Jr., J. E. Peralta, 
 F. Ogliaro, M. J. Bearpark, J. J. Heyd, E. N. Brothers, K. N. Kudin, 
 V. N. Staroverov, T. A. Keith, R. Kobayashi, J. Normand, 
 K. Raghavachari, A. P. Rendell, J. C. Burant, S. S. Iyengar, 
 J. Tomasi, M. Cossi, J. M. Millam, M. Klene, C. Adamo, R. Cammi, 
 J. W. Ochterski, R. L. Martin, K. Morokuma, O. Farkas, 
 J. B. Foresman, and D. J. Fox, Gaussian, Inc., Wallingford CT, 2016.
 
 ******************************************
 Gaussian 16:  ES64L-G16RevA.03 25-Dec-2016
                12-Feb-2020 
 ******************************************
 %chk=checkpoint.chk
 %mem=3GB
 %nprocshared=4
 Will use up to    4 processors via shared memory.
 ---------------------------------------------------------------------
 #t pop=none jul-cc-pvdz guess=read upbe1pbe empiricaldispersion=gd3bj
 ---------------------------------------------------------------------
 -----------------------------
 theory_abbreviation pbe0_d3bj
 -----------------------------
 Symbolic Z-matrix:
 Charge =  0 Multiplicity = 6
 O                     0.16161   0.44697  -0.88718 
 C                     0.90984   1.4231   -0.66649 
 C                     3.15694   0.05977   0.55903 
 C                     2.68595  -0.92846  -0.22502 
 C                     3.13388  -1.07232  -1.65589 
 Fe                   -1.4904   -0.17792   0.01926 
 Cl                   -2.06313  -1.96918  -1.0668 
 C                     1.74335  -2.00408   0.23451 
 Cl                   -2.76908   1.57176  -0.2803 
 Cl                   -1.03327  -0.50604   2.13776 
 H                     3.88436   0.74242   0.11682 
 H                     2.24683  -2.97966   0.1979 
 H                     1.36708  -1.85643   1.24651 
 H                     0.88431  -2.08119  -0.44388 
 H                     3.64062  -2.03579  -1.79918 
 H                     2.2726   -1.07466  -2.33716 
 H                     3.82581  -0.28088  -1.95925 
 C                     2.92444   0.24061   2.03411 
 H                     3.75642  -0.19058   2.60788 
 H                     2.87985   1.30155   2.30418 
 H                     2.00354  -0.23334   2.38242 
 C                     0.77036   2.24265   0.576 
 H                     1.64745   2.8657    0.7554 
 H                    -0.10161   2.89611   0.42371 
 H                     0.55698   1.61679   1.44366 
 C                     1.75563   1.94216  -1.7863 
 H                     1.23047   2.8174   -2.19646 
 H                     2.73042   2.28077  -1.43092 
 H                     1.86318   1.20014  -2.57581 
 
                    Distance matrix (angstroms):
                    1          2          3          4          5
     1  O    0.000000
     2  C    1.249553   0.000000
     3  C    3.348648   2.900000   0.000000
     4  C    2.950008   2.979810   1.346539   0.000000
     5  C    3.425426   3.486023   2.487573   1.506227   0.000000
     6  Fe   1.985261   2.965583   4.684614   4.250279   4.999005
     7  Cl   3.289297   4.528390   5.831729   4.934107   5.306625
     8  C    3.125338   3.640341   2.522506   1.502204   2.524945
     9  Cl   3.197244   3.702118   6.173185   6.000952   6.612736
    10  Cl   3.389129   3.919315   4.513350   4.426478   5.663703
    11  H    3.867068   3.150345   1.091196   2.084441   2.645560
    12  H    4.155395   4.681767   3.193248   2.139881   2.803804
    13  H    3.363248   3.824124   2.710725   2.183100   3.487162
    14  H    2.666528   3.511437   3.279385   2.150018   2.747243
    15  H    4.370281   4.550165   3.191619   2.148380   1.097991
    16  H    2.978932   3.299542   3.233707   2.157161   1.098152
    17  H    3.886570   3.616293   2.627760   2.173977   1.094155
    18  C    4.026136   3.570731   1.504201   2.554856   3.922212
    19  H    5.054171   4.629093   2.149387   3.117009   4.398271
    20  H    4.278306   3.566590   2.159710   3.377485   4.624059
    21  H    3.813896   3.638102   2.177382   2.783455   4.276621
    22  C    2.394984   1.494963   3.234349   3.790390   4.642908
    23  H    3.279644   2.155679   3.192241   4.054061   4.850963
    24  H    2.790339   2.093162   4.322178   4.776884   5.526437
    25  H    2.637724   2.148197   3.157003   3.714201   4.845504
    26  C    2.363244   1.496249   3.317777   3.397583   3.317181
    27  H    2.911299   2.094688   4.348397   4.476215   4.364074
    28  H    3.202699   2.152780   3.012422   3.428610   3.384765
    29  H    2.512779   2.145701   3.577912   3.276292   2.761344
                    6          7          8          9         10
     6  Fe   0.000000
     7  Cl   2.171670   0.000000
     8  C    3.719992   4.022923   0.000000
     9  Cl   2.187721   3.695290   5.780454   0.000000
    10  Cl   2.191953   3.670234   3.684576   3.630049   0.000000
    11  H    5.453865   6.642769   3.484403   6.716678   5.461312
    12  H    4.674242   4.603943   1.098444   6.789946   4.543224
    13  H    3.533941   4.138899   1.089737   5.584927   2.894747
    14  H    3.078337   3.014625   1.097318   5.168943   3.580927
    15  H    5.752026   5.750967   2.781461   7.510368   6.299590
    16  H    4.529569   4.605702   2.785210   6.054142   5.592577
    17  H    5.673373   6.190830   3.481180   7.052913   6.359773
    18  C    4.870897   6.274928   3.110020   6.288448   4.028858
    19  H    5.850667   7.108723   3.601971   7.350480   4.823034
    20  H    5.148665   6.818665   4.062313   6.217945   4.313644
    21  H    4.218436   5.607858   2.795849   5.755542   3.058825
    22  C    3.358594   5.335441   4.370133   3.702828   3.639699
    23  H    4.433016   6.361199   4.898505   4.717267   4.523909
    24  H    3.397348   5.453455   5.239418   3.060215   3.921799
    25  H    3.072724   5.101617   3.997527   3.746553   2.741720
    26  C    4.276859   5.513543   4.433584   4.783116   5.400912
    27  H    4.613521   5.919062   5.423965   4.606487   5.912297
    28  H    5.095442   6.416599   4.701910   5.663132   5.887878
    29  H    4.458690   5.266643   4.263715   5.183166   5.789482
                   11         12         13         14         15
    11  H    0.000000
    12  H    4.067178   0.000000
    13  H    3.790371   1.770644   0.000000
    14  H    4.157819   1.753739   1.772287   0.000000
    15  H    3.383615   2.611870   3.804912   3.071835   0.000000
    16  H    3.452756   3.171152   3.778066   2.554398   1.756330
    17  H    2.315294   3.798666   4.336421   3.766943   1.771898
    18  C    2.202104   3.768420   2.728238   3.961483   4.515417
    19  H    2.663130   3.983199   3.215176   4.597469   4.779161
    20  H    2.471078   4.813095   3.657864   4.793424   5.343605
    21  H    3.102023   3.517614   2.080818   3.557415   4.838865
    22  C    3.486915   5.440167   4.196200   4.443949   5.673173
    23  H    3.149594   5.902400   4.755873   5.147074   5.875647
    24  H    4.540981   6.331724   5.041887   5.147637   6.577923
    25  H    3.687347   5.053199   3.571887   4.164726   5.776342
    26  C    3.097218   5.329413   4.876289   4.329968   4.401981
    27  H    4.086560   6.353887   5.806672   5.214169   5.433241
    28  H    2.468528   5.528024   5.113098   4.838291   4.426823
    29  H    3.397782   5.031038   4.919229   4.033657   3.772757
                   16         17         18         19         20
    16  H    0.000000
    17  H    1.784758   0.000000
    18  C    4.611160   4.126896   0.000000
    19  H    5.238011   4.568547   1.098788   0.000000
    20  H    5.249484   4.644962   1.095679   1.757008   0.000000
    21  H    4.801520   4.708817   1.092710   1.767843   1.769157
    22  C    4.663444   4.704403   3.282422   4.354965   2.884821
    23  H    5.047885   4.692070   3.186991   4.149740   2.522716
    24  H    5.387593   5.585361   4.336125   5.402093   3.868825
    25  H    4.947903   5.085873   2.801319   3.854667   2.497118
    26  C    3.109964   3.042604   4.342456   5.278316   4.290252
    27  H    4.031616   4.048625   5.235181   6.205654   5.027326
    28  H    3.505674   2.835673   4.025710   4.844814   3.864217
    29  H    2.323633   2.534852   4.826830   5.691144   4.985793
                   21         22         23         24         25
    21  H    0.000000
    22  C    3.303690   0.000000
    23  H    3.518243   1.090716   0.000000
    24  H    4.249890   1.100236   1.780482   0.000000
    25  H    2.529184   1.090897   1.795162   1.763709   0.000000
    26  C    4.708766   2.577117   2.706452   3.040311   3.460528
    27  H    5.556150   2.868558   2.981561   2.940401   3.891728
    28  H    4.625005   2.805537   2.508981   3.440736   3.664413
    29  H    5.163191   3.494992   3.730626   3.966582   4.246860
                   26         27         28         29
    26  C    0.000000
    27  H    1.100032   0.000000
    28  H    1.091405   1.767444   0.000000
    29  H    1.088797   1.777569   1.797395   0.000000
 Framework group  C1[X(C8H16Cl3FeO)]
 Deg. of freedom    81
                         Standard orientation:                         
 ---------------------------------------------------------------------
 Center     Atomic      Atomic             Coordinates (Angstroms)
 Number     Number       Type             X           Y           Z
 ---------------------------------------------------------------------
      1          8           0        0.161608    0.446968   -0.887181
      2          6           0        0.909842    1.423095   -0.666492
      3          6           0        3.156938    0.059768    0.559028
      4          6           0        2.685946   -0.928463   -0.225022
      5          6           0        3.133878   -1.072323   -1.655889
      6         26           0       -1.490402   -0.177921    0.019262
      7         17           0       -2.063131   -1.969175   -1.066804
      8          6           0        1.743348   -2.004084    0.234506
      9         17           0       -2.769075    1.571760   -0.280297
     10         17           0       -1.033266   -0.506036    2.137758
     11          1           0        3.884364    0.742416    0.116816
     12          1           0        2.246828   -2.979659    0.197898
     13          1           0        1.367082   -1.856430    1.246508
     14          1           0        0.884306   -2.081186   -0.443881
     15          1           0        3.640623   -2.035787   -1.799177
     16          1           0        2.272596   -1.074655   -2.337157
     17          1           0        3.825806   -0.280877   -1.959245
     18          6           0        2.924444    0.240614    2.034108
     19          1           0        3.756424   -0.190579    2.607883
     20          1           0        2.879848    1.301551    2.304176
     21          1           0        2.003539   -0.233336    2.382418
     22          6           0        0.770359    2.242648    0.576002
     23          1           0        1.647445    2.865703    0.755400
     24          1           0       -0.101605    2.896105    0.423712
     25          1           0        0.556977    1.616787    1.443655
     26          6           0        1.755629    1.942161   -1.786302
     27          1           0        1.230474    2.817403   -2.196465
     28          1           0        2.730418    2.280772   -1.430924
     29          1           0        1.863176    1.200140   -2.575806
 ---------------------------------------------------------------------
 Rotational constants (GHZ):           0.5638539           0.3185903           0.2999710
   427 basis functions,  1056 primitive gaussians,   461 cartesian basis functions
    77 alpha electrons       72 beta electrons
       nuclear repulsion energy      1615.9881000392 Hartrees.
 NAtoms=   29 NActive=   29 NUniq=   29 SFac= 1.00D+00 NAtFMM=   60 NAOKFM=F Big=F
 Nuclear repulsion after empirical dispersion term =     1615.9521352718 Hartrees.
 Initial guess from the checkpoint file:  "checkpoint.chk"
 B after Tr=     0.000000    0.000000    0.000000
         Rot=    1.000000    0.000000    0.000000    0.000000 Ang=   0.00 deg.
 Initial guess <Sx>= 0.0000 <Sy>= 0.0000 <Sz>= 2.5000 <S**2>= 8.7630 S= 2.5022
 SCF Done:  E(UPBE1PBE) =  -3033.17552676     A.U. after    1 cycles
            NFock=  1  Conv=0.38D-08     -V/T= 2.0021
 <Sx>= 0.0000 <Sy>= 0.0000 <Sz>= 2.5000 <S**2>= 8.7630 S= 2.5022
 <L.S>= 0.000000000000E+00
 Annihilation of the first spin contaminant:
 S**2 before annihilation     8.7630,   after     8.7501
 1\1\GINC-HOLY7C08404\SP\UPBE1PBE\Jul-CC-pVDZ\C8H16Cl3Fe1O1(6)\EKWAN\12
 -Feb-2020\0\\#t pop=none jul-cc-pvdz guess=read upbe1pbe empiricaldisp
 ersion=gd3bj\\theory_abbreviation pbe0_d3bj\\0,6\O,0,0.161608,0.446968
 ,-0.887181\C,0,0.909842,1.423095,-0.666492\C,0,3.156938,0.059768,0.559
 028\C,0,2.685946,-0.928463,-0.225022\C,0,3.133878,-1.072323,-1.655889\
 Fe,0,-1.490402,-0.177921,0.019262\Cl,0,-2.063131,-1.969175,-1.066804\C
 ,0,1.743348,-2.004084,0.234506\Cl,0,-2.769075,1.57176,-0.280297\Cl,0,-
 1.033266,-0.506036,2.137758\H,0,3.884364,0.742416,0.116816\H,0,2.24682
 8,-2.979659,0.197898\H,0,1.367082,-1.85643,1.246508\H,0,0.884306,-2.08
 1186,-0.443881\H,0,3.640623,-2.035787,-1.799177\H,0,2.272596,-1.074655
 ,-2.337157\H,0,3.825806,-0.280877,-1.959245\C,0,2.924444,0.240614,2.03
 4108\H,0,3.756424,-0.190579,2.607883\H,0,2.879848,1.301551,2.304176\H,
 0,2.003539,-0.233336,2.382418\C,0,0.770359,2.242648,0.576002\H,0,1.647
 445,2.865703,0.7554\H,0,-0.101605,2.896105,0.423712\H,0,0.556977,1.616
 787,1.443655\C,0,1.755629,1.942161,-1.786302\H,0,1.230474,2.817403,-2.
 196465\H,0,2.730418,2.280772,-1.430924\H,0,1.863176,1.20014,-2.575806\
 \Version=ES64L-G16RevA.03\HF=-3033.1755268\S2=8.762966\S2-1=0.\S2A=8.7
 50052\RMSD=3.768e-09\PG=C01 [X(C8H16Cl3Fe1O1)]\\@


 SUCCESS IS NEVER CERTAIN,
 FAILURE IS NEVER FINAL.
 Job cpu time:       0 days  0 hours  4 minutes 21.4 seconds.
 Elapsed time:       0 days  0 hours  1 minutes  5.8 seconds.
 File lengths (MBytes):  RWF=    170 Int=      0 D2E=      0 Chk=     13 Scr=      1
 Normal termination of Gaussian 16 at Wed Feb 12 14:12:23 2020.
 Initial command:
 /n/sw/g16_nehalem/g16/l1.exe "/scratch/Gau-313989.inp" -scrdir="/scratch/"
 Entering Link 1 = /n/sw/g16_nehalem/g16/l1.exe PID=    315484.
  
 Copyright (c) 1988,1990,1992,1993,1995,1998,2003,2009,2016,
            Gaussian, Inc.  All Rights Reserved.
  
 This is part of the Gaussian(R) 16 program.  It is based on
 the Gaussian(R) 09 system (copyright 2009, Gaussian, Inc.),
 the Gaussian(R) 03 system (copyright 2003, Gaussian, Inc.),
 the Gaussian(R) 98 system (copyright 1998, Gaussian, Inc.),
 the Gaussian(R) 94 system (copyright 1995, Gaussian, Inc.),
 the Gaussian 92(TM) system (copyright 1992, Gaussian, Inc.),
 the Gaussian 90(TM) system (copyright 1990, Gaussian, Inc.),
 the Gaussian 88(TM) system (copyright 1988, Gaussian, Inc.),
 the Gaussian 86(TM) system (copyright 1986, Carnegie Mellon
 University), and the Gaussian 82(TM) system (copyright 1983,
 Carnegie Mellon University). Gaussian is a federally registered
 trademark of Gaussian, Inc.
  
 This software contains proprietary and confidential information,
 including trade secrets, belonging to Gaussian, Inc.
  
 This software is provided under written license and may be
 used, copied, transmitted, or stored only in accord with that
 written license.
  
 The following legend is applicable only to US Government
 contracts under FAR:
  
                    RESTRICTED RIGHTS LEGEND
  
 Use, reproduction and disclosure by the US Government is
 subject to restrictions as set forth in subparagraphs (a)
 and (c) of the Commercial Computer Software - Restricted
 Rights clause in FAR 52.227-19.
  
 Gaussian, Inc.
 340 Quinnipiac St., Bldg. 40, Wallingford CT 06492
  
  
 ---------------------------------------------------------------
 Warning -- This program may not be used in any manner that
 competes with the business of Gaussian, Inc. or will provide
 assistance to any competitor of Gaussian, Inc.  The licensee
 of this program is prohibited from giving any competitor of
 Gaussian, Inc. access to this program.  By using this program,
 the user acknowledges that Gaussian, Inc. is engaged in the
 business of creating and licensing software in the field of
 computational chemistry and represents and warrants to the
 licensee that it is not a competitor of Gaussian, Inc. and that
 it will not use this program in any manner prohibited above.
 ---------------------------------------------------------------
  

 Cite this work as:
 Gaussian 16, Revision A.03,
 M. J. Frisch, G. W. Trucks, H. B. Schlegel, G. E. Scuseria, 
 M. A. Robb, J. R. Cheeseman, G. Scalmani, V. Barone, 
 G. A. Petersson, H. Nakatsuji, X. Li, M. Caricato, A. V. Marenich, 
 J. Bloino, B. G. Janesko, R. Gomperts, B. Mennucci, H. P. Hratchian, 
 J. V. Ortiz, A. F. Izmaylov, J. L. Sonnenberg, D. Williams-Young, 
 F. Ding, F. Lipparini, F. Egidi, J. Goings, B. Peng, A. Petrone, 
 T. Henderson, D. Ranasinghe, V. G. Zakrzewski, J. Gao, N. Rega, 
 G. Zheng, W. Liang, M. Hada, M. Ehara, K. Toyota, R. Fukuda, 
 J. Hasegawa, M. Ishida, T. Nakajima, Y. Honda, O. Kitao, H. Nakai, 
 T. Vreven, K. Throssell, J. A. Montgomery, Jr., J. E. Peralta, 
 F. Ogliaro, M. J. Bearpark, J. J. Heyd, E. N. Brothers, K. N. Kudin, 
 V. N. Staroverov, T. A. Keith, R. Kobayashi, J. Normand, 
 K. Raghavachari, A. P. Rendell, J. C. Burant, S. S. Iyengar, 
 J. Tomasi, M. Cossi, J. M. Millam, M. Klene, C. Adamo, R. Cammi, 
 J. W. Ochterski, R. L. Martin, K. Morokuma, O. Farkas, 
 J. B. Foresman, and D. J. Fox, Gaussian, Inc., Wallingford CT, 2016.
 
 ******************************************
 Gaussian 16:  ES64L-G16RevA.03 25-Dec-2016
                12-Feb-2020 
 ******************************************
 %chk=checkpoint.chk
 %mem=3GB
 %nprocshared=4
 Will use up to    4 processors via shared memory.
 -----------------------------------------
 #t pop=none jul-cc-pvdz guess=read ub3lyp
 -----------------------------------------
 -------------------------
 theory_abbreviation b3lyp
 -------------------------
 Symbolic Z-matrix:
 Charge =  0 Multiplicity = 6
 O                     0.16161   0.44697  -0.88718 
 C                     0.90984   1.4231   -0.66649 
 C                     3.15694   0.05977   0.55903 
 C                     2.68595  -0.92846  -0.22502 
 C                     3.13388  -1.07232  -1.65589 
 Fe                   -1.4904   -0.17792   0.01926 
 Cl                   -2.06313  -1.96918  -1.0668 
 C                     1.74335  -2.00408   0.23451 
 Cl                   -2.76908   1.57176  -0.2803 
 Cl                   -1.03327  -0.50604   2.13776 
 H                     3.88436   0.74242   0.11682 
 H                     2.24683  -2.97966   0.1979 
 H                     1.36708  -1.85643   1.24651 
 H                     0.88431  -2.08119  -0.44388 
 H                     3.64062  -2.03579  -1.79918 
 H                     2.2726   -1.07466  -2.33716 
 H                     3.82581  -0.28088  -1.95925 
 C                     2.92444   0.24061   2.03411 
 H                     3.75642  -0.19058   2.60788 
 H                     2.87985   1.30155   2.30418 
 H                     2.00354  -0.23334   2.38242 
 C                     0.77036   2.24265   0.576 
 H                     1.64745   2.8657    0.7554 
 H                    -0.10161   2.89611   0.42371 
 H                     0.55698   1.61679   1.44366 
 C                     1.75563   1.94216  -1.7863 
 H                     1.23047   2.8174   -2.19646 
 H                     2.73042   2.28077  -1.43092 
 H                     1.86318   1.20014  -2.57581 
 
                    Distance matrix (angstroms):
                    1          2          3          4          5
     1  O    0.000000
     2  C    1.249553   0.000000
     3  C    3.348648   2.900000   0.000000
     4  C    2.950008   2.979810   1.346539   0.000000
     5  C    3.425426   3.486023   2.487573   1.506227   0.000000
     6  Fe   1.985261   2.965583   4.684614   4.250279   4.999005
     7  Cl   3.289297   4.528390   5.831729   4.934107   5.306625
     8  C    3.125338   3.640341   2.522506   1.502204   2.524945
     9  Cl   3.197244   3.702118   6.173185   6.000952   6.612736
    10  Cl   3.389129   3.919315   4.513350   4.426478   5.663703
    11  H    3.867068   3.150345   1.091196   2.084441   2.645560
    12  H    4.155395   4.681767   3.193248   2.139881   2.803804
    13  H    3.363248   3.824124   2.710725   2.183100   3.487162
    14  H    2.666528   3.511437   3.279385   2.150018   2.747243
    15  H    4.370281   4.550165   3.191619   2.148380   1.097991
    16  H    2.978932   3.299542   3.233707   2.157161   1.098152
    17  H    3.886570   3.616293   2.627760   2.173977   1.094155
    18  C    4.026136   3.570731   1.504201   2.554856   3.922212
    19  H    5.054171   4.629093   2.149387   3.117009   4.398271
    20  H    4.278306   3.566590   2.159710   3.377485   4.624059
    21  H    3.813896   3.638102   2.177382   2.783455   4.276621
    22  C    2.394984   1.494963   3.234349   3.790390   4.642908
    23  H    3.279644   2.155679   3.192241   4.054061   4.850963
    24  H    2.790339   2.093162   4.322178   4.776884   5.526437
    25  H    2.637724   2.148197   3.157003   3.714201   4.845504
    26  C    2.363244   1.496249   3.317777   3.397583   3.317181
    27  H    2.911299   2.094688   4.348397   4.476215   4.364074
    28  H    3.202699   2.152780   3.012422   3.428610   3.384765
    29  H    2.512779   2.145701   3.577912   3.276292   2.761344
                    6          7          8          9         10
     6  Fe   0.000000
     7  Cl   2.171670   0.000000
     8  C    3.719992   4.022923   0.000000
     9  Cl   2.187721   3.695290   5.780454   0.000000
    10  Cl   2.191953   3.670234   3.684576   3.630049   0.000000
    11  H    5.453865   6.642769   3.484403   6.716678   5.461312
    12  H    4.674242   4.603943   1.098444   6.789946   4.543224
    13  H    3.533941   4.138899   1.089737   5.584927   2.894747
    14  H    3.078337   3.014625   1.097318   5.168943   3.580927
    15  H    5.752026   5.750967   2.781461   7.510368   6.299590
    16  H    4.529569   4.605702   2.785210   6.054142   5.592577
    17  H    5.673373   6.190830   3.481180   7.052913   6.359773
    18  C    4.870897   6.274928   3.110020   6.288448   4.028858
    19  H    5.850667   7.108723   3.601971   7.350480   4.823034
    20  H    5.148665   6.818665   4.062313   6.217945   4.313644
    21  H    4.218436   5.607858   2.795849   5.755542   3.058825
    22  C    3.358594   5.335441   4.370133   3.702828   3.639699
    23  H    4.433016   6.361199   4.898505   4.717267   4.523909
    24  H    3.397348   5.453455   5.239418   3.060215   3.921799
    25  H    3.072724   5.101617   3.997527   3.746553   2.741720
    26  C    4.276859   5.513543   4.433584   4.783116   5.400912
    27  H    4.613521   5.919062   5.423965   4.606487   5.912297
    28  H    5.095442   6.416599   4.701910   5.663132   5.887878
    29  H    4.458690   5.266643   4.263715   5.183166   5.789482
                   11         12         13         14         15
    11  H    0.000000
    12  H    4.067178   0.000000
    13  H    3.790371   1.770644   0.000000
    14  H    4.157819   1.753739   1.772287   0.000000
    15  H    3.383615   2.611870   3.804912   3.071835   0.000000
    16  H    3.452756   3.171152   3.778066   2.554398   1.756330
    17  H    2.315294   3.798666   4.336421   3.766943   1.771898
    18  C    2.202104   3.768420   2.728238   3.961483   4.515417
    19  H    2.663130   3.983199   3.215176   4.597469   4.779161
    20  H    2.471078   4.813095   3.657864   4.793424   5.343605
    21  H    3.102023   3.517614   2.080818   3.557415   4.838865
    22  C    3.486915   5.440167   4.196200   4.443949   5.673173
    23  H    3.149594   5.902400   4.755873   5.147074   5.875647
    24  H    4.540981   6.331724   5.041887   5.147637   6.577923
    25  H    3.687347   5.053199   3.571887   4.164726   5.776342
    26  C    3.097218   5.329413   4.876289   4.329968   4.401981
    27  H    4.086560   6.353887   5.806672   5.214169   5.433241
    28  H    2.468528   5.528024   5.113098   4.838291   4.426823
    29  H    3.397782   5.031038   4.919229   4.033657   3.772757
                   16         17         18         19         20
    16  H    0.000000
    17  H    1.784758   0.000000
    18  C    4.611160   4.126896   0.000000
    19  H    5.238011   4.568547   1.098788   0.000000
    20  H    5.249484   4.644962   1.095679   1.757008   0.000000
    21  H    4.801520   4.708817   1.092710   1.767843   1.769157
    22  C    4.663444   4.704403   3.282422   4.354965   2.884821
    23  H    5.047885   4.692070   3.186991   4.149740   2.522716
    24  H    5.387593   5.585361   4.336125   5.402093   3.868825
    25  H    4.947903   5.085873   2.801319   3.854667   2.497118
    26  C    3.109964   3.042604   4.342456   5.278316   4.290252
    27  H    4.031616   4.048625   5.235181   6.205654   5.027326
    28  H    3.505674   2.835673   4.025710   4.844814   3.864217
    29  H    2.323633   2.534852   4.826830   5.691144   4.985793
                   21         22         23         24         25
    21  H    0.000000
    22  C    3.303690   0.000000
    23  H    3.518243   1.090716   0.000000
    24  H    4.249890   1.100236   1.780482   0.000000
    25  H    2.529184   1.090897   1.795162   1.763709   0.000000
    26  C    4.708766   2.577117   2.706452   3.040311   3.460528
    27  H    5.556150   2.868558   2.981561   2.940401   3.891728
    28  H    4.625005   2.805537   2.508981   3.440736   3.664413
    29  H    5.163191   3.494992   3.730626   3.966582   4.246860
                   26         27         28         29
    26  C    0.000000
    27  H    1.100032   0.000000
    28  H    1.091405   1.767444   0.000000
    29  H    1.088797   1.777569   1.797395   0.000000
 Framework group  C1[X(C8H16Cl3FeO)]
 Deg. of freedom    81
                         Standard orientation:                         
 ---------------------------------------------------------------------
 Center     Atomic      Atomic             Coordinates (Angstroms)
 Number     Number       Type             X           Y           Z
 ---------------------------------------------------------------------
      1          8           0        0.161608    0.446968   -0.887181
      2          6           0        0.909842    1.423095   -0.666492
      3          6           0        3.156938    0.059768    0.559028
      4          6           0        2.685946   -0.928463   -0.225022
      5          6           0        3.133878   -1.072323   -1.655889
      6         26           0       -1.490402   -0.177921    0.019262
      7         17           0       -2.063131   -1.969175   -1.066804
      8          6           0        1.743348   -2.004084    0.234506
      9         17           0       -2.769075    1.571760   -0.280297
     10         17           0       -1.033266   -0.506036    2.137758
     11          1           0        3.884364    0.742416    0.116816
     12          1           0        2.246828   -2.979659    0.197898
     13          1           0        1.367082   -1.856430    1.246508
     14          1           0        0.884306   -2.081186   -0.443881
     15          1           0        3.640623   -2.035787   -1.799177
     16          1           0        2.272596   -1.074655   -2.337157
     17          1           0        3.825806   -0.280877   -1.959245
     18          6           0        2.924444    0.240614    2.034108
     19          1           0        3.756424   -0.190579    2.607883
     20          1           0        2.879848    1.301551    2.304176
     21          1           0        2.003539   -0.233336    2.382418
     22          6           0        0.770359    2.242648    0.576002
     23          1           0        1.647445    2.865703    0.755400
     24          1           0       -0.101605    2.896105    0.423712
     25          1           0        0.556977    1.616787    1.443655
     26          6           0        1.755629    1.942161   -1.786302
     27          1           0        1.230474    2.817403   -2.196465
     28          1           0        2.730418    2.280772   -1.430924
     29          1           0        1.863176    1.200140   -2.575806
 ---------------------------------------------------------------------
 Rotational constants (GHZ):           0.5638539           0.3185903           0.2999710
   427 basis functions,  1056 primitive gaussians,   461 cartesian basis functions
    77 alpha electrons       72 beta electrons
       nuclear repulsion energy      1615.9881000392 Hartrees.
 NAtoms=   29 NActive=   29 NUniq=   29 SFac= 1.00D+00 NAtFMM=   60 NAOKFM=F Big=F
 Initial guess from the checkpoint file:  "checkpoint.chk"
 B after Tr=     0.000000    0.000000    0.000000
         Rot=    1.000000    0.000000    0.000000    0.000000 Ang=   0.00 deg.
 Initial guess <Sx>= 0.0000 <Sy>= 0.0000 <Sz>= 2.5000 <S**2>= 8.7630 S= 2.5022
 SCF Done:  E(UB3LYP) =  -3034.35843844     A.U. after   13 cycles
            NFock= 13  Conv=0.78D-08     -V/T= 2.0024
 <Sx>= 0.0000 <Sy>= 0.0000 <Sz>= 2.5000 <S**2>= 8.7623 S= 2.5020
 <L.S>= 0.000000000000E+00
 Annihilation of the first spin contaminant:
 S**2 before annihilation     8.7623,   after     8.7500
 1\1\GINC-HOLY7C08404\SP\UB3LYP\Jul-CC-pVDZ\C8H16Cl3Fe1O1(6)\EKWAN\12-F
 eb-2020\0\\#t pop=none jul-cc-pvdz guess=read ub3lyp\\theory_abbreviat
 ion b3lyp\\0,6\O,0,0.161608,0.446968,-0.887181\C,0,0.909842,1.423095,-
 0.666492\C,0,3.156938,0.059768,0.559028\C,0,2.685946,-0.928463,-0.2250
 22\C,0,3.133878,-1.072323,-1.655889\Fe,0,-1.490402,-0.177921,0.019262\
 Cl,0,-2.063131,-1.969175,-1.066804\C,0,1.743348,-2.004084,0.234506\Cl,
 0,-2.769075,1.57176,-0.280297\Cl,0,-1.033266,-0.506036,2.137758\H,0,3.
 884364,0.742416,0.116816\H,0,2.246828,-2.979659,0.197898\H,0,1.367082,
 -1.85643,1.246508\H,0,0.884306,-2.081186,-0.443881\H,0,3.640623,-2.035
 787,-1.799177\H,0,2.272596,-1.074655,-2.337157\H,0,3.825806,-0.280877,
 -1.959245\C,0,2.924444,0.240614,2.034108\H,0,3.756424,-0.190579,2.6078
 83\H,0,2.879848,1.301551,2.304176\H,0,2.003539,-0.233336,2.382418\C,0,
 0.770359,2.242648,0.576002\H,0,1.647445,2.865703,0.7554\H,0,-0.101605,
 2.896105,0.423712\H,0,0.556977,1.616787,1.443655\C,0,1.755629,1.942161
 ,-1.786302\H,0,1.230474,2.817403,-2.196465\H,0,2.730418,2.280772,-1.43
 0924\H,0,1.863176,1.20014,-2.575806\\Version=ES64L-G16RevA.03\HF=-3034
 .3584384\S2=8.76225\S2-1=0.\S2A=8.750046\RMSD=7.805e-09\PG=C01 [X(C8H1
 6Cl3Fe1O1)]\\@


 CURIOUSER AND CURIOUSER

                  -- ALICE, IN WONDERLAND
 Job cpu time:       0 days  0 hours 51 minutes 31.4 seconds.
 Elapsed time:       0 days  0 hours 12 minutes 55.0 seconds.
 File lengths (MBytes):  RWF=    174 Int=      0 D2E=      0 Chk=     13 Scr=      1
 Normal termination of Gaussian 16 at Wed Feb 12 14:25:19 2020.
 Initial command:
 /n/sw/g16_nehalem/g16/l1.exe "/scratch/Gau-313989.inp" -scrdir="/scratch/"
 Entering Link 1 = /n/sw/g16_nehalem/g16/l1.exe PID=    316194.
  
 Copyright (c) 1988,1990,1992,1993,1995,1998,2003,2009,2016,
            Gaussian, Inc.  All Rights Reserved.
  
 This is part of the Gaussian(R) 16 program.  It is based on
 the Gaussian(R) 09 system (copyright 2009, Gaussian, Inc.),
 the Gaussian(R) 03 system (copyright 2003, Gaussian, Inc.),
 the Gaussian(R) 98 system (copyright 1998, Gaussian, Inc.),
 the Gaussian(R) 94 system (copyright 1995, Gaussian, Inc.),
 the Gaussian 92(TM) system (copyright 1992, Gaussian, Inc.),
 the Gaussian 90(TM) system (copyright 1990, Gaussian, Inc.),
 the Gaussian 88(TM) system (copyright 1988, Gaussian, Inc.),
 the Gaussian 86(TM) system (copyright 1986, Carnegie Mellon
 University), and the Gaussian 82(TM) system (copyright 1983,
 Carnegie Mellon University). Gaussian is a federally registered
 trademark of Gaussian, Inc.
  
 This software contains proprietary and confidential information,
 including trade secrets, belonging to Gaussian, Inc.
  
 This software is provided under written license and may be
 used, copied, transmitted, or stored only in accord with that
 written license.
  
 The following legend is applicable only to US Government
 contracts under FAR:
  
                    RESTRICTED RIGHTS LEGEND
  
 Use, reproduction and disclosure by the US Government is
 subject to restrictions as set forth in subparagraphs (a)
 and (c) of the Commercial Computer Software - Restricted
 Rights clause in FAR 52.227-19.
  
 Gaussian, Inc.
 340 Quinnipiac St., Bldg. 40, Wallingford CT 06492
  
  
 ---------------------------------------------------------------
 Warning -- This program may not be used in any manner that
 competes with the business of Gaussian, Inc. or will provide
 assistance to any competitor of Gaussian, Inc.  The licensee
 of this program is prohibited from giving any competitor of
 Gaussian, Inc. access to this program.  By using this program,
 the user acknowledges that Gaussian, Inc. is engaged in the
 business of creating and licensing software in the field of
 computational chemistry and represents and warrants to the
 licensee that it is not a competitor of Gaussian, Inc. and that
 it will not use this program in any manner prohibited above.
 ---------------------------------------------------------------
  

 Cite this work as:
 Gaussian 16, Revision A.03,
 M. J. Frisch, G. W. Trucks, H. B. Schlegel, G. E. Scuseria, 
 M. A. Robb, J. R. Cheeseman, G. Scalmani, V. Barone, 
 G. A. Petersson, H. Nakatsuji, X. Li, M. Caricato, A. V. Marenich, 
 J. Bloino, B. G. Janesko, R. Gomperts, B. Mennucci, H. P. Hratchian, 
 J. V. Ortiz, A. F. Izmaylov, J. L. Sonnenberg, D. Williams-Young, 
 F. Ding, F. Lipparini, F. Egidi, J. Goings, B. Peng, A. Petrone, 
 T. Henderson, D. Ranasinghe, V. G. Zakrzewski, J. Gao, N. Rega, 
 G. Zheng, W. Liang, M. Hada, M. Ehara, K. Toyota, R. Fukuda, 
 J. Hasegawa, M. Ishida, T. Nakajima, Y. Honda, O. Kitao, H. Nakai, 
 T. Vreven, K. Throssell, J. A. Montgomery, Jr., J. E. Peralta, 
 F. Ogliaro, M. J. Bearpark, J. J. Heyd, E. N. Brothers, K. N. Kudin, 
 V. N. Staroverov, T. A. Keith, R. Kobayashi, J. Normand, 
 K. Raghavachari, A. P. Rendell, J. C. Burant, S. S. Iyengar, 
 J. Tomasi, M. Cossi, J. M. Millam, M. Klene, C. Adamo, R. Cammi, 
 J. W. Ochterski, R. L. Martin, K. Morokuma, O. Farkas, 
 J. B. Foresman, and D. J. Fox, Gaussian, Inc., Wallingford CT, 2016.
 
 ******************************************
 Gaussian 16:  ES64L-G16RevA.03 25-Dec-2016
                12-Feb-2020 
 ******************************************
 %chk=checkpoint.chk
 %mem=3GB
 %nprocshared=4
 Will use up to    4 processors via shared memory.
 -------------------------------------------------------------------
 #t pop=none jul-cc-pvdz guess=read ub3lyp empiricaldispersion=gd3bj
 -------------------------------------------------------------------
 ------------------------------
 theory_abbreviation b3lyp_d3bj
 ------------------------------
 Symbolic Z-matrix:
 Charge =  0 Multiplicity = 6
 O                     0.16161   0.44697  -0.88718 
 C                     0.90984   1.4231   -0.66649 
 C                     3.15694   0.05977   0.55903 
 C                     2.68595  -0.92846  -0.22502 
 C                     3.13388  -1.07232  -1.65589 
 Fe                   -1.4904   -0.17792   0.01926 
 Cl                   -2.06313  -1.96918  -1.0668 
 C                     1.74335  -2.00408   0.23451 
 Cl                   -2.76908   1.57176  -0.2803 
 Cl                   -1.03327  -0.50604   2.13776 
 H                     3.88436   0.74242   0.11682 
 H                     2.24683  -2.97966   0.1979 
 H                     1.36708  -1.85643   1.24651 
 H                     0.88431  -2.08119  -0.44388 
 H                     3.64062  -2.03579  -1.79918 
 H                     2.2726   -1.07466  -2.33716 
 H                     3.82581  -0.28088  -1.95925 
 C                     2.92444   0.24061   2.03411 
 H                     3.75642  -0.19058   2.60788 
 H                     2.87985   1.30155   2.30418 
 H                     2.00354  -0.23334   2.38242 
 C                     0.77036   2.24265   0.576 
 H                     1.64745   2.8657    0.7554 
 H                    -0.10161   2.89611   0.42371 
 H                     0.55698   1.61679   1.44366 
 C                     1.75563   1.94216  -1.7863 
 H                     1.23047   2.8174   -2.19646 
 H                     2.73042   2.28077  -1.43092 
 H                     1.86318   1.20014  -2.57581 
 
                    Distance matrix (angstroms):
                    1          2          3          4          5
     1  O    0.000000
     2  C    1.249553   0.000000
     3  C    3.348648   2.900000   0.000000
     4  C    2.950008   2.979810   1.346539   0.000000
     5  C    3.425426   3.486023   2.487573   1.506227   0.000000
     6  Fe   1.985261   2.965583   4.684614   4.250279   4.999005
     7  Cl   3.289297   4.528390   5.831729   4.934107   5.306625
     8  C    3.125338   3.640341   2.522506   1.502204   2.524945
     9  Cl   3.197244   3.702118   6.173185   6.000952   6.612736
    10  Cl   3.389129   3.919315   4.513350   4.426478   5.663703
    11  H    3.867068   3.150345   1.091196   2.084441   2.645560
    12  H    4.155395   4.681767   3.193248   2.139881   2.803804
    13  H    3.363248   3.824124   2.710725   2.183100   3.487162
    14  H    2.666528   3.511437   3.279385   2.150018   2.747243
    15  H    4.370281   4.550165   3.191619   2.148380   1.097991
    16  H    2.978932   3.299542   3.233707   2.157161   1.098152
    17  H    3.886570   3.616293   2.627760   2.173977   1.094155
    18  C    4.026136   3.570731   1.504201   2.554856   3.922212
    19  H    5.054171   4.629093   2.149387   3.117009   4.398271
    20  H    4.278306   3.566590   2.159710   3.377485   4.624059
    21  H    3.813896   3.638102   2.177382   2.783455   4.276621
    22  C    2.394984   1.494963   3.234349   3.790390   4.642908
    23  H    3.279644   2.155679   3.192241   4.054061   4.850963
    24  H    2.790339   2.093162   4.322178   4.776884   5.526437
    25  H    2.637724   2.148197   3.157003   3.714201   4.845504
    26  C    2.363244   1.496249   3.317777   3.397583   3.317181
    27  H    2.911299   2.094688   4.348397   4.476215   4.364074
    28  H    3.202699   2.152780   3.012422   3.428610   3.384765
    29  H    2.512779   2.145701   3.577912   3.276292   2.761344
                    6          7          8          9         10
     6  Fe   0.000000
     7  Cl   2.171670   0.000000
     8  C    3.719992   4.022923   0.000000
     9  Cl   2.187721   3.695290   5.780454   0.000000
    10  Cl   2.191953   3.670234   3.684576   3.630049   0.000000
    11  H    5.453865   6.642769   3.484403   6.716678   5.461312
    12  H    4.674242   4.603943   1.098444   6.789946   4.543224
    13  H    3.533941   4.138899   1.089737   5.584927   2.894747
    14  H    3.078337   3.014625   1.097318   5.168943   3.580927
    15  H    5.752026   5.750967   2.781461   7.510368   6.299590
    16  H    4.529569   4.605702   2.785210   6.054142   5.592577
    17  H    5.673373   6.190830   3.481180   7.052913   6.359773
    18  C    4.870897   6.274928   3.110020   6.288448   4.028858
    19  H    5.850667   7.108723   3.601971   7.350480   4.823034
    20  H    5.148665   6.818665   4.062313   6.217945   4.313644
    21  H    4.218436   5.607858   2.795849   5.755542   3.058825
    22  C    3.358594   5.335441   4.370133   3.702828   3.639699
    23  H    4.433016   6.361199   4.898505   4.717267   4.523909
    24  H    3.397348   5.453455   5.239418   3.060215   3.921799
    25  H    3.072724   5.101617   3.997527   3.746553   2.741720
    26  C    4.276859   5.513543   4.433584   4.783116   5.400912
    27  H    4.613521   5.919062   5.423965   4.606487   5.912297
    28  H    5.095442   6.416599   4.701910   5.663132   5.887878
    29  H    4.458690   5.266643   4.263715   5.183166   5.789482
                   11         12         13         14         15
    11  H    0.000000
    12  H    4.067178   0.000000
    13  H    3.790371   1.770644   0.000000
    14  H    4.157819   1.753739   1.772287   0.000000
    15  H    3.383615   2.611870   3.804912   3.071835   0.000000
    16  H    3.452756   3.171152   3.778066   2.554398   1.756330
    17  H    2.315294   3.798666   4.336421   3.766943   1.771898
    18  C    2.202104   3.768420   2.728238   3.961483   4.515417
    19  H    2.663130   3.983199   3.215176   4.597469   4.779161
    20  H    2.471078   4.813095   3.657864   4.793424   5.343605
    21  H    3.102023   3.517614   2.080818   3.557415   4.838865
    22  C    3.486915   5.440167   4.196200   4.443949   5.673173
    23  H    3.149594   5.902400   4.755873   5.147074   5.875647
    24  H    4.540981   6.331724   5.041887   5.147637   6.577923
    25  H    3.687347   5.053199   3.571887   4.164726   5.776342
    26  C    3.097218   5.329413   4.876289   4.329968   4.401981
    27  H    4.086560   6.353887   5.806672   5.214169   5.433241
    28  H    2.468528   5.528024   5.113098   4.838291   4.426823
    29  H    3.397782   5.031038   4.919229   4.033657   3.772757
                   16         17         18         19         20
    16  H    0.000000
    17  H    1.784758   0.000000
    18  C    4.611160   4.126896   0.000000
    19  H    5.238011   4.568547   1.098788   0.000000
    20  H    5.249484   4.644962   1.095679   1.757008   0.000000
    21  H    4.801520   4.708817   1.092710   1.767843   1.769157
    22  C    4.663444   4.704403   3.282422   4.354965   2.884821
    23  H    5.047885   4.692070   3.186991   4.149740   2.522716
    24  H    5.387593   5.585361   4.336125   5.402093   3.868825
    25  H    4.947903   5.085873   2.801319   3.854667   2.497118
    26  C    3.109964   3.042604   4.342456   5.278316   4.290252
    27  H    4.031616   4.048625   5.235181   6.205654   5.027326
    28  H    3.505674   2.835673   4.025710   4.844814   3.864217
    29  H    2.323633   2.534852   4.826830   5.691144   4.985793
                   21         22         23         24         25
    21  H    0.000000
    22  C    3.303690   0.000000
    23  H    3.518243   1.090716   0.000000
    24  H    4.249890   1.100236   1.780482   0.000000
    25  H    2.529184   1.090897   1.795162   1.763709   0.000000
    26  C    4.708766   2.577117   2.706452   3.040311   3.460528
    27  H    5.556150   2.868558   2.981561   2.940401   3.891728
    28  H    4.625005   2.805537   2.508981   3.440736   3.664413
    29  H    5.163191   3.494992   3.730626   3.966582   4.246860
                   26         27         28         29
    26  C    0.000000
    27  H    1.100032   0.000000
    28  H    1.091405   1.767444   0.000000
    29  H    1.088797   1.777569   1.797395   0.000000
 Framework group  C1[X(C8H16Cl3FeO)]
 Deg. of freedom    81
                         Standard orientation:                         
 ---------------------------------------------------------------------
 Center     Atomic      Atomic             Coordinates (Angstroms)
 Number     Number       Type             X           Y           Z
 ---------------------------------------------------------------------
      1          8           0        0.161608    0.446968   -0.887181
      2          6           0        0.909842    1.423095   -0.666492
      3          6           0        3.156938    0.059768    0.559028
      4          6           0        2.685946   -0.928463   -0.225022
      5          6           0        3.133878   -1.072323   -1.655889
      6         26           0       -1.490402   -0.177921    0.019262
      7         17           0       -2.063131   -1.969175   -1.066804
      8          6           0        1.743348   -2.004084    0.234506
      9         17           0       -2.769075    1.571760   -0.280297
     10         17           0       -1.033266   -0.506036    2.137758
     11          1           0        3.884364    0.742416    0.116816
     12          1           0        2.246828   -2.979659    0.197898
     13          1           0        1.367082   -1.856430    1.246508
     14          1           0        0.884306   -2.081186   -0.443881
     15          1           0        3.640623   -2.035787   -1.799177
     16          1           0        2.272596   -1.074655   -2.337157
     17          1           0        3.825806   -0.280877   -1.959245
     18          6           0        2.924444    0.240614    2.034108
     19          1           0        3.756424   -0.190579    2.607883
     20          1           0        2.879848    1.301551    2.304176
     21          1           0        2.003539   -0.233336    2.382418
     22          6           0        0.770359    2.242648    0.576002
     23          1           0        1.647445    2.865703    0.755400
     24          1           0       -0.101605    2.896105    0.423712
     25          1           0        0.556977    1.616787    1.443655
     26          6           0        1.755629    1.942161   -1.786302
     27          1           0        1.230474    2.817403   -2.196465
     28          1           0        2.730418    2.280772   -1.430924
     29          1           0        1.863176    1.200140   -2.575806
 ---------------------------------------------------------------------
 Rotational constants (GHZ):           0.5638539           0.3185903           0.2999710
   427 basis functions,  1056 primitive gaussians,   461 cartesian basis functions
    77 alpha electrons       72 beta electrons
       nuclear repulsion energy      1615.9881000392 Hartrees.
 NAtoms=   29 NActive=   29 NUniq=   29 SFac= 1.00D+00 NAtFMM=   60 NAOKFM=F Big=F
 Nuclear repulsion after empirical dispersion term =     1615.9216350509 Hartrees.
 Initial guess from the checkpoint file:  "checkpoint.chk"
 B after Tr=     0.000000    0.000000    0.000000
         Rot=    1.000000    0.000000    0.000000    0.000000 Ang=   0.00 deg.
 Initial guess <Sx>= 0.0000 <Sy>= 0.0000 <Sz>= 2.5000 <S**2>= 8.7623 S= 2.5020
 SCF Done:  E(UB3LYP) =  -3034.42490343     A.U. after    1 cycles
            NFock=  1  Conv=0.59D-08     -V/T= 2.0024
 <Sx>= 0.0000 <Sy>= 0.0000 <Sz>= 2.5000 <S**2>= 8.7623 S= 2.5020
 <L.S>= 0.000000000000E+00
 Annihilation of the first spin contaminant:
 S**2 before annihilation     8.7623,   after     8.7500
 1\1\GINC-HOLY7C08404\SP\UB3LYP\Jul-CC-pVDZ\C8H16Cl3Fe1O1(6)\EKWAN\12-F
 eb-2020\0\\#t pop=none jul-cc-pvdz guess=read ub3lyp empiricaldispersi
 on=gd3bj\\theory_abbreviation b3lyp_d3bj\\0,6\O,0,0.161608,0.446968,-0
 .887181\C,0,0.909842,1.423095,-0.666492\C,0,3.156938,0.059768,0.559028
 \C,0,2.685946,-0.928463,-0.225022\C,0,3.133878,-1.072323,-1.655889\Fe,
 0,-1.490402,-0.177921,0.019262\Cl,0,-2.063131,-1.969175,-1.066804\C,0,
 1.743348,-2.004084,0.234506\Cl,0,-2.769075,1.57176,-0.280297\Cl,0,-1.0
 33266,-0.506036,2.137758\H,0,3.884364,0.742416,0.116816\H,0,2.246828,-
 2.979659,0.197898\H,0,1.367082,-1.85643,1.246508\H,0,0.884306,-2.08118
 6,-0.443881\H,0,3.640623,-2.035787,-1.799177\H,0,2.272596,-1.074655,-2
 .337157\H,0,3.825806,-0.280877,-1.959245\C,0,2.924444,0.240614,2.03410
 8\H,0,3.756424,-0.190579,2.607883\H,0,2.879848,1.301551,2.304176\H,0,2
 .003539,-0.233336,2.382418\C,0,0.770359,2.242648,0.576002\H,0,1.647445
 ,2.865703,0.7554\H,0,-0.101605,2.896105,0.423712\H,0,0.556977,1.616787
 ,1.443655\C,0,1.755629,1.942161,-1.786302\H,0,1.230474,2.817403,-2.196
 465\H,0,2.730418,2.280772,-1.430924\H,0,1.863176,1.20014,-2.575806\\Ve
 rsion=ES64L-G16RevA.03\HF=-3034.4249034\S2=8.76225\S2-1=0.\S2A=8.75004
 6\RMSD=5.927e-09\PG=C01 [X(C8H16Cl3Fe1O1)]\\@


 ABALONE: AN EXPRESSION OF DISBELIEF.
 Job cpu time:       0 days  0 hours  4 minutes 21.7 seconds.
 Elapsed time:       0 days  0 hours  1 minutes  5.8 seconds.
 File lengths (MBytes):  RWF=    170 Int=      0 D2E=      0 Chk=     13 Scr=      1
 Normal termination of Gaussian 16 at Wed Feb 12 14:26:25 2020.
 Initial command:
 /n/sw/g16_nehalem/g16/l1.exe "/scratch/Gau-313989.inp" -scrdir="/scratch/"
 Entering Link 1 = /n/sw/g16_nehalem/g16/l1.exe PID=    316275.
  
 Copyright (c) 1988,1990,1992,1993,1995,1998,2003,2009,2016,
            Gaussian, Inc.  All Rights Reserved.
  
 This is part of the Gaussian(R) 16 program.  It is based on
 the Gaussian(R) 09 system (copyright 2009, Gaussian, Inc.),
 the Gaussian(R) 03 system (copyright 2003, Gaussian, Inc.),
 the Gaussian(R) 98 system (copyright 1998, Gaussian, Inc.),
 the Gaussian(R) 94 system (copyright 1995, Gaussian, Inc.),
 the Gaussian 92(TM) system (copyright 1992, Gaussian, Inc.),
 the Gaussian 90(TM) system (copyright 1990, Gaussian, Inc.),
 the Gaussian 88(TM) system (copyright 1988, Gaussian, Inc.),
 the Gaussian 86(TM) system (copyright 1986, Carnegie Mellon
 University), and the Gaussian 82(TM) system (copyright 1983,
 Carnegie Mellon University). Gaussian is a federally registered
 trademark of Gaussian, Inc.
  
 This software contains proprietary and confidential information,
 including trade secrets, belonging to Gaussian, Inc.
  
 This software is provided under written license and may be
 used, copied, transmitted, or stored only in accord with that
 written license.
  
 The following legend is applicable only to US Government
 contracts under FAR:
  
                    RESTRICTED RIGHTS LEGEND
  
 Use, reproduction and disclosure by the US Government is
 subject to restrictions as set forth in subparagraphs (a)
 and (c) of the Commercial Computer Software - Restricted
 Rights clause in FAR 52.227-19.
  
 Gaussian, Inc.
 340 Quinnipiac St., Bldg. 40, Wallingford CT 06492
  
  
 ---------------------------------------------------------------
 Warning -- This program may not be used in any manner that
 competes with the business of Gaussian, Inc. or will provide
 assistance to any competitor of Gaussian, Inc.  The licensee
 of this program is prohibited from giving any competitor of
 Gaussian, Inc. access to this program.  By using this program,
 the user acknowledges that Gaussian, Inc. is engaged in the
 business of creating and licensing software in the field of
 computational chemistry and represents and warrants to the
 licensee that it is not a competitor of Gaussian, Inc. and that
 it will not use this program in any manner prohibited above.
 ---------------------------------------------------------------
  

 Cite this work as:
 Gaussian 16, Revision A.03,
 M. J. Frisch, G. W. Trucks, H. B. Schlegel, G. E. Scuseria, 
 M. A. Robb, J. R. Cheeseman, G. Scalmani, V. Barone, 
 G. A. Petersson, H. Nakatsuji, X. Li, M. Caricato, A. V. Marenich, 
 J. Bloino, B. G. Janesko, R. Gomperts, B. Mennucci, H. P. Hratchian, 
 J. V. Ortiz, A. F. Izmaylov, J. L. Sonnenberg, D. Williams-Young, 
 F. Ding, F. Lipparini, F. Egidi, J. Goings, B. Peng, A. Petrone, 
 T. Henderson, D. Ranasinghe, V. G. Zakrzewski, J. Gao, N. Rega, 
 G. Zheng, W. Liang, M. Hada, M. Ehara, K. Toyota, R. Fukuda, 
 J. Hasegawa, M. Ishida, T. Nakajima, Y. Honda, O. Kitao, H. Nakai, 
 T. Vreven, K. Throssell, J. A. Montgomery, Jr., J. E. Peralta, 
 F. Ogliaro, M. J. Bearpark, J. J. Heyd, E. N. Brothers, K. N. Kudin, 
 V. N. Staroverov, T. A. Keith, R. Kobayashi, J. Normand, 
 K. Raghavachari, A. P. Rendell, J. C. Burant, S. S. Iyengar, 
 J. Tomasi, M. Cossi, J. M. Millam, M. Klene, C. Adamo, R. Cammi, 
 J. W. Ochterski, R. L. Martin, K. Morokuma, O. Farkas, 
 J. B. Foresman, and D. J. Fox, Gaussian, Inc., Wallingford CT, 2016.
 
 ******************************************
 Gaussian 16:  ES64L-G16RevA.03 25-Dec-2016
                12-Feb-2020 
 ******************************************
 %chk=checkpoint.chk
 %mem=3GB
 %nprocshared=4
 Will use up to    4 processors via shared memory.
 ----------------------------------------
 #t pop=none jul-cc-pvdz guess=read ub97d
 ----------------------------------------
 ------------------------
 theory_abbreviation b97d
 ------------------------
 Symbolic Z-matrix:
 Charge =  0 Multiplicity = 6
 O                     0.16161   0.44697  -0.88718 
 C                     0.90984   1.4231   -0.66649 
 C                     3.15694   0.05977   0.55903 
 C                     2.68595  -0.92846  -0.22502 
 C                     3.13388  -1.07232  -1.65589 
 Fe                   -1.4904   -0.17792   0.01926 
 Cl                   -2.06313  -1.96918  -1.0668 
 C                     1.74335  -2.00408   0.23451 
 Cl                   -2.76908   1.57176  -0.2803 
 Cl                   -1.03327  -0.50604   2.13776 
 H                     3.88436   0.74242   0.11682 
 H                     2.24683  -2.97966   0.1979 
 H                     1.36708  -1.85643   1.24651 
 H                     0.88431  -2.08119  -0.44388 
 H                     3.64062  -2.03579  -1.79918 
 H                     2.2726   -1.07466  -2.33716 
 H                     3.82581  -0.28088  -1.95925 
 C                     2.92444   0.24061   2.03411 
 H                     3.75642  -0.19058   2.60788 
 H                     2.87985   1.30155   2.30418 
 H                     2.00354  -0.23334   2.38242 
 C                     0.77036   2.24265   0.576 
 H                     1.64745   2.8657    0.7554 
 H                    -0.10161   2.89611   0.42371 
 H                     0.55698   1.61679   1.44366 
 C                     1.75563   1.94216  -1.7863 
 H                     1.23047   2.8174   -2.19646 
 H                     2.73042   2.28077  -1.43092 
 H                     1.86318   1.20014  -2.57581 
 
                    Distance matrix (angstroms):
                    1          2          3          4          5
     1  O    0.000000
     2  C    1.249553   0.000000
     3  C    3.348648   2.900000   0.000000
     4  C    2.950008   2.979810   1.346539   0.000000
     5  C    3.425426   3.486023   2.487573   1.506227   0.000000
     6  Fe   1.985261   2.965583   4.684614   4.250279   4.999005
     7  Cl   3.289297   4.528390   5.831729   4.934107   5.306625
     8  C    3.125338   3.640341   2.522506   1.502204   2.524945
     9  Cl   3.197244   3.702118   6.173185   6.000952   6.612736
    10  Cl   3.389129   3.919315   4.513350   4.426478   5.663703
    11  H    3.867068   3.150345   1.091196   2.084441   2.645560
    12  H    4.155395   4.681767   3.193248   2.139881   2.803804
    13  H    3.363248   3.824124   2.710725   2.183100   3.487162
    14  H    2.666528   3.511437   3.279385   2.150018   2.747243
    15  H    4.370281   4.550165   3.191619   2.148380   1.097991
    16  H    2.978932   3.299542   3.233707   2.157161   1.098152
    17  H    3.886570   3.616293   2.627760   2.173977   1.094155
    18  C    4.026136   3.570731   1.504201   2.554856   3.922212
    19  H    5.054171   4.629093   2.149387   3.117009   4.398271
    20  H    4.278306   3.566590   2.159710   3.377485   4.624059
    21  H    3.813896   3.638102   2.177382   2.783455   4.276621
    22  C    2.394984   1.494963   3.234349   3.790390   4.642908
    23  H    3.279644   2.155679   3.192241   4.054061   4.850963
    24  H    2.790339   2.093162   4.322178   4.776884   5.526437
    25  H    2.637724   2.148197   3.157003   3.714201   4.845504
    26  C    2.363244   1.496249   3.317777   3.397583   3.317181
    27  H    2.911299   2.094688   4.348397   4.476215   4.364074
    28  H    3.202699   2.152780   3.012422   3.428610   3.384765
    29  H    2.512779   2.145701   3.577912   3.276292   2.761344
                    6          7          8          9         10
     6  Fe   0.000000
     7  Cl   2.171670   0.000000
     8  C    3.719992   4.022923   0.000000
     9  Cl   2.187721   3.695290   5.780454   0.000000
    10  Cl   2.191953   3.670234   3.684576   3.630049   0.000000
    11  H    5.453865   6.642769   3.484403   6.716678   5.461312
    12  H    4.674242   4.603943   1.098444   6.789946   4.543224
    13  H    3.533941   4.138899   1.089737   5.584927   2.894747
    14  H    3.078337   3.014625   1.097318   5.168943   3.580927
    15  H    5.752026   5.750967   2.781461   7.510368   6.299590
    16  H    4.529569   4.605702   2.785210   6.054142   5.592577
    17  H    5.673373   6.190830   3.481180   7.052913   6.359773
    18  C    4.870897   6.274928   3.110020   6.288448   4.028858
    19  H    5.850667   7.108723   3.601971   7.350480   4.823034
    20  H    5.148665   6.818665   4.062313   6.217945   4.313644
    21  H    4.218436   5.607858   2.795849   5.755542   3.058825
    22  C    3.358594   5.335441   4.370133   3.702828   3.639699
    23  H    4.433016   6.361199   4.898505   4.717267   4.523909
    24  H    3.397348   5.453455   5.239418   3.060215   3.921799
    25  H    3.072724   5.101617   3.997527   3.746553   2.741720
    26  C    4.276859   5.513543   4.433584   4.783116   5.400912
    27  H    4.613521   5.919062   5.423965   4.606487   5.912297
    28  H    5.095442   6.416599   4.701910   5.663132   5.887878
    29  H    4.458690   5.266643   4.263715   5.183166   5.789482
                   11         12         13         14         15
    11  H    0.000000
    12  H    4.067178   0.000000
    13  H    3.790371   1.770644   0.000000
    14  H    4.157819   1.753739   1.772287   0.000000
    15  H    3.383615   2.611870   3.804912   3.071835   0.000000
    16  H    3.452756   3.171152   3.778066   2.554398   1.756330
    17  H    2.315294   3.798666   4.336421   3.766943   1.771898
    18  C    2.202104   3.768420   2.728238   3.961483   4.515417
    19  H    2.663130   3.983199   3.215176   4.597469   4.779161
    20  H    2.471078   4.813095   3.657864   4.793424   5.343605
    21  H    3.102023   3.517614   2.080818   3.557415   4.838865
    22  C    3.486915   5.440167   4.196200   4.443949   5.673173
    23  H    3.149594   5.902400   4.755873   5.147074   5.875647
    24  H    4.540981   6.331724   5.041887   5.147637   6.577923
    25  H    3.687347   5.053199   3.571887   4.164726   5.776342
    26  C    3.097218   5.329413   4.876289   4.329968   4.401981
    27  H    4.086560   6.353887   5.806672   5.214169   5.433241
    28  H    2.468528   5.528024   5.113098   4.838291   4.426823
    29  H    3.397782   5.031038   4.919229   4.033657   3.772757
                   16         17         18         19         20
    16  H    0.000000
    17  H    1.784758   0.000000
    18  C    4.611160   4.126896   0.000000
    19  H    5.238011   4.568547   1.098788   0.000000
    20  H    5.249484   4.644962   1.095679   1.757008   0.000000
    21  H    4.801520   4.708817   1.092710   1.767843   1.769157
    22  C    4.663444   4.704403   3.282422   4.354965   2.884821
    23  H    5.047885   4.692070   3.186991   4.149740   2.522716
    24  H    5.387593   5.585361   4.336125   5.402093   3.868825
    25  H    4.947903   5.085873   2.801319   3.854667   2.497118
    26  C    3.109964   3.042604   4.342456   5.278316   4.290252
    27  H    4.031616   4.048625   5.235181   6.205654   5.027326
    28  H    3.505674   2.835673   4.025710   4.844814   3.864217
[...]
 Initial guess from the checkpoint file:  "checkpoint.chk"
 B after Tr=     0.000000    0.000000    0.000000
         Rot=    1.000000    0.000000    0.000000    0.000000 Ang=   0.00 deg.
 Initial guess <Sx>= 0.0000 <Sy>= 0.0000 <Sz>= 2.5000 <S**2>= 8.7619 S= 2.5020
 SCF Done:  E(UM06L) =  -3034.22510420     A.U. after   17 cycles
            NFock= 17  Conv=0.87D-08     -V/T= 2.0020
 <Sx>= 0.0000 <Sy>= 0.0000 <Sz>= 2.5000 <S**2>= 8.7618 S= 2.5020
 <L.S>= 0.000000000000E+00
 Annihilation of the first spin contaminant:
 S**2 before annihilation     8.7618,   after     8.7500
 1\1\GINC-HOLY7C08404\SP\UM06L\Jul-CC-pVDZ\C8H16Cl3Fe1O1(6)\EKWAN\12-Fe
 b-2020\0\\#t pop=none jul-cc-pvdz guess=read um06l empiricaldispersion
 =gd3\\theory_abbreviation m06l_d3\\0,6\O,0,0.161608,0.446968,-0.887181
 \C,0,0.909842,1.423095,-0.666492\C,0,3.156938,0.059768,0.559028\C,0,2.
 685946,-0.928463,-0.225022\C,0,3.133878,-1.072323,-1.655889\Fe,0,-1.49
 0402,-0.177921,0.019262\Cl,0,-2.063131,-1.969175,-1.066804\C,0,1.74334
 8,-2.004084,0.234506\Cl,0,-2.769075,1.57176,-0.280297\Cl,0,-1.033266,-
 0.506036,2.137758\H,0,3.884364,0.742416,0.116816\H,0,2.246828,-2.97965
 9,0.197898\H,0,1.367082,-1.85643,1.246508\H,0,0.884306,-2.081186,-0.44
 3881\H,0,3.640623,-2.035787,-1.799177\H,0,2.272596,-1.074655,-2.337157
 \H,0,3.825806,-0.280877,-1.959245\C,0,2.924444,0.240614,2.034108\H,0,3
 .756424,-0.190579,2.607883\H,0,2.879848,1.301551,2.304176\H,0,2.003539
 ,-0.233336,2.382418\C,0,0.770359,2.242648,0.576002\H,0,1.647445,2.8657
 03,0.7554\H,0,-0.101605,2.896105,0.423712\H,0,0.556977,1.616787,1.4436
 55\C,0,1.755629,1.942161,-1.786302\H,0,1.230474,2.817403,-2.196465\H,0
 ,2.730418,2.280772,-1.430924\H,0,1.863176,1.20014,-2.575806\\Version=E
 S64L-G16RevA.03\HF=-3034.2251042\S2=8.761781\S2-1=0.\S2A=8.750044\RMSD
 =8.703e-09\PG=C01 [X(C8H16Cl3Fe1O1)]\\@


 WE TEND TO MEET ANY NEW SITUATION BY REORGANIZING. IT CAN BE A
 WONDERFUL METHOD FOR CREATING THE ILLUSION OF PROGRESS WHILE PRODUCING
 CONFUSION, INEFFICIENCY, AND DEMORALIZATION.
     -- PETRONIUS ARBITER, 210 B.C.
 Job cpu time:       0 days  1 hours 11 minutes 15.9 seconds.
 Elapsed time:       0 days  0 hours 17 minutes 52.0 seconds.
 File lengths (MBytes):  RWF=    174 Int=      0 D2E=      0 Chk=     13 Scr=      1
 Normal termination of Gaussian 16 at Wed Feb 12 22:23:07 2020.
 Initial command:
 /n/sw/g16_nehalem/g16/l1.exe "/scratch/Gau-313989.inp" -scrdir="/scratch/"
 Entering Link 1 = /n/sw/g16_nehalem/g16/l1.exe PID=    355141.
  
 Copyright (c) 1988,1990,1992,1993,1995,1998,2003,2009,2016,
            Gaussian, Inc.  All Rights Reserved.
  
 This is part of the Gaussian(R) 16 program.  It is based on
 the Gaussian(R) 09 system (copyright 2009, Gaussian, Inc.),
 the Gaussian(R) 03 system (copyright 2003, Gaussian, Inc.),
 the Gaussian(R) 98 system (copyright 1998, Gaussian, Inc.),
 the Gaussian(R) 94 system (copyright 1995, Gaussian, Inc.),
 the Gaussian 92(TM) system (copyright 1992, Gaussian, Inc.),
 the Gaussian 90(TM) system (copyright 1990, Gaussian, Inc.),
 the Gaussian 88(TM) system (copyright 1988, Gaussian, Inc.),
 the Gaussian 86(TM) system (copyright 1986, Carnegie Mellon
 University), and the Gaussian 82(TM) system (copyright 1983,
 Carnegie Mellon University). Gaussian is a federally registered
 trademark of Gaussian, Inc.
  
 This software contains proprietary and confidential information,
 including trade secrets, belonging to Gaussian, Inc.
  
 This software is provided under written license and may be
 used, copied, transmitted, or stored only in accord with that
 written license.
  
 The following legend is applicable only to US Government
 contracts under FAR:
  
                    RESTRICTED RIGHTS LEGEND
  
 Use, reproduction and disclosure by the US Government is
 subject to restrictions as set forth in subparagraphs (a)
 and (c) of the Commercial Computer Software - Restricted
 Rights clause in FAR 52.227-19.
  
 Gaussian, Inc.
 340 Quinnipiac St., Bldg. 40, Wallingford CT 06492
  
  
 ---------------------------------------------------------------
 Warning -- This program may not be used in any manner that
 competes with the business of Gaussian, Inc. or will provide
 assistance to any competitor of Gaussian, Inc.  The licensee
 of this program is prohibited from giving any competitor of
 Gaussian, Inc. access to this program.  By using this program,
 the user acknowledges that Gaussian, Inc. is engaged in the
 business of creating and licensing software in the field of
 computational chemistry and represents and warrants to the
 licensee that it is not a competitor of Gaussian, Inc. and that
 it will not use this program in any manner prohibited above.
 ---------------------------------------------------------------
  

 Cite this work as:
 Gaussian 16, Revision A.03,
 M. J. Frisch, G. W. Trucks, H. B. Schlegel, G. E. Scuseria, 
 M. A. Robb, J. R. Cheeseman, G. Scalmani, V. Barone, 
 G. A. Petersson, H. Nakatsuji, X. Li, M. Caricato, A. V. Marenich, 
 J. Bloino, B. G. Janesko, R. Gomperts, B. Mennucci, H. P. Hratchian, 
 J. V. Ortiz, A. F. Izmaylov, J. L. Sonnenberg, D. Williams-Young, 
 F. Ding, F. Lipparini, F. Egidi, J. Goings, B. Peng, A. Petrone, 
 T. Henderson, D. Ranasinghe, V. G. Zakrzewski, J. Gao, N. Rega, 
 G. Zheng, W. Liang, M. Hada, M. Ehara, K. Toyota, R. Fukuda, 
 J. Hasegawa, M. Ishida, T. Nakajima, Y. Honda, O. Kitao, H. Nakai, 
 T. Vreven, K. Throssell, J. A. Montgomery, Jr., J. E. Peralta, 
 F. Ogliaro, M. J. Bearpark, J. J. Heyd, E. N. Brothers, K. N. Kudin, 
 V. N. Staroverov, T. A. Keith, R. Kobayashi, J. Normand, 
 K. Raghavachari, A. P. Rendell, J. C. Burant, S. S. Iyengar, 
 J. Tomasi, M. Cossi, J. M. Millam, M. Klene, C. Adamo, R. Cammi, 
 J. W. Ochterski, R. L. Martin, K. Morokuma, O. Farkas, 
 J. B. Foresman, and D. J. Fox, Gaussian, Inc., Wallingford CT, 2016.
 
 ******************************************
 Gaussian 16:  ES64L-G16RevA.03 25-Dec-2016
                12-Feb-2020 
 ******************************************
 %chk=checkpoint.chk
 %mem=3GB
 %nprocshared=4
 Will use up to    4 processors via shared memory.
 -------------------------------------------------------------------
 #t pop=none jul-cc-pvdz guess=read ub97d3 empiricaldispersion=gd3bj
 -------------------------------------------------------------------
 ------------------------------
 theory_abbreviation b97d3_d3bj
 ------------------------------
 Symbolic Z-matrix:
 Charge =  0 Multiplicity = 6
 O                     0.16161   0.44697  -0.88718 
 C                     0.90984   1.4231   -0.66649 
 C                     3.15694   0.05977   0.55903 
 C                     2.68595  -0.92846  -0.22502 
 C                     3.13388  -1.07232  -1.65589 
 Fe                   -1.4904   -0.17792   0.01926 
 Cl                   -2.06313  -1.96918  -1.0668 
 C                     1.74335  -2.00408   0.23451 
 Cl                   -2.76908   1.57176  -0.2803 
 Cl                   -1.03327  -0.50604   2.13776 
 H                     3.88436   0.74242   0.11682 
 H                     2.24683  -2.97966   0.1979 
 H                     1.36708  -1.85643   1.24651 
 H                     0.88431  -2.08119  -0.44388 
 H                     3.64062  -2.03579  -1.79918 
 H                     2.2726   -1.07466  -2.33716 
 H                     3.82581  -0.28088  -1.95925 
 C                     2.92444   0.24061   2.03411 
 H                     3.75642  -0.19058   2.60788 
 H                     2.87985   1.30155   2.30418 
 H                     2.00354  -0.23334   2.38242 
 C                     0.77036   2.24265   0.576 
 H                     1.64745   2.8657    0.7554 
 H                    -0.10161   2.89611   0.42371 
 H                     0.55698   1.61679   1.44366 
 C                     1.75563   1.94216  -1.7863 
 H                     1.23047   2.8174   -2.19646 
 H                     2.73042   2.28077  -1.43092 
 H                     1.86318   1.20014  -2.57581 
 
                    Distance matrix (angstroms):
                    1          2          3          4          5
     1  O    0.000000
     2  C    1.249553   0.000000
     3  C    3.348648   2.900000   0.000000
     4  C    2.950008   2.979810   1.346539   0.000000
     5  C    3.425426   3.486023   2.487573   1.506227   0.000000
     6  Fe   1.985261   2.965583   4.684614   4.250279   4.999005
     7  Cl   3.289297   4.528390   5.831729   4.934107   5.306625
     8  C    3.125338   3.640341   2.522506   1.502204   2.524945
     9  Cl   3.197244   3.702118   6.173185   6.000952   6.612736
    10  Cl   3.389129   3.919315   4.513350   4.426478   5.663703
    11  H    3.867068   3.150345   1.091196   2.084441   2.645560
    12  H    4.155395   4.681767   3.193248   2.139881   2.803804
    13  H    3.363248   3.824124   2.710725   2.183100   3.487162
    14  H    2.666528   3.511437   3.279385   2.150018   2.747243
    15  H    4.370281   4.550165   3.191619   2.148380   1.097991
    16  H    2.978932   3.299542   3.233707   2.157161   1.098152
    17  H    3.886570   3.616293   2.627760   2.173977   1.094155
    18  C    4.026136   3.570731   1.504201   2.554856   3.922212
    19  H    5.054171   4.629093   2.149387   3.117009   4.398271
    20  H    4.278306   3.566590   2.159710   3.377485   4.624059
    21  H    3.813896   3.638102   2.177382   2.783455   4.276621
    22  C    2.394984   1.494963   3.234349   3.790390   4.642908
    23  H    3.279644   2.155679   3.192241   4.054061   4.850963
    24  H    2.790339   2.093162   4.322178   4.776884   5.526437
    25  H    2.637724   2.148197   3.157003   3.714201   4.845504
    26  C    2.363244   1.496249   3.317777   3.397583   3.317181
    27  H    2.911299   2.094688   4.348397   4.476215   4.364074
    28  H    3.202699   2.152780   3.012422   3.428610   3.384765
    29  H    2.512779   2.145701   3.577912   3.276292   2.761344
                    6          7          8          9         10
     6  Fe   0.000000
     7  Cl   2.171670   0.000000
     8  C    3.719992   4.022923   0.000000
     9  Cl   2.187721   3.695290   5.780454   0.000000
    10  Cl   2.191953   3.670234   3.684576   3.630049   0.000000
    11  H    5.453865   6.642769   3.484403   6.716678   5.461312
    12  H    4.674242   4.603943   1.098444   6.789946   4.543224
    13  H    3.533941   4.138899   1.089737   5.584927   2.894747
    14  H    3.078337   3.014625   1.097318   5.168943   3.580927
    15  H    5.752026   5.750967   2.781461   7.510368   6.299590
    16  H    4.529569   4.605702   2.785210   6.054142   5.592577
    17  H    5.673373   6.190830   3.481180   7.052913   6.359773
    18  C    4.870897   6.274928   3.110020   6.288448   4.028858
    19  H    5.850667   7.108723   3.601971   7.350480   4.823034
    20  H    5.148665   6.818665   4.062313   6.217945   4.313644
    21  H    4.218436   5.607858   2.795849   5.755542   3.058825
    22  C    3.358594   5.335441   4.370133   3.702828   3.639699
    23  H    4.433016   6.361199   4.898505   4.717267   4.523909
    24  H    3.397348   5.453455   5.239418   3.060215   3.921799
    25  H    3.072724   5.101617   3.997527   3.746553   2.741720
    26  C    4.276859   5.513543   4.433584   4.783116   5.400912
    27  H    4.613521   5.919062   5.423965   4.606487   5.912297
    28  H    5.095442   6.416599   4.701910   5.663132   5.887878
    29  H    4.458690   5.266643   4.263715   5.183166   5.789482
                   11         12         13         14         15
    11  H    0.000000
    12  H    4.067178   0.000000
    13  H    3.790371   1.770644   0.000000
    14  H    4.157819   1.753739   1.772287   0.000000
    15  H    3.383615   2.611870   3.804912   3.071835   0.000000
    16  H    3.452756   3.171152   3.778066   2.554398   1.756330
    17  H    2.315294   3.798666   4.336421   3.766943   1.771898
    18  C    2.202104   3.768420   2.728238   3.961483   4.515417
    19  H    2.663130   3.983199   3.215176   4.597469   4.779161
    20  H    2.471078   4.813095   3.657864   4.793424   5.343605
    21  H    3.102023   3.517614   2.080818   3.557415   4.838865
    22  C    3.486915   5.440167   4.196200   4.443949   5.673173
    23  H    3.149594   5.902400   4.755873   5.147074   5.875647
    24  H    4.540981   6.331724   5.041887   5.147637   6.577923
    25  H    3.687347   5.053199   3.571887   4.164726   5.776342
    26  C    3.097218   5.329413   4.876289   4.329968   4.401981
    27  H    4.086560   6.353887   5.806672   5.214169   5.433241
    28  H    2.468528   5.528024   5.113098   4.838291   4.426823
    29  H    3.397782   5.031038   4.919229   4.033657   3.772757
                   16         17         18         19         20
    16  H    0.000000
    17  H    1.784758   0.000000
    18  C    4.611160   4.126896   0.000000
    19  H    5.238011   4.568547   1.098788   0.000000
    20  H    5.249484   4.644962   1.095679   1.757008   0.000000
    21  H    4.801520   4.708817   1.092710   1.767843   1.769157
    22  C    4.663444   4.704403   3.282422   4.354965   2.884821
    23  H    5.047885   4.692070   3.186991   4.149740   2.522716
    24  H    5.387593   5.585361   4.336125   5.402093   3.868825
    25  H    4.947903   5.085873   2.801319   3.854667   2.497118
    26  C    3.109964   3.042604   4.342456   5.278316   4.290252
    27  H    4.031616   4.048625   5.235181   6.205654   5.027326
    28  H    3.505674   2.835673   4.025710   4.844814   3.864217
    29  H    2.323633   2.534852   4.826830   5.691144   4.985793
                   21         22         23         24         25
    21  H    0.000000
    22  C    3.303690   0.000000
    23  H    3.518243   1.090716   0.000000
    24  H    4.249890   1.100236   1.780482   0.000000
    25  H    2.529184   1.090897   1.795162   1.763709   0.000000
    26  C    4.708766   2.577117   2.706452   3.040311   3.460528
    27  H    5.556150   2.868558   2.981561   2.940401   3.891728
    28  H    4.625005   2.805537   2.508981   3.440736   3.664413
    29  H    5.163191   3.494992   3.730626   3.966582   4.246860
                   26         27         28         29
    26  C    0.000000
    27  H    1.100032   0.000000
    28  H    1.091405   1.767444   0.000000
    29  H    1.088797   1.777569   1.797395   0.000000
 Framework group  C1[X(C8H16Cl3FeO)]
 Deg. of freedom    81
                         Standard orientation:                         
 ---------------------------------------------------------------------
 Center     Atomic      Atomic             Coordinates (Angstroms)
 Number     Number       Type             X           Y           Z
 ---------------------------------------------------------------------
      1          8           0        0.161608    0.446968   -0.887181
      2          6           0        0.909842    1.423095   -0.666492
      3          6           0        3.156938    0.059768    0.559028
      4          6           0        2.685946   -0.928463   -0.225022
      5          6           0        3.133878   -1.072323   -1.655889
      6         26           0       -1.490402   -0.177921    0.019262
      7         17           0       -2.063131   -1.969175   -1.066804
      8          6           0        1.743348   -2.004084    0.234506
      9         17           0       -2.769075    1.571760   -0.280297
     10         17           0       -1.033266   -0.506036    2.137758
     11          1           0        3.884364    0.742416    0.116816
     12          1           0        2.246828   -2.979659    0.197898
     13          1           0        1.367082   -1.856430    1.246508
     14          1           0        0.884306   -2.081186   -0.443881
     15          1           0        3.640623   -2.035787   -1.799177
     16          1           0        2.272596   -1.074655   -2.337157
     17          1           0        3.825806   -0.280877   -1.959245
     18          6           0        2.924444    0.240614    2.034108
     19          1           0        3.756424   -0.190579    2.607883
     20          1           0        2.879848    1.301551    2.304176
     21          1           0        2.003539   -0.233336    2.382418
     22          6           0        0.770359    2.242648    0.576002
     23          1           0        1.647445    2.865703    0.755400
     24          1           0       -0.101605    2.896105    0.423712
     25          1           0        0.556977    1.616787    1.443655
     26          6           0        1.755629    1.942161   -1.786302
     27          1           0        1.230474    2.817403   -2.196465
     28          1           0        2.730418    2.280772   -1.430924
     29          1           0        1.863176    1.200140   -2.575806
 ---------------------------------------------------------------------
 Rotational constants (GHZ):           0.5638539           0.3185903           0.2999710
   427 basis functions,  1056 primitive gaussians,   461 cartesian basis functions
    77 alpha electrons       72 beta electrons
       nuclear repulsion energy      1615.9881000392 Hartrees.
 NAtoms=   29 NActive=   29 NUniq=   29 SFac= 1.00D+00 NAtFMM=   60 NAOKFM=F Big=F
 Nuclear repulsion after empirical dispersion term =     1615.8911997620 Hartrees.
 Initial guess from the checkpoint file:  "checkpoint.chk"
 B after Tr=     0.000000    0.000000    0.000000
         Rot=    1.000000    0.000000    0.000000    0.000000 Ang=   0.00 deg.
 Initial guess <Sx>= 0.0000 <Sy>= 0.0000 <Sz>= 2.5000 <S**2>= 8.7618 S= 2.5020
 SCF Done:  E(UB97D3) =  -3034.64392335     A.U. after   16 cycles
            NFock= 16  Conv=0.54D-08     -V/T= 2.0020
 <Sx>= 0.0000 <Sy>= 0.0000 <Sz>= 2.5000 <S**2>= 8.7600 S= 2.5017
 <L.S>= 0.000000000000E+00
 Annihilation of the first spin contaminant:
 S**2 before annihilation     8.7600,   after     8.7500
 1\1\GINC-HOLY7C08404\SP\UB97D3\Jul-CC-pVDZ\C8H16Cl3Fe1O1(6)\EKWAN\12-F
 eb-2020\0\\#t pop=none jul-cc-pvdz guess=read ub97d3 empiricaldispersi
 on=gd3bj\\theory_abbreviation b97d3_d3bj\\0,6\O,0,0.161608,0.446968,-0
 .887181\C,0,0.909842,1.423095,-0.666492\C,0,3.156938,0.059768,0.559028
 \C,0,2.685946,-0.928463,-0.225022\C,0,3.133878,-1.072323,-1.655889\Fe,
 0,-1.490402,-0.177921,0.019262\Cl,0,-2.063131,-1.969175,-1.066804\C,0,
 1.743348,-2.004084,0.234506\Cl,0,-2.769075,1.57176,-0.280297\Cl,0,-1.0
 33266,-0.506036,2.137758\H,0,3.884364,0.742416,0.116816\H,0,2.246828,-
 2.979659,0.197898\H,0,1.367082,-1.85643,1.246508\H,0,0.884306,-2.08118
 6,-0.443881\H,0,3.640623,-2.035787,-1.799177\H,0,2.272596,-1.074655,-2
 .337157\H,0,3.825806,-0.280877,-1.959245\C,0,2.924444,0.240614,2.03410
 8\H,0,3.756424,-0.190579,2.607883\H,0,2.879848,1.301551,2.304176\H,0,2
 .003539,-0.233336,2.382418\C,0,0.770359,2.242648,0.576002\H,0,1.647445
 ,2.865703,0.7554\H,0,-0.101605,2.896105,0.423712\H,0,0.556977,1.616787
 ,1.443655\C,0,1.755629,1.942161,-1.786302\H,0,1.230474,2.817403,-2.196
 465\H,0,2.730418,2.280772,-1.430924\H,0,1.863176,1.20014,-2.575806\\Ve
 rsion=ES64L-G16RevA.03\HF=-3034.6439233\S2=8.759975\S2-1=0.\S2A=8.7500
 31\RMSD=5.426e-09\PG=C01 [X(C8H16Cl3Fe1O1)]\\@


 CHARLIE BROWN.."I CAN'T GET THAT STUPID KITE IN THE
 AIR... I CAN'T... I C A N N O T..."
 LUCY.."OH COME NOW CHARLIE BROWN...THAT'S NO WAY TO TALK...
 THE TROUBLE WITH YOU IS YOU DON'T BELIEVE IN YOURSELF... YOU
 DON'T BELIEVE IN YOUR OWN ABILITIES...  YOU'VE GOT TO SAY TO
 YOURSELF...'I BELIEVE I CAN FLY THIS KITE.'... GO AHEAD SAY
 IT...."
 CHARLIE BROWN.."I BELIEVE THAT I CAN FLY THIS STUPID
 KITE.....I BELIEVE THAT I CAN FLY THIS KITE........
 I  A C T U A L L Y  B E L I E V E  T H A T  I  C A N ******"
 LUCY.."I'LL BET YOU TEN-TO-ONE YOU'RE WRONG......."    SCHULZ
 Job cpu time:       0 days  0 hours 48 minutes 34.8 seconds.
 Elapsed time:       0 days  0 hours 12 minutes 10.9 seconds.
 File lengths (MBytes):  RWF=    174 Int=      0 D2E=      0 Chk=     13 Scr=      1
 Normal termination of Gaussian 16 at Wed Feb 12 22:35:19 2020.
