 Entering Gaussian System, Link 0=g16
 Input=simple-grid-225-295-b3lyp_d3bj-631gd-gas-singlepoint-DFT-juldz2-gas.gjf
 Output=simple-grid-225-295-b3lyp_d3bj-631gd-gas-singlepoint-DFT-juldz2-gas.out
 Initial command:
 /n/sw/g16_nehalem/g16/l1.exe "/scratch/Gau-251986.inp" -scrdir="/scratch/"
 Entering Link 1 = /n/sw/g16_nehalem/g16/l1.exe PID=    251996.
  
 Copyright (c) 1988,1990,1992,1993,1995,1998,2003,2009,2016,
            Gaussian, Inc.  All Rights Reserved.
  
 This is part of the Gaussian(R) 16 program.  It is based on
 the Gaussian(R) 09 system (copyright 2009, Gaussian, Inc.),
 the Gaussian(R) 03 system (copyright 2003, Gaussian, Inc.),
 the Gaussian(R) 98 system (copyright 1998, Gaussian, Inc.),
 the Gaussian(R) 94 system (copyright 1995, Gaussian, Inc.),
 the Gaussian 92(TM) system (copyright 1992, Gaussian, Inc.),
 the Gaussian 90(TM) system (copyright 1990, Gaussian, Inc.),
 the Gaussian 88(TM) system (copyright 1988, Gaussian, Inc.),
 the Gaussian 86(TM) system (copyright 1986, Carnegie Mellon
 University), and the Gaussian 82(TM) system (copyright 1983,
 Carnegie Mellon University). Gaussian is a federally registered
 trademark of Gaussian, Inc.
  
 This software contains proprietary and confidential information,
 including trade secrets, belonging to Gaussian, Inc.
  
 This software is provided under written license and may be
 used, copied, transmitted, or stored only in accord with that
 written license.
  
 The following legend is applicable only to US Government
 contracts under FAR:
  
                    RESTRICTED RIGHTS LEGEND
  
 Use, reproduction and disclosure by the US Government is
 subject to restrictions as set forth in subparagraphs (a)
 and (c) of the Commercial Computer Software - Restricted
 Rights clause in FAR 52.227-19.
  
 Gaussian, Inc.
 340 Quinnipiac St., Bldg. 40, Wallingford CT 06492
  
  
 ---------------------------------------------------------------
 Warning -- This program may not be used in any manner that
 competes with the business of Gaussian, Inc. or will provide
 assistance to any competitor of Gaussian, Inc.  The licensee
 of this program is prohibited from giving any competitor of
 Gaussian, Inc. access to this program.  By using this program,
 the user acknowledges that Gaussian, Inc. is engaged in the
 business of creating and licensing software in the field of
 computational chemistry and represents and warrants to the
 licensee that it is not a competitor of Gaussian, Inc. and that
 it will not use this program in any manner prohibited above.
 ---------------------------------------------------------------
  

 Cite this work as:
 Gaussian 16, Revision A.03,
 M. J. Frisch, G. W. Trucks, H. B. Schlegel, G. E. Scuseria, 
 M. A. Robb, J. R. Cheeseman, G. Scalmani, V. Barone, 
 G. A. Petersson, H. Nakatsuji, X. Li, M. Caricato, A. V. Marenich, 
 J. Bloino, B. G. Janesko, R. Gomperts, B. Mennucci, H. P. Hratchian, 
 J. V. Ortiz, A. F. Izmaylov, J. L. Sonnenberg, D. Williams-Young, 
 F. Ding, F. Lipparini, F. Egidi, J. Goings, B. Peng, A. Petrone, 
 T. Henderson, D. Ranasinghe, V. G. Zakrzewski, J. Gao, N. Rega, 
 G. Zheng, W. Liang, M. Hada, M. Ehara, K. Toyota, R. Fukuda, 
 J. Hasegawa, M. Ishida, T. Nakajima, Y. Honda, O. Kitao, H. Nakai, 
 T. Vreven, K. Throssell, J. A. Montgomery, Jr., J. E. Peralta, 
 F. Ogliaro, M. J. Bearpark, J. J. Heyd, E. N. Brothers, K. N. Kudin, 
 V. N. Staroverov, T. A. Keith, R. Kobayashi, J. Normand, 
 K. Raghavachari, A. P. Rendell, J. C. Burant, S. S. Iyengar, 
 J. Tomasi, M. Cossi, J. M. Millam, M. Klene, C. Adamo, R. Cammi, 
 J. W. Ochterski, R. L. Martin, K. Morokuma, O. Farkas, 
 J. B. Foresman, and D. J. Fox, Gaussian, Inc., Wallingford CT, 2016.
 
 ******************************************
 Gaussian 16:  ES64L-G16RevA.03 25-Dec-2016
                11-Feb-2020 
 ******************************************
 %chk=checkpoint.chk
 %mem=3GB
 %nprocshared=4
 Will use up to    4 processors via shared memory.
 --------------------------------
 #t pop=none jul-cc-pvdz upbe1pbe
 --------------------------------
 ------------------------
 theory_abbreviation pbe0
 ------------------------
 Symbolic Z-matrix:
 Charge =  0 Multiplicity = 6
 O                    -0.29101  -0.24176  -0.52716 
 C                    -1.0997   -1.19474  -0.27632 
 C                    -2.73401  -0.19367   0.90242 
 C                    -3.05403   0.69292  -0.08615 
 C                    -4.11196   0.40149  -1.10578 
 Fe                    1.54341   0.18242  -0.09513 
 Cl                    1.86175   2.09161  -1.10551 
 C                    -2.32189   1.98728  -0.22773 
 Cl                    2.5924   -1.55751  -0.92235 
 Cl                    1.76509   0.31666   2.08722 
 H                    -3.3499   -1.0888    0.97797 
 H                    -2.8285    2.67514  -0.90947 
 H                    -2.16297   2.48518   0.73338 
 H                    -1.32163   1.77597  -0.64019 
 H                    -4.93555   1.11667  -0.97367 
 H                    -3.73985   0.55162  -2.12725 
 H                    -4.52246  -0.60709  -1.01607 
 C                    -1.98471   0.22265   2.14747 
 H                    -2.53945   1.00986   2.67286 
 H                    -1.8696   -0.61161   2.84191 
 H                    -0.98893   0.61674   1.92954 
 C                    -0.74565  -2.17388   0.81798 
 H                    -1.59697  -2.78023   1.13265 
 H                     0.00847  -2.8401    0.37461 
 H                    -0.28156  -1.68463   1.67323 
 C                    -1.84855  -1.76233  -1.45598 
 H                    -1.162    -2.47444  -1.93404 
 H                    -2.74931  -2.30489  -1.1628 
 H                    -2.08448  -0.98962  -2.18659 
 
                    Distance matrix (angstroms):
                    1          2          3          4          5
     1  O    0.000000
     2  C    1.274791   0.000000
     3  C    2.830945   2.250001   0.000000
     4  C    2.949989   2.723756   1.365918   0.000000
     5  C    3.917683   3.508513   2.507154   1.497921   0.000000
     6  Fe   1.931751   2.985874   4.408264   4.625706   5.749137
     7  Cl   3.226993   4.500879   5.511380   5.211566   6.208200
     8  C    3.030303   3.409012   2.490710   1.493807   2.547556
     9  Cl   3.193968   3.765713   5.793138   6.135627   6.987117
    10  Cl   3.372588   4.009697   4.680389   5.299911   6.688954
    11  H    3.512797   2.578344   1.089173   2.096286   2.672768
    12  H    3.885010   4.285508   3.394393   2.158215   2.618253
    13  H    3.539693   3.961299   2.744251   2.162829   3.394525
    14  H    2.268525   3.001136   2.872970   2.116883   3.145138
    15  H    4.859681   4.532403   3.175455   2.123055   1.098743
    16  H    3.883850   3.666900   3.278126   2.157874   1.097460
    17  H    4.275244   3.550754   2.655198   2.170494   1.092612
    18  C    3.199681   2.943973   1.511595   2.520649   3.891115
    19  H    4.106358   3.953579   2.149608   2.824431   4.137755
    20  H    3.738900   3.264372   2.164140   3.417342   4.651752
    21  H    2.694346   2.856493   2.181063   2.886775   4.360365
    22  C    2.397747   1.510476   2.807468   3.790065   4.654608
    23  H    3.302167   2.178578   2.834805   3.958693   4.632393
    24  H    2.766633   2.087807   3.847508   4.698238   5.447693
    25  H    2.631291   2.170271   2.971799   4.053983   5.171725
    26  C    2.366595   1.508155   2.967620   3.059065   3.150842
    27  H    2.778992   2.095126   3.964670   4.126339   4.202297
    28  H    3.271668   2.177037   2.953404   3.199827   3.030607
    29  H    2.555298   2.158935   3.255359   2.860560   2.685891
                    6          7          8          9         10
     6  Fe   0.000000
     7  Cl   2.183398   0.000000
     8  C    4.267971   4.276006   0.000000
     9  Cl   2.193643   3.726056   6.099038   0.000000
    10  Cl   2.197678   3.654221   4.985312   3.640672   0.000000
    11  H    5.168369   6.451147   3.460176   6.256348   5.419311
    12  H    5.098073   4.730480   1.092960   6.877621   5.970225
    13  H    4.441439   4.442394   1.094029   6.457432   4.686688
    14  H    3.323393   3.232660   1.102399   5.148922   4.369920
    15  H    6.604662   6.868134   2.854055   7.988991   7.409969
    16  H    5.672628   5.898605   2.771270   6.782160   6.936958
    17  H    6.185971   6.931753   3.492100   7.178675   7.072270
    18  C    4.180726   5.373101   2.978121   5.791609   3.751462
    19  H    5.001609   5.900583   3.068574   6.771471   4.399150
    20  H    4.572226   6.067332   4.047405   5.913868   3.826510
    21  H    3.271183   4.417374   2.882529   5.068196   2.774804
    22  C    3.409650   5.356565   4.570913   3.814614   3.757337
    23  H    4.488503   6.380196   5.010514   4.823780   4.669618
    24  H    3.422332   5.472406   5.394160   3.162888   3.997992
    25  H    3.153329   5.155116   4.610804   3.874644   2.892289
    26  C    4.139969   5.361158   3.973941   4.477582   5.471274
    27  H    4.214230   5.538803   4.915667   3.994968   5.703385
    28  H    5.074849   6.371377   4.413590   5.399101   6.149387
    29  H    4.348504   5.122061   3.571472   4.877914   5.898389
                   11         12         13         14         15
    11  H    0.000000
    12  H    4.242816   0.000000
    13  H    3.773858   1.782679   0.000000
    14  H    3.865136   1.775291   1.759982   0.000000
    15  H    3.344738   2.621563   3.531860   3.688674   0.000000
    16  H    3.533475   2.612067   3.795846   3.091634   1.754917
    17  H    2.362860   3.695114   4.264962   4.008191   1.773073
    18  C    2.225174   4.008930   2.674040   3.259380   4.387283
    19  H    2.816717   3.961032   2.465748   3.611973   4.364623
    20  H    2.427616   5.078876   3.757935   4.257446   5.190923
    21  H    3.064078   3.959918   2.510029   2.838668   4.924873
    22  C    2.825791   5.552948   4.870604   4.249628   5.620761
    23  H    2.440825   5.953810   5.310772   4.896705   5.546938
    24  H    3.835327   6.333645   5.762163   4.909901   6.474349
    25  H    3.202051   5.671400   4.670158   4.290624   6.042599
    26  C    2.937994   4.577126   4.788895   3.669160   4.248630
    27  H    3.897013   5.508641   5.719698   4.445846   5.296992
    28  H    2.534255   4.987095   5.184987   4.354865   4.064788
    29  H    3.409621   3.951589   4.539453   3.259110   3.746496
                   16         17         18         19         20
    16  H    0.000000
    17  H    1.786007   0.000000
    18  C    4.632712   4.139639   0.000000
    19  H    4.969114   4.489441   1.097026   0.000000
    20  H    5.435399   4.682063   1.091549   1.762503   0.000000
    21  H    4.901980   4.760274   1.092878   1.763850   1.765455
    22  C    5.006793   4.481387   3.007679   4.098102   2.792889
    23  H    5.130314   4.230605   3.193347   4.198245   2.774675
    24  H    5.640299   5.239238   4.061557   5.157134   3.818496
    25  H    5.603953   5.136016   2.600641   3.654802   2.244783
    26  C    3.063006   2.945831   4.116253   5.020928   4.449324
    27  H    3.979916   3.952520   4.960834   5.938119   5.174993
    28  H    3.173485   2.459294   4.234495   5.073845   4.436080
    29  H    2.262565   2.731334   4.501511   5.274387   5.047262
                   21         22         23         24         25
    21  H    0.000000
    22  C    3.013686   0.000000
    23  H    3.541770   1.091516   0.000000
    24  H    3.919490   1.099607   1.776407   0.000000
    25  H    2.421236   1.089126   1.795229   1.762288   0.000000
    26  C    4.226189   2.560595   2.792921   2.821548   3.500493
    27  H    4.951021   2.799517   3.112438   2.614101   3.796230
    28  H    4.604067   2.820512   2.612070   3.202403   3.810193
    29  H    4.552267   3.496046   3.802794   3.790040   4.316451
                   26         27         28         29
    26  C    0.000000
    27  H    1.098634   0.000000
    28  H    1.091653   1.772888   0.000000
    29  H    1.089277   1.766196   1.794456   0.000000
 Framework group  C1[X(C8H16Cl3FeO)]
 Deg. of freedom    81
                         Standard orientation:                         
 ---------------------------------------------------------------------
 Center     Atomic      Atomic             Coordinates (Angstroms)
 Number     Number       Type             X           Y           Z
 ---------------------------------------------------------------------
      1          8           0       -0.291007   -0.241758   -0.527161
      2          6           0       -1.099702   -1.194743   -0.276316
      3          6           0       -2.734005   -0.193672    0.902418
      4          6           0       -3.054035    0.692919   -0.086151
      5          6           0       -4.111959    0.401493   -1.105776
      6         26           0        1.543407    0.182424   -0.095125
      7         17           0        1.861754    2.091611   -1.105514
      8          6           0       -2.321886    1.987280   -0.227734
      9         17           0        2.592402   -1.557512   -0.922351
     10         17           0        1.765089    0.316663    2.087219
     11          1           0       -3.349904   -1.088803    0.977966
     12          1           0       -2.828502    2.675135   -0.909465
     13          1           0       -2.162974    2.485183    0.733379
     14          1           0       -1.321631    1.775974   -0.640193
     15          1           0       -4.935552    1.116670   -0.973670
     16          1           0       -3.739854    0.551619   -2.127255
     17          1           0       -4.522462   -0.607090   -1.016067
     18          6           0       -1.984711    0.222649    2.147470
     19          1           0       -2.539446    1.009858    2.672863
     20          1           0       -1.869596   -0.611605    2.841911
     21          1           0       -0.988931    0.616743    1.929540
     22          6           0       -0.745654   -2.173876    0.817981
     23          1           0       -1.596966   -2.780225    1.132648
     24          1           0        0.008465   -2.840102    0.374605
     25          1           0       -0.281561   -1.684630    1.673231
     26          6           0       -1.848547   -1.762329   -1.455981
     27          1           0       -1.161995   -2.474441   -1.934039
     28          1           0       -2.749311   -2.304892   -1.162797
     29          1           0       -2.084483   -0.989623   -2.186586
 ---------------------------------------------------------------------
 Rotational constants (GHZ):           0.5937609           0.3026464           0.2893241
   427 basis functions,  1056 primitive gaussians,   461 cartesian basis functions
    77 alpha electrons       72 beta electrons
       nuclear repulsion energy      1616.9259682124 Hartrees.
 NAtoms=   29 NActive=   29 NUniq=   29 SFac= 1.00D+00 NAtFMM=   60 NAOKFM=F Big=F
 ExpMin= 1.40D-02 ExpMax= 4.32D+06 ExpMxC= 4.91D+03 IAcc=3 IRadAn=         5 AccDes= 0.00D+00
 Harris functional with IExCor= 1009 and IRadAn=       5 diagonalized for initial guess.
 HarFok:  IExCor= 1009 AccDes= 0.00D+00 IRadAn=         5 IDoV= 1 UseB2=F ITyADJ=14
 ICtDFT=  3500011 ScaDFX=  1.000000  1.000000  1.000000  1.000000
 FoFCou: FMM=F IPFlag=           0 FMFlag=      100000 FMFlg1=           0
         NFxFlg=           0 DoJE=T BraDBF=F KetDBF=T FulRan=T
         wScrn=  0.000000 ICntrl=       500 IOpCl=  0 I1Cent=   200000004 NGrid=           0
         NMat0=    1 NMatS0=      1 NMatT0=    0 NMatD0=    1 NMtDS0=    0 NMtDT0=    0
 Petite list used in FoFCou.
 Initial guess <Sx>= 0.0000 <Sy>= 0.0000 <Sz>= 2.5000 <S**2>= 8.7500 S= 2.5000
 EnCoef did   100 forward-backward iterations
 Restarting incremental Fock formation.
 SCF Done:  E(UPBE1PBE) =  -3033.12335159     A.U. after   21 cycles
            NFock= 21  Conv=0.42D-08     -V/T= 2.0021
 <Sx>= 0.0000 <Sy>= 0.0000 <Sz>= 2.5000 <S**2>= 8.7628 S= 2.5021
 <L.S>= 0.000000000000E+00
 Annihilation of the first spin contaminant:
 S**2 before annihilation     8.7628,   after     8.7501
 1\1\GINC-HOLY7C04206\SP\UPBE1PBE\Jul-CC-pVDZ\C8H16Cl3Fe1O1(6)\EKWAN\11
 -Feb-2020\0\\#t pop=none jul-cc-pvdz upbe1pbe\\theory_abbreviation pbe
 0\\0,6\O,0,-0.291007,-0.241758,-0.527161\C,0,-1.099702,-1.194743,-0.27
 6316\C,0,-2.734005,-0.193672,0.902418\C,0,-3.054035,0.692919,-0.086151
 \C,0,-4.111959,0.401493,-1.105776\Fe,0,1.543407,0.182424,-0.095125\Cl,
 0,1.861754,2.091611,-1.105514\C,0,-2.321886,1.98728,-0.227734\Cl,0,2.5
 92402,-1.557512,-0.922351\Cl,0,1.765089,0.316663,2.087219\H,0,-3.34990
 4,-1.088803,0.977966\H,0,-2.828502,2.675135,-0.909465\H,0,-2.162974,2.
 485183,0.733379\H,0,-1.321631,1.775974,-0.640193\H,0,-4.935552,1.11667
 ,-0.97367\H,0,-3.739854,0.551619,-2.127255\H,0,-4.522462,-0.60709,-1.0
 16067\C,0,-1.984711,0.222649,2.14747\H,0,-2.539446,1.009858,2.672863\H
 ,0,-1.869596,-0.611605,2.841911\H,0,-0.988931,0.616743,1.92954\C,0,-0.
 745654,-2.173876,0.817981\H,0,-1.596966,-2.780225,1.132648\H,0,0.00846
 5,-2.840102,0.374605\H,0,-0.281561,-1.68463,1.673231\C,0,-1.848547,-1.
 762329,-1.455981\H,0,-1.161995,-2.474441,-1.934039\H,0,-2.749311,-2.30
 4892,-1.162797\H,0,-2.084483,-0.989623,-2.186586\\Version=ES64L-G16Rev
 A.03\HF=-3033.1233516\S2=8.762833\S2-1=0.\S2A=8.750051\RMSD=4.171e-09\
 PG=C01 [X(C8H16Cl3Fe1O1)]\\@


 The arm of the moral universe is long, but it bends toward justice.
 -- Martin Luther King, Jr.
 Job cpu time:       0 days  1 hours 29 minutes 48.5 seconds.
 Elapsed time:       0 days  0 hours 22 minutes 36.9 seconds.
 File lengths (MBytes):  RWF=    173 Int=      0 D2E=      0 Chk=     13 Scr=      1
 Normal termination of Gaussian 16 at Tue Feb 11 13:59:40 2020.
 Initial command:
 /n/sw/g16_nehalem/g16/l1.exe "/scratch/Gau-251986.inp" -scrdir="/scratch/"
 Entering Link 1 = /n/sw/g16_nehalem/g16/l1.exe PID=    253860.
  
 Copyright (c) 1988,1990,1992,1993,1995,1998,2003,2009,2016,
            Gaussian, Inc.  All Rights Reserved.
  
 This is part of the Gaussian(R) 16 program.  It is based on
 the Gaussian(R) 09 system (copyright 2009, Gaussian, Inc.),
 the Gaussian(R) 03 system (copyright 2003, Gaussian, Inc.),
 the Gaussian(R) 98 system (copyright 1998, Gaussian, Inc.),
 the Gaussian(R) 94 system (copyright 1995, Gaussian, Inc.),
 the Gaussian 92(TM) system (copyright 1992, Gaussian, Inc.),
 the Gaussian 90(TM) system (copyright 1990, Gaussian, Inc.),
 the Gaussian 88(TM) system (copyright 1988, Gaussian, Inc.),
 the Gaussian 86(TM) system (copyright 1986, Carnegie Mellon
 University), and the Gaussian 82(TM) system (copyright 1983,
 Carnegie Mellon University). Gaussian is a federally registered
 trademark of Gaussian, Inc.
  
 This software contains proprietary and confidential information,
 including trade secrets, belonging to Gaussian, Inc.
  
 This software is provided under written license and may be
 used, copied, transmitted, or stored only in accord with that
 written license.
  
 The following legend is applicable only to US Government
 contracts under FAR:
  
                    RESTRICTED RIGHTS LEGEND
  
 Use, reproduction and disclosure by the US Government is
 subject to restrictions as set forth in subparagraphs (a)
 and (c) of the Commercial Computer Software - Restricted
 Rights clause in FAR 52.227-19.
  
 Gaussian, Inc.
 340 Quinnipiac St., Bldg. 40, Wallingford CT 06492
  
  
 ---------------------------------------------------------------
 Warning -- This program may not be used in any manner that
 competes with the business of Gaussian, Inc. or will provide
 assistance to any competitor of Gaussian, Inc.  The licensee
 of this program is prohibited from giving any competitor of
 Gaussian, Inc. access to this program.  By using this program,
 the user acknowledges that Gaussian, Inc. is engaged in the
 business of creating and licensing software in the field of
 computational chemistry and represents and warrants to the
 licensee that it is not a competitor of Gaussian, Inc. and that
 it will not use this program in any manner prohibited above.
 ---------------------------------------------------------------
  

 Cite this work as:
 Gaussian 16, Revision A.03,
 M. J. Frisch, G. W. Trucks, H. B. Schlegel, G. E. Scuseria, 
 M. A. Robb, J. R. Cheeseman, G. Scalmani, V. Barone, 
 G. A. Petersson, H. Nakatsuji, X. Li, M. Caricato, A. V. Marenich, 
 J. Bloino, B. G. Janesko, R. Gomperts, B. Mennucci, H. P. Hratchian, 
 J. V. Ortiz, A. F. Izmaylov, J. L. Sonnenberg, D. Williams-Young, 
 F. Ding, F. Lipparini, F. Egidi, J. Goings, B. Peng, A. Petrone, 
 T. Henderson, D. Ranasinghe, V. G. Zakrzewski, J. Gao, N. Rega, 
 G. Zheng, W. Liang, M. Hada, M. Ehara, K. Toyota, R. Fukuda, 
 J. Hasegawa, M. Ishida, T. Nakajima, Y. Honda, O. Kitao, H. Nakai, 
 T. Vreven, K. Throssell, J. A. Montgomery, Jr., J. E. Peralta, 
 F. Ogliaro, M. J. Bearpark, J. J. Heyd, E. N. Brothers, K. N. Kudin, 
 V. N. Staroverov, T. A. Keith, R. Kobayashi, J. Normand, 
 K. Raghavachari, A. P. Rendell, J. C. Burant, S. S. Iyengar, 
 J. Tomasi, M. Cossi, J. M. Millam, M. Klene, C. Adamo, R. Cammi, 
 J. W. Ochterski, R. L. Martin, K. Morokuma, O. Farkas, 
 J. B. Foresman, and D. J. Fox, Gaussian, Inc., Wallingford CT, 2016.
 
 ******************************************
 Gaussian 16:  ES64L-G16RevA.03 25-Dec-2016
                11-Feb-2020 
 ******************************************
 %chk=checkpoint.chk
 %mem=3GB
 %nprocshared=4
 Will use up to    4 processors via shared memory.
 ---------------------------------------------------------------------
 #t pop=none jul-cc-pvdz guess=read upbe1pbe empiricaldispersion=gd3bj
 ---------------------------------------------------------------------
 -----------------------------
 theory_abbreviation pbe0_d3bj
 -----------------------------
 Symbolic Z-matrix:
 Charge =  0 Multiplicity = 6
 O                    -0.29101  -0.24176  -0.52716 
 C                    -1.0997   -1.19474  -0.27632 
 C                    -2.73401  -0.19367   0.90242 
 C                    -3.05403   0.69292  -0.08615 
 C                    -4.11196   0.40149  -1.10578 
 Fe                    1.54341   0.18242  -0.09513 
 Cl                    1.86175   2.09161  -1.10551 
 C                    -2.32189   1.98728  -0.22773 
 Cl                    2.5924   -1.55751  -0.92235 
 Cl                    1.76509   0.31666   2.08722 
 H                    -3.3499   -1.0888    0.97797 
 H                    -2.8285    2.67514  -0.90947 
 H                    -2.16297   2.48518   0.73338 
 H                    -1.32163   1.77597  -0.64019 
 H                    -4.93555   1.11667  -0.97367 
 H                    -3.73985   0.55162  -2.12725 
 H                    -4.52246  -0.60709  -1.01607 
 C                    -1.98471   0.22265   2.14747 
 H                    -2.53945   1.00986   2.67286 
 H                    -1.8696   -0.61161   2.84191 
 H                    -0.98893   0.61674   1.92954 
 C                    -0.74565  -2.17388   0.81798 
 H                    -1.59697  -2.78023   1.13265 
 H                     0.00847  -2.8401    0.37461 
 H                    -0.28156  -1.68463   1.67323 
 C                    -1.84855  -1.76233  -1.45598 
 H                    -1.162    -2.47444  -1.93404 
 H                    -2.74931  -2.30489  -1.1628 
 H                    -2.08448  -0.98962  -2.18659 
 
                    Distance matrix (angstroms):
                    1          2          3          4          5
     1  O    0.000000
     2  C    1.274791   0.000000
     3  C    2.830945   2.250001   0.000000
     4  C    2.949989   2.723756   1.365918   0.000000
     5  C    3.917683   3.508513   2.507154   1.497921   0.000000
     6  Fe   1.931751   2.985874   4.408264   4.625706   5.749137
     7  Cl   3.226993   4.500879   5.511380   5.211566   6.208200
     8  C    3.030303   3.409012   2.490710   1.493807   2.547556
     9  Cl   3.193968   3.765713   5.793138   6.135627   6.987117
    10  Cl   3.372588   4.009697   4.680389   5.299911   6.688954
    11  H    3.512797   2.578344   1.089173   2.096286   2.672768
    12  H    3.885010   4.285508   3.394393   2.158215   2.618253
    13  H    3.539693   3.961299   2.744251   2.162829   3.394525
    14  H    2.268525   3.001136   2.872970   2.116883   3.145138
    15  H    4.859681   4.532403   3.175455   2.123055   1.098743
    16  H    3.883850   3.666900   3.278126   2.157874   1.097460
    17  H    4.275244   3.550754   2.655198   2.170494   1.092612
    18  C    3.199681   2.943973   1.511595   2.520649   3.891115
    19  H    4.106358   3.953579   2.149608   2.824431   4.137755
    20  H    3.738900   3.264372   2.164140   3.417342   4.651752
    21  H    2.694346   2.856493   2.181063   2.886775   4.360365
    22  C    2.397747   1.510476   2.807468   3.790065   4.654608
    23  H    3.302167   2.178578   2.834805   3.958693   4.632393
    24  H    2.766633   2.087807   3.847508   4.698238   5.447693
    25  H    2.631291   2.170271   2.971799   4.053983   5.171725
    26  C    2.366595   1.508155   2.967620   3.059065   3.150842
    27  H    2.778992   2.095126   3.964670   4.126339   4.202297
    28  H    3.271668   2.177037   2.953404   3.199827   3.030607
    29  H    2.555298   2.158935   3.255359   2.860560   2.685891
                    6          7          8          9         10
     6  Fe   0.000000
     7  Cl   2.183398   0.000000
     8  C    4.267971   4.276006   0.000000
     9  Cl   2.193643   3.726056   6.099038   0.000000
    10  Cl   2.197678   3.654221   4.985312   3.640672   0.000000
    11  H    5.168369   6.451147   3.460176   6.256348   5.419311
    12  H    5.098073   4.730480   1.092960   6.877621   5.970225
    13  H    4.441439   4.442394   1.094029   6.457432   4.686688
    14  H    3.323393   3.232660   1.102399   5.148922   4.369920
    15  H    6.604662   6.868134   2.854055   7.988991   7.409969
    16  H    5.672628   5.898605   2.771270   6.782160   6.936958
    17  H    6.185971   6.931753   3.492100   7.178675   7.072270
    18  C    4.180726   5.373101   2.978121   5.791609   3.751462
    19  H    5.001609   5.900583   3.068574   6.771471   4.399150
    20  H    4.572226   6.067332   4.047405   5.913868   3.826510
    21  H    3.271183   4.417374   2.882529   5.068196   2.774804
    22  C    3.409650   5.356565   4.570913   3.814614   3.757337
    23  H    4.488503   6.380196   5.010514   4.823780   4.669618
    24  H    3.422332   5.472406   5.394160   3.162888   3.997992
    25  H    3.153329   5.155116   4.610804   3.874644   2.892289
    26  C    4.139969   5.361158   3.973941   4.477582   5.471274
    27  H    4.214230   5.538803   4.915667   3.994968   5.703385
    28  H    5.074849   6.371377   4.413590   5.399101   6.149387
    29  H    4.348504   5.122061   3.571472   4.877914   5.898389
                   11         12         13         14         15
    11  H    0.000000
    12  H    4.242816   0.000000
    13  H    3.773858   1.782679   0.000000
    14  H    3.865136   1.775291   1.759982   0.000000
    15  H    3.344738   2.621563   3.531860   3.688674   0.000000
    16  H    3.533475   2.612067   3.795846   3.091634   1.754917
    17  H    2.362860   3.695114   4.264962   4.008191   1.773073
    18  C    2.225174   4.008930   2.674040   3.259380   4.387283
    19  H    2.816717   3.961032   2.465748   3.611973   4.364623
    20  H    2.427616   5.078876   3.757935   4.257446   5.190923
    21  H    3.064078   3.959918   2.510029   2.838668   4.924873
    22  C    2.825791   5.552948   4.870604   4.249628   5.620761
    23  H    2.440825   5.953810   5.310772   4.896705   5.546938
    24  H    3.835327   6.333645   5.762163   4.909901   6.474349
    25  H    3.202051   5.671400   4.670158   4.290624   6.042599
    26  C    2.937994   4.577126   4.788895   3.669160   4.248630
    27  H    3.897013   5.508641   5.719698   4.445846   5.296992
    28  H    2.534255   4.987095   5.184987   4.354865   4.064788
    29  H    3.409621   3.951589   4.539453   3.259110   3.746496
                   16         17         18         19         20
    16  H    0.000000
    17  H    1.786007   0.000000
    18  C    4.632712   4.139639   0.000000
    19  H    4.969114   4.489441   1.097026   0.000000
    20  H    5.435399   4.682063   1.091549   1.762503   0.000000
    21  H    4.901980   4.760274   1.092878   1.763850   1.765455
    22  C    5.006793   4.481387   3.007679   4.098102   2.792889
    23  H    5.130314   4.230605   3.193347   4.198245   2.774675
    24  H    5.640299   5.239238   4.061557   5.157134   3.818496
    25  H    5.603953   5.136016   2.600641   3.654802   2.244783
    26  C    3.063006   2.945831   4.116253   5.020928   4.449324
    27  H    3.979916   3.952520   4.960834   5.938119   5.174993
    28  H    3.173485   2.459294   4.234495   5.073845   4.436080
    29  H    2.262565   2.731334   4.501511   5.274387   5.047262
                   21         22         23         24         25
    21  H    0.000000
    22  C    3.013686   0.000000
    23  H    3.541770   1.091516   0.000000
    24  H    3.919490   1.099607   1.776407   0.000000
    25  H    2.421236   1.089126   1.795229   1.762288   0.000000
    26  C    4.226189   2.560595   2.792921   2.821548   3.500493
    27  H    4.951021   2.799517   3.112438   2.614101   3.796230
    28  H    4.604067   2.820512   2.612070   3.202403   3.810193
    29  H    4.552267   3.496046   3.802794   3.790040   4.316451
                   26         27         28         29
    26  C    0.000000
    27  H    1.098634   0.000000
    28  H    1.091653   1.772888   0.000000
    29  H    1.089277   1.766196   1.794456   0.000000
 Framework group  C1[X(C8H16Cl3FeO)]
 Deg. of freedom    81
                         Standard orientation:                         
 ---------------------------------------------------------------------
 Center     Atomic      Atomic             Coordinates (Angstroms)
 Number     Number       Type             X           Y           Z
 ---------------------------------------------------------------------
      1          8           0       -0.291007   -0.241758   -0.527161
      2          6           0       -1.099702   -1.194743   -0.276316
      3          6           0       -2.734005   -0.193672    0.902418
      4          6           0       -3.054035    0.692919   -0.086151
      5          6           0       -4.111959    0.401493   -1.105776
      6         26           0        1.543407    0.182424   -0.095125
      7         17           0        1.861754    2.091611   -1.105514
      8          6           0       -2.321886    1.987280   -0.227734
      9         17           0        2.592402   -1.557512   -0.922351
     10         17           0        1.765089    0.316663    2.087219
     11          1           0       -3.349904   -1.088803    0.977966
     12          1           0       -2.828502    2.675135   -0.909465
     13          1           0       -2.162974    2.485183    0.733379
     14          1           0       -1.321631    1.775974   -0.640193
     15          1           0       -4.935552    1.116670   -0.973670
     16          1           0       -3.739854    0.551619   -2.127255
     17          1           0       -4.522462   -0.607090   -1.016067
     18          6           0       -1.984711    0.222649    2.147470
     19          1           0       -2.539446    1.009858    2.672863
     20          1           0       -1.869596   -0.611605    2.841911
     21          1           0       -0.988931    0.616743    1.929540
     22          6           0       -0.745654   -2.173876    0.817981
     23          1           0       -1.596966   -2.780225    1.132648
     24          1           0        0.008465   -2.840102    0.374605
     25          1           0       -0.281561   -1.684630    1.673231
     26          6           0       -1.848547   -1.762329   -1.455981
     27          1           0       -1.161995   -2.474441   -1.934039
     28          1           0       -2.749311   -2.304892   -1.162797
     29          1           0       -2.084483   -0.989623   -2.186586
 ---------------------------------------------------------------------
 Rotational constants (GHZ):           0.5937609           0.3026464           0.2893241
   427 basis functions,  1056 primitive gaussians,   461 cartesian basis functions
    77 alpha electrons       72 beta electrons
       nuclear repulsion energy      1616.9259682124 Hartrees.
 NAtoms=   29 NActive=   29 NUniq=   29 SFac= 1.00D+00 NAtFMM=   60 NAOKFM=F Big=F
 Nuclear repulsion after empirical dispersion term =     1616.8895755303 Hartrees.
 Initial guess from the checkpoint file:  "checkpoint.chk"
 B after Tr=     0.000000    0.000000    0.000000
         Rot=    1.000000    0.000000    0.000000    0.000000 Ang=   0.00 deg.
 Initial guess <Sx>= 0.0000 <Sy>= 0.0000 <Sz>= 2.5000 <S**2>= 8.7628 S= 2.5021
 SCF Done:  E(UPBE1PBE) =  -3033.15974427     A.U. after    1 cycles
            NFock=  1  Conv=0.22D-08     -V/T= 2.0021
 <Sx>= 0.0000 <Sy>= 0.0000 <Sz>= 2.5000 <S**2>= 8.7628 S= 2.5021
 <L.S>= 0.000000000000E+00
 Annihilation of the first spin contaminant:
 S**2 before annihilation     8.7628,   after     8.7501
 1\1\GINC-HOLY7C04206\SP\UPBE1PBE\Jul-CC-pVDZ\C8H16Cl3Fe1O1(6)\EKWAN\11
 -Feb-2020\0\\#t pop=none jul-cc-pvdz guess=read upbe1pbe empiricaldisp
 ersion=gd3bj\\theory_abbreviation pbe0_d3bj\\0,6\O,0,-0.291007,-0.2417
 58,-0.527161\C,0,-1.099702,-1.194743,-0.276316\C,0,-2.734005,-0.193672
 ,0.902418\C,0,-3.054035,0.692919,-0.086151\C,0,-4.111959,0.401493,-1.1
 05776\Fe,0,1.543407,0.182424,-0.095125\Cl,0,1.861754,2.091611,-1.10551
 4\C,0,-2.321886,1.98728,-0.227734\Cl,0,2.592402,-1.557512,-0.922351\Cl
 ,0,1.765089,0.316663,2.087219\H,0,-3.349904,-1.088803,0.977966\H,0,-2.
 828502,2.675135,-0.909465\H,0,-2.162974,2.485183,0.733379\H,0,-1.32163
 1,1.775974,-0.640193\H,0,-4.935552,1.11667,-0.97367\H,0,-3.739854,0.55
 1619,-2.127255\H,0,-4.522462,-0.60709,-1.016067\C,0,-1.984711,0.222649
 ,2.14747\H,0,-2.539446,1.009858,2.672863\H,0,-1.869596,-0.611605,2.841
 911\H,0,-0.988931,0.616743,1.92954\C,0,-0.745654,-2.173876,0.817981\H,
 0,-1.596966,-2.780225,1.132648\H,0,0.008465,-2.840102,0.374605\H,0,-0.
 281561,-1.68463,1.673231\C,0,-1.848547,-1.762329,-1.455981\H,0,-1.1619
 95,-2.474441,-1.934039\H,0,-2.749311,-2.304892,-1.162797\H,0,-2.084483
 ,-0.989623,-2.186586\\Version=ES64L-G16RevA.03\HF=-3033.1597443\S2=8.7
 62833\S2-1=0.\S2A=8.750051\RMSD=2.210e-09\PG=C01 [X(C8H16Cl3Fe1O1)]\\@


 ABALONE: AN EXPRESSION OF DISBELIEF.
 Job cpu time:       0 days  0 hours  4 minutes 35.0 seconds.
 Elapsed time:       0 days  0 hours  1 minutes  9.5 seconds.
 File lengths (MBytes):  RWF=    170 Int=      0 D2E=      0 Chk=     13 Scr=      1
 Normal termination of Gaussian 16 at Tue Feb 11 14:00:50 2020.
 Initial command:
 /n/sw/g16_nehalem/g16/l1.exe "/scratch/Gau-251986.inp" -scrdir="/scratch/"
 Entering Link 1 = /n/sw/g16_nehalem/g16/l1.exe PID=    254259.
  
 Copyright (c) 1988,1990,1992,1993,1995,1998,2003,2009,2016,
            Gaussian, Inc.  All Rights Reserved.
  
 This is part of the Gaussian(R) 16 program.  It is based on
 the Gaussian(R) 09 system (copyright 2009, Gaussian, Inc.),
 the Gaussian(R) 03 system (copyright 2003, Gaussian, Inc.),
 the Gaussian(R) 98 system (copyright 1998, Gaussian, Inc.),
 the Gaussian(R) 94 system (copyright 1995, Gaussian, Inc.),
 the Gaussian 92(TM) system (copyright 1992, Gaussian, Inc.),
 the Gaussian 90(TM) system (copyright 1990, Gaussian, Inc.),
 the Gaussian 88(TM) system (copyright 1988, Gaussian, Inc.),
 the Gaussian 86(TM) system (copyright 1986, Carnegie Mellon
 University), and the Gaussian 82(TM) system (copyright 1983,
 Carnegie Mellon University). Gaussian is a federally registered
 trademark of Gaussian, Inc.
  
 This software contains proprietary and confidential information,
 including trade secrets, belonging to Gaussian, Inc.
  
 This software is provided under written license and may be
 used, copied, transmitted, or stored only in accord with that
 written license.
  
 The following legend is applicable only to US Government
 contracts under FAR:
  
                    RESTRICTED RIGHTS LEGEND
  
 Use, reproduction and disclosure by the US Government is
 subject to restrictions as set forth in subparagraphs (a)
 and (c) of the Commercial Computer Software - Restricted
 Rights clause in FAR 52.227-19.
  
 Gaussian, Inc.
 340 Quinnipiac St., Bldg. 40, Wallingford CT 06492
  
  
 ---------------------------------------------------------------
 Warning -- This program may not be used in any manner that
 competes with the business of Gaussian, Inc. or will provide
 assistance to any competitor of Gaussian, Inc.  The licensee
 of this program is prohibited from giving any competitor of
 Gaussian, Inc. access to this program.  By using this program,
 the user acknowledges that Gaussian, Inc. is engaged in the
 business of creating and licensing software in the field of
 computational chemistry and represents and warrants to the
 licensee that it is not a competitor of Gaussian, Inc. and that
 it will not use this program in any manner prohibited above.
 ---------------------------------------------------------------
  

 Cite this work as:
 Gaussian 16, Revision A.03,
 M. J. Frisch, G. W. Trucks, H. B. Schlegel, G. E. Scuseria, 
 M. A. Robb, J. R. Cheeseman, G. Scalmani, V. Barone, 
 G. A. Petersson, H. Nakatsuji, X. Li, M. Caricato, A. V. Marenich, 
 J. Bloino, B. G. Janesko, R. Gomperts, B. Mennucci, H. P. Hratchian, 
 J. V. Ortiz, A. F. Izmaylov, J. L. Sonnenberg, D. Williams-Young, 
 F. Ding, F. Lipparini, F. Egidi, J. Goings, B. Peng, A. Petrone, 
 T. Henderson, D. Ranasinghe, V. G. Zakrzewski, J. Gao, N. Rega, 
 G. Zheng, W. Liang, M. Hada, M. Ehara, K. Toyota, R. Fukuda, 
 J. Hasegawa, M. Ishida, T. Nakajima, Y. Honda, O. Kitao, H. Nakai, 
 T. Vreven, K. Throssell, J. A. Montgomery, Jr., J. E. Peralta, 
 F. Ogliaro, M. J. Bearpark, J. J. Heyd, E. N. Brothers, K. N. Kudin, 
 V. N. Staroverov, T. A. Keith, R. Kobayashi, J. Normand, 
 K. Raghavachari, A. P. Rendell, J. C. Burant, S. S. Iyengar, 
 J. Tomasi, M. Cossi, J. M. Millam, M. Klene, C. Adamo, R. Cammi, 
 J. W. Ochterski, R. L. Martin, K. Morokuma, O. Farkas, 
 J. B. Foresman, and D. J. Fox, Gaussian, Inc., Wallingford CT, 2016.
 
 ******************************************
 Gaussian 16:  ES64L-G16RevA.03 25-Dec-2016
                11-Feb-2020 
 ******************************************
 %chk=checkpoint.chk
 %mem=3GB
 %nprocshared=4
 Will use up to    4 processors via shared memory.
 -----------------------------------------
 #t pop=none jul-cc-pvdz guess=read ub3lyp
 -----------------------------------------
 -------------------------
 theory_abbreviation b3lyp
 -------------------------
 Symbolic Z-matrix:
 Charge =  0 Multiplicity = 6
 O                    -0.29101  -0.24176  -0.52716 
 C                    -1.0997   -1.19474  -0.27632 
 C                    -2.73401  -0.19367   0.90242 
 C                    -3.05403   0.69292  -0.08615 
 C                    -4.11196   0.40149  -1.10578 
 Fe                    1.54341   0.18242  -0.09513 
 Cl                    1.86175   2.09161  -1.10551 
 C                    -2.32189   1.98728  -0.22773 
 Cl                    2.5924   -1.55751  -0.92235 
 Cl                    1.76509   0.31666   2.08722 
 H                    -3.3499   -1.0888    0.97797 
 H                    -2.8285    2.67514  -0.90947 
 H                    -2.16297   2.48518   0.73338 
 H                    -1.32163   1.77597  -0.64019 
 H                    -4.93555   1.11667  -0.97367 
 H                    -3.73985   0.55162  -2.12725 
 H                    -4.52246  -0.60709  -1.01607 
 C                    -1.98471   0.22265   2.14747 
 H                    -2.53945   1.00986   2.67286 
 H                    -1.8696   -0.61161   2.84191 
 H                    -0.98893   0.61674   1.92954 
 C                    -0.74565  -2.17388   0.81798 
 H                    -1.59697  -2.78023   1.13265 
 H                     0.00847  -2.8401    0.37461 
 H                    -0.28156  -1.68463   1.67323 
 C                    -1.84855  -1.76233  -1.45598 
 H                    -1.162    -2.47444  -1.93404 
 H                    -2.74931  -2.30489  -1.1628 
 H                    -2.08448  -0.98962  -2.18659 
 
                    Distance matrix (angstroms):
                    1          2          3          4          5
     1  O    0.000000
     2  C    1.274791   0.000000
     3  C    2.830945   2.250001   0.000000
     4  C    2.949989   2.723756   1.365918   0.000000
     5  C    3.917683   3.508513   2.507154   1.497921   0.000000
     6  Fe   1.931751   2.985874   4.408264   4.625706   5.749137
     7  Cl   3.226993   4.500879   5.511380   5.211566   6.208200
     8  C    3.030303   3.409012   2.490710   1.493807   2.547556
     9  Cl   3.193968   3.765713   5.793138   6.135627   6.987117
    10  Cl   3.372588   4.009697   4.680389   5.299911   6.688954
    11  H    3.512797   2.578344   1.089173   2.096286   2.672768
    12  H    3.885010   4.285508   3.394393   2.158215   2.618253
    13  H    3.539693   3.961299   2.744251   2.162829   3.394525
    14  H    2.268525   3.001136   2.872970   2.116883   3.145138
    15  H    4.859681   4.532403   3.175455   2.123055   1.098743
    16  H    3.883850   3.666900   3.278126   2.157874   1.097460
    17  H    4.275244   3.550754   2.655198   2.170494   1.092612
    18  C    3.199681   2.943973   1.511595   2.520649   3.891115
    19  H    4.106358   3.953579   2.149608   2.824431   4.137755
    20  H    3.738900   3.264372   2.164140   3.417342   4.651752
    21  H    2.694346   2.856493   2.181063   2.886775   4.360365
    22  C    2.397747   1.510476   2.807468   3.790065   4.654608
    23  H    3.302167   2.178578   2.834805   3.958693   4.632393
    24  H    2.766633   2.087807   3.847508   4.698238   5.447693
    25  H    2.631291   2.170271   2.971799   4.053983   5.171725
    26  C    2.366595   1.508155   2.967620   3.059065   3.150842
    27  H    2.778992   2.095126   3.964670   4.126339   4.202297
    28  H    3.271668   2.177037   2.953404   3.199827   3.030607
    29  H    2.555298   2.158935   3.255359   2.860560   2.685891
                    6          7          8          9         10
     6  Fe   0.000000
     7  Cl   2.183398   0.000000
     8  C    4.267971   4.276006   0.000000
     9  Cl   2.193643   3.726056   6.099038   0.000000
    10  Cl   2.197678   3.654221   4.985312   3.640672   0.000000
    11  H    5.168369   6.451147   3.460176   6.256348   5.419311
    12  H    5.098073   4.730480   1.092960   6.877621   5.970225
    13  H    4.441439   4.442394   1.094029   6.457432   4.686688
    14  H    3.323393   3.232660   1.102399   5.148922   4.369920
    15  H    6.604662   6.868134   2.854055   7.988991   7.409969
    16  H    5.672628   5.898605   2.771270   6.782160   6.936958
    17  H    6.185971   6.931753   3.492100   7.178675   7.072270
    18  C    4.180726   5.373101   2.978121   5.791609   3.751462
    19  H    5.001609   5.900583   3.068574   6.771471   4.399150
    20  H    4.572226   6.067332   4.047405   5.913868   3.826510
    21  H    3.271183   4.417374   2.882529   5.068196   2.774804
    22  C    3.409650   5.356565   4.570913   3.814614   3.757337
    23  H    4.488503   6.380196   5.010514   4.823780   4.669618
    24  H    3.422332   5.472406   5.394160   3.162888   3.997992
    25  H    3.153329   5.155116   4.610804   3.874644   2.892289
    26  C    4.139969   5.361158   3.973941   4.477582   5.471274
    27  H    4.214230   5.538803   4.915667   3.994968   5.703385
    28  H    5.074849   6.371377   4.413590   5.399101   6.149387
    29  H    4.348504   5.122061   3.571472   4.877914   5.898389
                   11         12         13         14         15
    11  H    0.000000
    12  H    4.242816   0.000000
    13  H    3.773858   1.782679   0.000000
    14  H    3.865136   1.775291   1.759982   0.000000
    15  H    3.344738   2.621563   3.531860   3.688674   0.000000
    16  H    3.533475   2.612067   3.795846   3.091634   1.754917
    17  H    2.362860   3.695114   4.264962   4.008191   1.773073
    18  C    2.225174   4.008930   2.674040   3.259380   4.387283
    19  H    2.816717   3.961032   2.465748   3.611973   4.364623
    20  H    2.427616   5.078876   3.757935   4.257446   5.190923
    21  H    3.064078   3.959918   2.510029   2.838668   4.924873
    22  C    2.825791   5.552948   4.870604   4.249628   5.620761
    23  H    2.440825   5.953810   5.310772   4.896705   5.546938
    24  H    3.835327   6.333645   5.762163   4.909901   6.474349
    25  H    3.202051   5.671400   4.670158   4.290624   6.042599
    26  C    2.937994   4.577126   4.788895   3.669160   4.248630
    27  H    3.897013   5.508641   5.719698   4.445846   5.296992
    28  H    2.534255   4.987095   5.184987   4.354865   4.064788
    29  H    3.409621   3.951589   4.539453   3.259110   3.746496
                   16         17         18         19         20
    16  H    0.000000
    17  H    1.786007   0.000000
    18  C    4.632712   4.139639   0.000000
    19  H    4.969114   4.489441   1.097026   0.000000
    20  H    5.435399   4.682063   1.091549   1.762503   0.000000
    21  H    4.901980   4.760274   1.092878   1.763850   1.765455
    22  C    5.006793   4.481387   3.007679   4.098102   2.792889
    23  H    5.130314   4.230605   3.193347   4.198245   2.774675
    24  H    5.640299   5.239238   4.061557   5.157134   3.818496
    25  H    5.603953   5.136016   2.600641   3.654802   2.244783
    26  C    3.063006   2.945831   4.116253   5.020928   4.449324
    27  H    3.979916   3.952520   4.960834   5.938119   5.174993
    28  H    3.173485   2.459294   4.234495   5.073845   4.436080
    29  H    2.262565   2.731334   4.501511   5.274387   5.047262
                   21         22         23         24         25
    21  H    0.000000
    22  C    3.013686   0.000000
    23  H    3.541770   1.091516   0.000000
    24  H    3.919490   1.099607   1.776407   0.000000
    25  H    2.421236   1.089126   1.795229   1.762288   0.000000
    26  C    4.226189   2.560595   2.792921   2.821548   3.500493
    27  H    4.951021   2.799517   3.112438   2.614101   3.796230
    28  H    4.604067   2.820512   2.612070   3.202403   3.810193
    29  H    4.552267   3.496046   3.802794   3.790040   4.316451
                   26         27         28         29
    26  C    0.000000
    27  H    1.098634   0.000000
    28  H    1.091653   1.772888   0.000000
    29  H    1.089277   1.766196   1.794456   0.000000
 Framework group  C1[X(C8H16Cl3FeO)]
 Deg. of freedom    81
                         Standard orientation:                         
 ---------------------------------------------------------------------
 Center     Atomic      Atomic             Coordinates (Angstroms)
 Number     Number       Type             X           Y           Z
 ---------------------------------------------------------------------
      1          8           0       -0.291007   -0.241758   -0.527161
      2          6           0       -1.099702   -1.194743   -0.276316
      3          6           0       -2.734005   -0.193672    0.902418
      4          6           0       -3.054035    0.692919   -0.086151
      5          6           0       -4.111959    0.401493   -1.105776
      6         26           0        1.543407    0.182424   -0.095125
      7         17           0        1.861754    2.091611   -1.105514
      8          6           0       -2.321886    1.987280   -0.227734
      9         17           0        2.592402   -1.557512   -0.922351
     10         17           0        1.765089    0.316663    2.087219
     11          1           0       -3.349904   -1.088803    0.977966
     12          1           0       -2.828502    2.675135   -0.909465
     13          1           0       -2.162974    2.485183    0.733379
     14          1           0       -1.321631    1.775974   -0.640193
     15          1           0       -4.935552    1.116670   -0.973670
     16          1           0       -3.739854    0.551619   -2.127255
     17          1           0       -4.522462   -0.607090   -1.016067
     18          6           0       -1.984711    0.222649    2.147470
     19          1           0       -2.539446    1.009858    2.672863
     20          1           0       -1.869596   -0.611605    2.841911
     21          1           0       -0.988931    0.616743    1.929540
     22          6           0       -0.745654   -2.173876    0.817981
     23          1           0       -1.596966   -2.780225    1.132648
     24          1           0        0.008465   -2.840102    0.374605
     25          1           0       -0.281561   -1.684630    1.673231
     26          6           0       -1.848547   -1.762329   -1.455981
     27          1           0       -1.161995   -2.474441   -1.934039
     28          1           0       -2.749311   -2.304892   -1.162797
     29          1           0       -2.084483   -0.989623   -2.186586
 ---------------------------------------------------------------------
 Rotational constants (GHZ):           0.5937609           0.3026464           0.2893241
   427 basis functions,  1056 primitive gaussians,   461 cartesian basis functions
    77 alpha electrons       72 beta electrons
       nuclear repulsion energy      1616.9259682124 Hartrees.
 NAtoms=   29 NActive=   29 NUniq=   29 SFac= 1.00D+00 NAtFMM=   60 NAOKFM=F Big=F
 Initial guess from the checkpoint file:  "checkpoint.chk"
 B after Tr=     0.000000    0.000000    0.000000
         Rot=    1.000000    0.000000    0.000000    0.000000 Ang=   0.00 deg.
 Initial guess <Sx>= 0.0000 <Sy>= 0.0000 <Sz>= 2.5000 <S**2>= 8.7628 S= 2.5021
 SCF Done:  E(UB3LYP) =  -3034.34010940     A.U. after   15 cycles
            NFock= 15  Conv=0.61D-08     -V/T= 2.0024
 <Sx>= 0.0000 <Sy>= 0.0000 <Sz>= 2.5000 <S**2>= 8.7621 S= 2.5020
 <L.S>= 0.000000000000E+00
 Annihilation of the first spin contaminant:
 S**2 before annihilation     8.7621,   after     8.7500
 1\1\GINC-HOLY7C04206\SP\UB3LYP\Jul-CC-pVDZ\C8H16Cl3Fe1O1(6)\EKWAN\11-F
 eb-2020\0\\#t pop=none jul-cc-pvdz guess=read ub3lyp\\theory_abbreviat
 ion b3lyp\\0,6\O,0,-0.291007,-0.241758,-0.527161\C,0,-1.099702,-1.1947
 43,-0.276316\C,0,-2.734005,-0.193672,0.902418\C,0,-3.054035,0.692919,-
 0.086151\C,0,-4.111959,0.401493,-1.105776\Fe,0,1.543407,0.182424,-0.09
 5125\Cl,0,1.861754,2.091611,-1.105514\C,0,-2.321886,1.98728,-0.227734\
 Cl,0,2.592402,-1.557512,-0.922351\Cl,0,1.765089,0.316663,2.087219\H,0,
 -3.349904,-1.088803,0.977966\H,0,-2.828502,2.675135,-0.909465\H,0,-2.1
 62974,2.485183,0.733379\H,0,-1.321631,1.775974,-0.640193\H,0,-4.935552
 ,1.11667,-0.97367\H,0,-3.739854,0.551619,-2.127255\H,0,-4.522462,-0.60
 709,-1.016067\C,0,-1.984711,0.222649,2.14747\H,0,-2.539446,1.009858,2.
 672863\H,0,-1.869596,-0.611605,2.841911\H,0,-0.988931,0.616743,1.92954
 \C,0,-0.745654,-2.173876,0.817981\H,0,-1.596966,-2.780225,1.132648\H,0
 ,0.008465,-2.840102,0.374605\H,0,-0.281561,-1.68463,1.673231\C,0,-1.84
 8547,-1.762329,-1.455981\H,0,-1.161995,-2.474441,-1.934039\H,0,-2.7493
 11,-2.304892,-1.162797\H,0,-2.084483,-0.989623,-2.186586\\Version=ES64
 L-G16RevA.03\HF=-3034.3401094\S2=8.762124\S2-1=0.\S2A=8.750045\RMSD=6.
 143e-09\PG=C01 [X(C8H16Cl3Fe1O1)]\\@


 THE WORLD IS MADE UP OF THE WILLS, THE WON'TS, AND THE CANT'S:
 THE WILLS DO EVERYTHING,
 THE WON'TS DO NOTHING,
 THE CAN'TS CAN'T DO ANYTHING.

                               -- FROM WALT DISNEY'S "BLACK HOLE"
 Job cpu time:       0 days  1 hours  1 minutes 55.6 seconds.
 Elapsed time:       0 days  0 hours 15 minutes 32.0 seconds.
 File lengths (MBytes):  RWF=    174 Int=      0 D2E=      0 Chk=     13 Scr=      1
 Normal termination of Gaussian 16 at Tue Feb 11 14:16:23 2020.
 Initial command:
 /n/sw/g16_nehalem/g16/l1.exe "/scratch/Gau-251986.inp" -scrdir="/scratch/"
 Entering Link 1 = /n/sw/g16_nehalem/g16/l1.exe PID=    255900.
  
 Copyright (c) 1988,1990,1992,1993,1995,1998,2003,2009,2016,
            Gaussian, Inc.  All Rights Reserved.
  
 This is part of the Gaussian(R) 16 program.  It is based on
 the Gaussian(R) 09 system (copyright 2009, Gaussian, Inc.),
 the Gaussian(R) 03 system (copyright 2003, Gaussian, Inc.),
 the Gaussian(R) 98 system (copyright 1998, Gaussian, Inc.),
 the Gaussian(R) 94 system (copyright 1995, Gaussian, Inc.),
 the Gaussian 92(TM) system (copyright 1992, Gaussian, Inc.),
 the Gaussian 90(TM) system (copyright 1990, Gaussian, Inc.),
 the Gaussian 88(TM) system (copyright 1988, Gaussian, Inc.),
 the Gaussian 86(TM) system (copyright 1986, Carnegie Mellon
 University), and the Gaussian 82(TM) system (copyright 1983,
 Carnegie Mellon University). Gaussian is a federally registered
 trademark of Gaussian, Inc.
  
 This software contains proprietary and confidential information,
 including trade secrets, belonging to Gaussian, Inc.
  
 This software is provided under written license and may be
 used, copied, transmitted, or stored only in accord with that
 written license.
  
 The following legend is applicable only to US Government
 contracts under FAR:
  
                    RESTRICTED RIGHTS LEGEND
  
 Use, reproduction and disclosure by the US Government is
 subject to restrictions as set forth in subparagraphs (a)
 and (c) of the Commercial Computer Software - Restricted
 Rights clause in FAR 52.227-19.
  
 Gaussian, Inc.
 340 Quinnipiac St., Bldg. 40, Wallingford CT 06492
  
  
 ---------------------------------------------------------------
 Warning -- This program may not be used in any manner that
 competes with the business of Gaussian, Inc. or will provide
 assistance to any competitor of Gaussian, Inc.  The licensee
 of this program is prohibited from giving any competitor of
 Gaussian, Inc. access to this program.  By using this program,
 the user acknowledges that Gaussian, Inc. is engaged in the
 business of creating and licensing software in the field of
 computational chemistry and represents and warrants to the
 licensee that it is not a competitor of Gaussian, Inc. and that
 it will not use this program in any manner prohibited above.
 ---------------------------------------------------------------
  

 Cite this work as:
 Gaussian 16, Revision A.03,
 M. J. Frisch, G. W. Trucks, H. B. Schlegel, G. E. Scuseria, 
 M. A. Robb, J. R. Cheeseman, G. Scalmani, V. Barone, 
 G. A. Petersson, H. Nakatsuji, X. Li, M. Caricato, A. V. Marenich, 
 J. Bloino, B. G. Janesko, R. Gomperts, B. Mennucci, H. P. Hratchian, 
 J. V. Ortiz, A. F. Izmaylov, J. L. Sonnenberg, D. Williams-Young, 
 F. Ding, F. Lipparini, F. Egidi, J. Goings, B. Peng, A. Petrone, 
 T. Henderson, D. Ranasinghe, V. G. Zakrzewski, J. Gao, N. Rega, 
 G. Zheng, W. Liang, M. Hada, M. Ehara, K. Toyota, R. Fukuda, 
 J. Hasegawa, M. Ishida, T. Nakajima, Y. Honda, O. Kitao, H. Nakai, 
 T. Vreven, K. Throssell, J. A. Montgomery, Jr., J. E. Peralta, 
 F. Ogliaro, M. J. Bearpark, J. J. Heyd, E. N. Brothers, K. N. Kudin, 
 V. N. Staroverov, T. A. Keith, R. Kobayashi, J. Normand, 
 K. Raghavachari, A. P. Rendell, J. C. Burant, S. S. Iyengar, 
 J. Tomasi, M. Cossi, J. M. Millam, M. Klene, C. Adamo, R. Cammi, 
 J. W. Ochterski, R. L. Martin, K. Morokuma, O. Farkas, 
 J. B. Foresman, and D. J. Fox, Gaussian, Inc., Wallingford CT, 2016.
 
 ******************************************
 Gaussian 16:  ES64L-G16RevA.03 25-Dec-2016
                11-Feb-2020 
 ******************************************
 %chk=checkpoint.chk
 %mem=3GB
 %nprocshared=4
 Will use up to    4 processors via shared memory.
 -------------------------------------------------------------------
 #t pop=none jul-cc-pvdz guess=read ub3lyp empiricaldispersion=gd3bj
 -------------------------------------------------------------------
 ------------------------------
 theory_abbreviation b3lyp_d3bj
 ------------------------------
 Symbolic Z-matrix:
 Charge =  0 Multiplicity = 6
 O                    -0.29101  -0.24176  -0.52716 
 C                    -1.0997   -1.19474  -0.27632 
 C                    -2.73401  -0.19367   0.90242 
 C                    -3.05403   0.69292  -0.08615 
 C                    -4.11196   0.40149  -1.10578 
 Fe                    1.54341   0.18242  -0.09513 
 Cl                    1.86175   2.09161  -1.10551 
 C                    -2.32189   1.98728  -0.22773 
 Cl                    2.5924   -1.55751  -0.92235 
 Cl                    1.76509   0.31666   2.08722 
 H                    -3.3499   -1.0888    0.97797 
 H                    -2.8285    2.67514  -0.90947 
 H                    -2.16297   2.48518   0.73338 
 H                    -1.32163   1.77597  -0.64019 
 H                    -4.93555   1.11667  -0.97367 
 H                    -3.73985   0.55162  -2.12725 
 H                    -4.52246  -0.60709  -1.01607 
 C                    -1.98471   0.22265   2.14747 
 H                    -2.53945   1.00986   2.67286 
 H                    -1.8696   -0.61161   2.84191 
 H                    -0.98893   0.61674   1.92954 
 C                    -0.74565  -2.17388   0.81798 
 H                    -1.59697  -2.78023   1.13265 
 H                     0.00847  -2.8401    0.37461 
 H                    -0.28156  -1.68463   1.67323 
 C                    -1.84855  -1.76233  -1.45598 
 H                    -1.162    -2.47444  -1.93404 
 H                    -2.74931  -2.30489  -1.1628 
 H                    -2.08448  -0.98962  -2.18659 
 
                    Distance matrix (angstroms):
                    1          2          3          4          5
     1  O    0.000000
     2  C    1.274791   0.000000
     3  C    2.830945   2.250001   0.000000
     4  C    2.949989   2.723756   1.365918   0.000000
     5  C    3.917683   3.508513   2.507154   1.497921   0.000000
     6  Fe   1.931751   2.985874   4.408264   4.625706   5.749137
     7  Cl   3.226993   4.500879   5.511380   5.211566   6.208200
     8  C    3.030303   3.409012   2.490710   1.493807   2.547556
     9  Cl   3.193968   3.765713   5.793138   6.135627   6.987117
    10  Cl   3.372588   4.009697   4.680389   5.299911   6.688954
    11  H    3.512797   2.578344   1.089173   2.096286   2.672768
    12  H    3.885010   4.285508   3.394393   2.158215   2.618253
    13  H    3.539693   3.961299   2.744251   2.162829   3.394525
    14  H    2.268525   3.001136   2.872970   2.116883   3.145138
    15  H    4.859681   4.532403   3.175455   2.123055   1.098743
    16  H    3.883850   3.666900   3.278126   2.157874   1.097460
    17  H    4.275244   3.550754   2.655198   2.170494   1.092612
    18  C    3.199681   2.943973   1.511595   2.520649   3.891115
    19  H    4.106358   3.953579   2.149608   2.824431   4.137755
    20  H    3.738900   3.264372   2.164140   3.417342   4.651752
    21  H    2.694346   2.856493   2.181063   2.886775   4.360365
    22  C    2.397747   1.510476   2.807468   3.790065   4.654608
    23  H    3.302167   2.178578   2.834805   3.958693   4.632393
    24  H    2.766633   2.087807   3.847508   4.698238   5.447693
    25  H    2.631291   2.170271   2.971799   4.053983   5.171725
    26  C    2.366595   1.508155   2.967620   3.059065   3.150842
    27  H    2.778992   2.095126   3.964670   4.126339   4.202297
    28  H    3.271668   2.177037   2.953404   3.199827   3.030607
    29  H    2.555298   2.158935   3.255359   2.860560   2.685891
                    6          7          8          9         10
     6  Fe   0.000000
     7  Cl   2.183398   0.000000
     8  C    4.267971   4.276006   0.000000
     9  Cl   2.193643   3.726056   6.099038   0.000000
    10  Cl   2.197678   3.654221   4.985312   3.640672   0.000000
    11  H    5.168369   6.451147   3.460176   6.256348   5.419311
    12  H    5.098073   4.730480   1.092960   6.877621   5.970225
    13  H    4.441439   4.442394   1.094029   6.457432   4.686688
    14  H    3.323393   3.232660   1.102399   5.148922   4.369920
    15  H    6.604662   6.868134   2.854055   7.988991   7.409969
    16  H    5.672628   5.898605   2.771270   6.782160   6.936958
    17  H    6.185971   6.931753   3.492100   7.178675   7.072270
    18  C    4.180726   5.373101   2.978121   5.791609   3.751462
    19  H    5.001609   5.900583   3.068574   6.771471   4.399150
    20  H    4.572226   6.067332   4.047405   5.913868   3.826510
    21  H    3.271183   4.417374   2.882529   5.068196   2.774804
    22  C    3.409650   5.356565   4.570913   3.814614   3.757337
    23  H    4.488503   6.380196   5.010514   4.823780   4.669618
    24  H    3.422332   5.472406   5.394160   3.162888   3.997992
    25  H    3.153329   5.155116   4.610804   3.874644   2.892289
    26  C    4.139969   5.361158   3.973941   4.477582   5.471274
    27  H    4.214230   5.538803   4.915667   3.994968   5.703385
    28  H    5.074849   6.371377   4.413590   5.399101   6.149387
    29  H    4.348504   5.122061   3.571472   4.877914   5.898389
                   11         12         13         14         15
    11  H    0.000000
    12  H    4.242816   0.000000
    13  H    3.773858   1.782679   0.000000
    14  H    3.865136   1.775291   1.759982   0.000000
    15  H    3.344738   2.621563   3.531860   3.688674   0.000000
    16  H    3.533475   2.612067   3.795846   3.091634   1.754917
    17  H    2.362860   3.695114   4.264962   4.008191   1.773073
    18  C    2.225174   4.008930   2.674040   3.259380   4.387283
    19  H    2.816717   3.961032   2.465748   3.611973   4.364623
    20  H    2.427616   5.078876   3.757935   4.257446   5.190923
    21  H    3.064078   3.959918   2.510029   2.838668   4.924873
    22  C    2.825791   5.552948   4.870604   4.249628   5.620761
    23  H    2.440825   5.953810   5.310772   4.896705   5.546938
    24  H    3.835327   6.333645   5.762163   4.909901   6.474349
    25  H    3.202051   5.671400   4.670158   4.290624   6.042599
    26  C    2.937994   4.577126   4.788895   3.669160   4.248630
    27  H    3.897013   5.508641   5.719698   4.445846   5.296992
    28  H    2.534255   4.987095   5.184987   4.354865   4.064788
    29  H    3.409621   3.951589   4.539453   3.259110   3.746496
                   16         17         18         19         20
    16  H    0.000000
    17  H    1.786007   0.000000
    18  C    4.632712   4.139639   0.000000
    19  H    4.969114   4.489441   1.097026   0.000000
    20  H    5.435399   4.682063   1.091549   1.762503   0.000000
    21  H    4.901980   4.760274   1.092878   1.763850   1.765455
    22  C    5.006793   4.481387   3.007679   4.098102   2.792889
    23  H    5.130314   4.230605   3.193347   4.198245   2.774675
    24  H    5.640299   5.239238   4.061557   5.157134   3.818496
    25  H    5.603953   5.136016   2.600641   3.654802   2.244783
    26  C    3.063006   2.945831   4.116253   5.020928   4.449324
    27  H    3.979916   3.952520   4.960834   5.938119   5.174993
    28  H    3.173485   2.459294   4.234495   5.073845   4.436080
    29  H    2.262565   2.731334   4.501511   5.274387   5.047262
                   21         22         23         24         25
    21  H    0.000000
    22  C    3.013686   0.000000
    23  H    3.541770   1.091516   0.000000
    24  H    3.919490   1.099607   1.776407   0.000000
    25  H    2.421236   1.089126   1.795229   1.762288   0.000000
    26  C    4.226189   2.560595   2.792921   2.821548   3.500493
    27  H    4.951021   2.799517   3.112438   2.614101   3.796230
    28  H    4.604067   2.820512   2.612070   3.202403   3.810193
    29  H    4.552267   3.496046   3.802794   3.790040   4.316451
                   26         27         28         29
    26  C    0.000000
    27  H    1.098634   0.000000
    28  H    1.091653   1.772888   0.000000
    29  H    1.089277   1.766196   1.794456   0.000000
 Framework group  C1[X(C8H16Cl3FeO)]
 Deg. of freedom    81
                         Standard orientation:                         
 ---------------------------------------------------------------------
 Center     Atomic      Atomic             Coordinates (Angstroms)
 Number     Number       Type             X           Y           Z
 ---------------------------------------------------------------------
      1          8           0       -0.291007   -0.241758   -0.527161
      2          6           0       -1.099702   -1.194743   -0.276316
      3          6           0       -2.734005   -0.193672    0.902418
      4          6           0       -3.054035    0.692919   -0.086151
      5          6           0       -4.111959    0.401493   -1.105776
      6         26           0        1.543407    0.182424   -0.095125
      7         17           0        1.861754    2.091611   -1.105514
      8          6           0       -2.321886    1.987280   -0.227734
      9         17           0        2.592402   -1.557512   -0.922351
     10         17           0        1.765089    0.316663    2.087219
     11          1           0       -3.349904   -1.088803    0.977966
     12          1           0       -2.828502    2.675135   -0.909465
     13          1           0       -2.162974    2.485183    0.733379
     14          1           0       -1.321631    1.775974   -0.640193
     15          1           0       -4.935552    1.116670   -0.973670
     16          1           0       -3.739854    0.551619   -2.127255
     17          1           0       -4.522462   -0.607090   -1.016067
     18          6           0       -1.984711    0.222649    2.147470
     19          1           0       -2.539446    1.009858    2.672863
     20          1           0       -1.869596   -0.611605    2.841911
     21          1           0       -0.988931    0.616743    1.929540
     22          6           0       -0.745654   -2.173876    0.817981
     23          1           0       -1.596966   -2.780225    1.132648
     24          1           0        0.008465   -2.840102    0.374605
     25          1           0       -0.281561   -1.684630    1.673231
     26          6           0       -1.848547   -1.762329   -1.455981
     27          1           0       -1.161995   -2.474441   -1.934039
     28          1           0       -2.749311   -2.304892   -1.162797
     29          1           0       -2.084483   -0.989623   -2.186586
 ---------------------------------------------------------------------
 Rotational constants (GHZ):           0.5937609           0.3026464           0.2893241
   427 basis functions,  1056 primitive gaussians,   461 cartesian basis functions
    77 alpha electrons       72 beta electrons
       nuclear repulsion energy      1616.9259682124 Hartrees.
 NAtoms=   29 NActive=   29 NUniq=   29 SFac= 1.00D+00 NAtFMM=   60 NAOKFM=F Big=F
 Nuclear repulsion after empirical dispersion term =     1616.8581902581 Hartrees.
 Initial guess from the checkpoint file:  "checkpoint.chk"
 B after Tr=     0.000000    0.000000    0.000000
         Rot=    1.000000    0.000000    0.000000    0.000000 Ang=   0.00 deg.
 Initial guess <Sx>= 0.0000 <Sy>= 0.0000 <Sz>= 2.5000 <S**2>= 8.7621 S= 2.5020
 SCF Done:  E(UB3LYP) =  -3034.40788735     A.U. after    1 cycles
            NFock=  1  Conv=0.23D-08     -V/T= 2.0024
 <Sx>= 0.0000 <Sy>= 0.0000 <Sz>= 2.5000 <S**2>= 8.7621 S= 2.5020
 <L.S>= 0.000000000000E+00
 Annihilation of the first spin contaminant:
 S**2 before annihilation     8.7621,   after     8.7500
 1\1\GINC-HOLY7C04206\SP\UB3LYP\Jul-CC-pVDZ\C8H16Cl3Fe1O1(6)\EKWAN\11-F
 eb-2020\0\\#t pop=none jul-cc-pvdz guess=read ub3lyp empiricaldispersi
 on=gd3bj\\theory_abbreviation b3lyp_d3bj\\0,6\O,0,-0.291007,-0.241758,
 -0.527161\C,0,-1.099702,-1.194743,-0.276316\C,0,-2.734005,-0.193672,0.
 902418\C,0,-3.054035,0.692919,-0.086151\C,0,-4.111959,0.401493,-1.1057
 76\Fe,0,1.543407,0.182424,-0.095125\Cl,0,1.861754,2.091611,-1.105514\C
 ,0,-2.321886,1.98728,-0.227734\Cl,0,2.592402,-1.557512,-0.922351\Cl,0,
 1.765089,0.316663,2.087219\H,0,-3.349904,-1.088803,0.977966\H,0,-2.828
 502,2.675135,-0.909465\H,0,-2.162974,2.485183,0.733379\H,0,-1.321631,1
 .775974,-0.640193\H,0,-4.935552,1.11667,-0.97367\H,0,-3.739854,0.55161
 9,-2.127255\H,0,-4.522462,-0.60709,-1.016067\C,0,-1.984711,0.222649,2.
 14747\H,0,-2.539446,1.009858,2.672863\H,0,-1.869596,-0.611605,2.841911
 \H,0,-0.988931,0.616743,1.92954\C,0,-0.745654,-2.173876,0.817981\H,0,-
 1.596966,-2.780225,1.132648\H,0,0.008465,-2.840102,0.374605\H,0,-0.281
 561,-1.68463,1.673231\C,0,-1.848547,-1.762329,-1.455981\H,0,-1.161995,
 -2.474441,-1.934039\H,0,-2.749311,-2.304892,-1.162797\H,0,-2.084483,-0
 .989623,-2.186586\\Version=ES64L-G16RevA.03\HF=-3034.4078874\S2=8.7621
 24\S2-1=0.\S2A=8.750045\RMSD=2.295e-09\PG=C01 [X(C8H16Cl3Fe1O1)]\\@


 IT IS DOUBTED WHETHER A MAN EVER BRINGS HIS FACULTIES TO BEAR WITH THEIR FULL FORCE
 ON A SUBJECT UNTIL HE WRITES UPON IT.

                          -- CICERO
 Job cpu time:       0 days  0 hours  4 minutes 30.8 seconds.
 Elapsed time:       0 days  0 hours  1 minutes  8.2 seconds.
 File lengths (MBytes):  RWF=    170 Int=      0 D2E=      0 Chk=     13 Scr=      1
 Normal termination of Gaussian 16 at Tue Feb 11 14:17:32 2020.
 Initial command:
 /n/sw/g16_nehalem/g16/l1.exe "/scratch/Gau-251986.inp" -scrdir="/scratch/"
 Entering Link 1 = /n/sw/g16_nehalem/g16/l1.exe PID=    256012.
  
 Copyright (c) 1988,1990,1992,1993,1995,1998,2003,2009,2016,
            Gaussian, Inc.  All Rights Reserved.
  
 This is part of the Gaussian(R) 16 program.  It is based on
 the Gaussian(R) 09 system (copyright 2009, Gaussian, Inc.),
 the Gaussian(R) 03 system (copyright 2003, Gaussian, Inc.),
 the Gaussian(R) 98 system (copyright 1998, Gaussian, Inc.),
 the Gaussian(R) 94 system (copyright 1995, Gaussian, Inc.),
 the Gaussian 92(TM) system (copyright 1992, Gaussian, Inc.),
 the Gaussian 90(TM) system (copyright 1990, Gaussian, Inc.),
 the Gaussian 88(TM) system (copyright 1988, Gaussian, Inc.),
 the Gaussian 86(TM) system (copyright 1986, Carnegie Mellon
 University), and the Gaussian 82(TM) system (copyright 1983,
 Carnegie Mellon University). Gaussian is a federally registered
 trademark of Gaussian, Inc.
  
 This software contains proprietary and confidential information,
 including trade secrets, belonging to Gaussian, Inc.
  
 This software is provided under written license and may be
 used, copied, transmitted, or stored only in accord with that
 written license.
  
 The following legend is applicable only to US Government
 contracts under FAR:
  
                    RESTRICTED RIGHTS LEGEND
  
 Use, reproduction and disclosure by the US Government is
 subject to restrictions as set forth in subparagraphs (a)
 and (c) of the Commercial Computer Software - Restricted
 Rights clause in FAR 52.227-19.
  
 Gaussian, Inc.
 340 Quinnipiac St., Bldg. 40, Wallingford CT 06492
  
  
 ---------------------------------------------------------------
 Warning -- This program may not be used in any manner that
 competes with the business of Gaussian, Inc. or will provide
 assistance to any competitor of Gaussian, Inc.  The licensee
 of this program is prohibited from giving any competitor of
 Gaussian, Inc. access to this program.  By using this program,
 the user acknowledges that Gaussian, Inc. is engaged in the
 business of creating and licensing software in the field of
 computational chemistry and represents and warrants to the
 licensee that it is not a competitor of Gaussian, Inc. and that
 it will not use this program in any manner prohibited above.
 ---------------------------------------------------------------
  

 Cite this work as:
 Gaussian 16, Revision A.03,
 M. J. Frisch, G. W. Trucks, H. B. Schlegel, G. E. Scuseria, 
 M. A. Robb, J. R. Cheeseman, G. Scalmani, V. Barone, 
 G. A. Petersson, H. Nakatsuji, X. Li, M. Caricato, A. V. Marenich, 
 J. Bloino, B. G. Janesko, R. Gomperts, B. Mennucci, H. P. Hratchian, 
 J. V. Ortiz, A. F. Izmaylov, J. L. Sonnenberg, D. Williams-Young, 
 F. Ding, F. Lipparini, F. Egidi, J. Goings, B. Peng, A. Petrone, 
 T. Henderson, D. Ranasinghe, V. G. Zakrzewski, J. Gao, N. Rega, 
 G. Zheng, W. Liang, M. Hada, M. Ehara, K. Toyota, R. Fukuda, 
 J. Hasegawa, M. Ishida, T. Nakajima, Y. Honda, O. Kitao, H. Nakai, 
 T. Vreven, K. Throssell, J. A. Montgomery, Jr., J. E. Peralta, 
 F. Ogliaro, M. J. Bearpark, J. J. Heyd, E. N. Brothers, K. N. Kudin, 
 V. N. Staroverov, T. A. Keith, R. Kobayashi, J. Normand, 
 K. Raghavachari, A. P. Rendell, J. C. Burant, S. S. Iyengar, 
 J. Tomasi, M. Cossi, J. M. Millam, M. Klene, C. Adamo, R. Cammi, 
 J. W. Ochterski, R. L. Martin, K. Morokuma, O. Farkas, 
 J. B. Foresman, and D. J. Fox, Gaussian, Inc., Wallingford CT, 2016.
 
 ******************************************
 Gaussian 16:  ES64L-G16RevA.03 25-Dec-2016
                11-Feb-2020 
 ******************************************
 %chk=checkpoint.chk
 %mem=3GB
 %nprocshared=4
 Will use up to    4 processors via shared memory.
 ----------------------------------------
 #t pop=none jul-cc-pvdz guess=read ub97d
 ----------------------------------------
 ------------------------
 theory_abbreviation b97d
 ------------------------
 Symbolic Z-matrix:
 Charge =  0 Multiplicity = 6
 O                    -0.29101  -0.24176  -0.52716 
 C                    -1.0997   -1.19474  -0.27632 
 C                    -2.73401  -0.19367   0.90242 
 C                    -3.05403   0.69292  -0.08615 
 C                    -4.11196   0.40149  -1.10578 
 Fe                    1.54341   0.18242  -0.09513 
 Cl                    1.86175   2.09161  -1.10551 
 C                    -2.32189   1.98728  -0.22773 
 Cl                    2.5924   -1.55751  -0.92235 
 Cl                    1.76509   0.31666   2.08722 
 H                    -3.3499   -1.0888    0.97797 
 H                    -2.8285    2.67514  -0.90947 
 H                    -2.16297   2.48518   0.73338 
 H                    -1.32163   1.77597  -0.64019 
 H                    -4.93555   1.11667  -0.97367 
 H                    -3.73985   0.55162  -2.12725 
 H                    -4.52246  -0.60709  -1.01607 
 C                    -1.98471   0.22265   2.14747 
 H                    -2.53945   1.00986   2.67286 
 H                    -1.8696   -0.61161   2.84191 
 H                    -0.98893   0.61674   1.92954 
 C                    -0.74565  -2.17388   0.81798 
 H                    -1.59697  -2.78023   1.13265 
 H                     0.00847  -2.8401    0.37461 
 H                    -0.28156  -1.68463   1.67323 
 C                    -1.84855  -1.76233  -1.45598 
 H                    -1.162    -2.47444  -1.93404 
 H                    -2.74931  -2.30489  -1.1628 
 H                    -2.08448  -0.98962  -2.18659 
 
                    Distance matrix (angstroms):
                    1          2          3          4          5
     1  O    0.000000
     2  C    1.274791   0.000000
     3  C    2.830945   2.250001   0.000000
     4  C    2.949989   2.723756   1.365918   0.000000
     5  C    3.917683   3.508513   2.507154   1.497921   0.000000
     6  Fe   1.931751   2.985874   4.408264   4.625706   5.749137
     7  Cl   3.226993   4.500879   5.511380   5.211566   6.208200
     8  C    3.030303   3.409012   2.490710   1.493807   2.547556
     9  Cl   3.193968   3.765713   5.793138   6.135627   6.987117
    10  Cl   3.372588   4.009697   4.680389   5.299911   6.688954
    11  H    3.512797   2.578344   1.089173   2.096286   2.672768
    12  H    3.885010   4.285508   3.394393   2.158215   2.618253
    13  H    3.539693   3.961299   2.744251   2.162829   3.394525
    14  H    2.268525   3.001136   2.872970   2.116883   3.145138
    15  H    4.859681   4.532403   3.175455   2.123055   1.098743
    16  H    3.883850   3.666900   3.278126   2.157874   1.097460
    17  H    4.275244   3.550754   2.655198   2.170494   1.092612
    18  C    3.199681   2.943973   1.511595   2.520649   3.891115
    19  H    4.106358   3.953579   2.149608   2.824431   4.137755
    20  H    3.738900   3.264372   2.164140   3.417342   4.651752
    21  H    2.694346   2.856493   2.181063   2.886775   4.360365
    22  C    2.397747   1.510476   2.807468   3.790065   4.654608
    23  H    3.302167   2.178578   2.834805   3.958693   4.632393
    24  H    2.766633   2.087807   3.847508   4.698238   5.447693
    25  H    2.631291   2.170271   2.971799   4.053983   5.171725
    26  C    2.366595   1.508155   2.967620   3.059065   3.150842
    27  H    2.778992   2.095126   3.964670   4.126339   4.202297
    28  H    3.271668   2.177037   2.953404   3.199827   3.030607
    29  H    2.555298   2.158935   3.255359   2.860560   2.685891
                    6          7          8          9         10
     6  Fe   0.000000
     7  Cl   2.183398   0.000000
     8  C    4.267971   4.276006   0.000000
     9  Cl   2.193643   3.726056   6.099038   0.000000
    10  Cl   2.197678   3.654221   4.985312   3.640672   0.000000
    11  H    5.168369   6.451147   3.460176   6.256348   5.419311
    12  H    5.098073   4.730480   1.092960   6.877621   5.970225
    13  H    4.441439   4.442394   1.094029   6.457432   4.686688
    14  H    3.323393   3.232660   1.102399   5.148922   4.369920
    15  H    6.604662   6.868134   2.854055   7.988991   7.409969
    16  H    5.672628   5.898605   2.771270   6.782160   6.936958
    17  H    6.185971   6.931753   3.492100   7.178675   7.072270
    18  C    4.180726   5.373101   2.978121   5.791609   3.751462
    19  H    5.001609   5.900583   3.068574   6.771471   4.399150
    20  H    4.572226   6.067332   4.047405   5.913868   3.826510
    21  H    3.271183   4.417374   2.882529   5.068196   2.774804
    22  C    3.409650   5.356565   4.570913   3.814614   3.757337
    23  H    4.488503   6.380196   5.010514   4.823780   4.669618
    24  H    3.422332   5.472406   5.394160   3.162888   3.997992
    25  H    3.153329   5.155116   4.610804   3.874644   2.892289
    26  C    4.139969   5.361158   3.973941   4.477582   5.471274
    27  H    4.214230   5.538803   4.915667   3.994968   5.703385
    28  H    5.074849   6.371377   4.413590   5.399101   6.149387
    29  H    4.348504   5.122061   3.571472   4.877914   5.898389
                   11         12         13         14         15
    11  H    0.000000
    12  H    4.242816   0.000000
    13  H    3.773858   1.782679   0.000000
    14  H    3.865136   1.775291   1.759982   0.000000
    15  H    3.344738   2.621563   3.531860   3.688674   0.000000
    16  H    3.533475   2.612067   3.795846   3.091634   1.754917
    17  H    2.362860   3.695114   4.264962   4.008191   1.773073
    18  C    2.225174   4.008930   2.674040   3.259380   4.387283
    19  H    2.816717   3.961032   2.465748   3.611973   4.364623
    20  H    2.427616   5.078876   3.757935   4.257446   5.190923
    21  H    3.064078   3.959918   2.510029   2.838668   4.924873
    22  C    2.825791   5.552948   4.870604   4.249628   5.620761
    23  H    2.440825   5.953810   5.310772   4.896705   5.546938
    24  H    3.835327   6.333645   5.762163   4.909901   6.474349
    25  H    3.202051   5.671400   4.670158   4.290624   6.042599
    26  C    2.937994   4.577126   4.788895   3.669160   4.248630
    27  H    3.897013   5.508641   5.719698   4.445846   5.296992
    28  H    2.534255   4.987095   5.184987   4.354865   4.064788
    29  H    3.409621   3.951589   4.539453   3.259110   3.746496
                   16         17         18         19         20
    16  H    0.000000
    17  H    1.786007   0.000000
    18  C    4.632712   4.139639   0.000000
    19  H    4.969114   4.489441   1.097026   0.000000
    20  H    5.435399   4.682063   1.091549   1.762503   0.000000
    21  H    4.901980   4.760274   1.092878   1.763850   1.765455
    22  C    5.006793   4.481387   3.007679   4.098102   2.792889
    23  H    5.130314   4.230605   3.193347   4.198245   2.774675
    24  H    5.640299   5.239238   4.061557   5.157134   3.818496
    25  H    5.603953   5.136016   2.600641   3.654802   2.244783
[...]
   427 basis functions,  1056 primitive gaussians,   461 cartesian basis functions
    77 alpha electrons       72 beta electrons
       nuclear repulsion energy      1616.9259682124 Hartrees.
 NAtoms=   29 NActive=   29 NUniq=   29 SFac= 1.00D+00 NAtFMM=   60 NAOKFM=F Big=F
 Nuclear repulsion after empirical dispersion term =     1616.9234873435 Hartrees.
 Initial guess from the checkpoint file:  "checkpoint.chk"
 B after Tr=     0.000000    0.000000    0.000000
         Rot=    1.000000    0.000000    0.000000    0.000000 Ang=   0.00 deg.
 Initial guess <Sx>= 0.0000 <Sy>= 0.0000 <Sz>= 2.5000 <S**2>= 8.7618 S= 2.5020
 SCF Done:  E(UM06L) =  -3034.20533401     A.U. after   17 cycles
            NFock= 17  Conv=0.80D-08     -V/T= 2.0020
 <Sx>= 0.0000 <Sy>= 0.0000 <Sz>= 2.5000 <S**2>= 8.7618 S= 2.5020
 <L.S>= 0.000000000000E+00
 Annihilation of the first spin contaminant:
 S**2 before annihilation     8.7618,   after     8.7500
 1\1\GINC-HOLY7C04206\SP\UM06L\Jul-CC-pVDZ\C8H16Cl3Fe1O1(6)\EKWAN\11-Fe
 b-2020\0\\#t pop=none jul-cc-pvdz guess=read um06l empiricaldispersion
 =gd3\\theory_abbreviation m06l_d3\\0,6\O,0,-0.291007,-0.241758,-0.5271
 61\C,0,-1.099702,-1.194743,-0.276316\C,0,-2.734005,-0.193672,0.902418\
 C,0,-3.054035,0.692919,-0.086151\C,0,-4.111959,0.401493,-1.105776\Fe,0
 ,1.543407,0.182424,-0.095125\Cl,0,1.861754,2.091611,-1.105514\C,0,-2.3
 21886,1.98728,-0.227734\Cl,0,2.592402,-1.557512,-0.922351\Cl,0,1.76508
 9,0.316663,2.087219\H,0,-3.349904,-1.088803,0.977966\H,0,-2.828502,2.6
 75135,-0.909465\H,0,-2.162974,2.485183,0.733379\H,0,-1.321631,1.775974
 ,-0.640193\H,0,-4.935552,1.11667,-0.97367\H,0,-3.739854,0.551619,-2.12
 7255\H,0,-4.522462,-0.60709,-1.016067\C,0,-1.984711,0.222649,2.14747\H
 ,0,-2.539446,1.009858,2.672863\H,0,-1.869596,-0.611605,2.841911\H,0,-0
 .988931,0.616743,1.92954\C,0,-0.745654,-2.173876,0.817981\H,0,-1.59696
 6,-2.780225,1.132648\H,0,0.008465,-2.840102,0.374605\H,0,-0.281561,-1.
 68463,1.673231\C,0,-1.848547,-1.762329,-1.455981\H,0,-1.161995,-2.4744
 41,-1.934039\H,0,-2.749311,-2.304892,-1.162797\H,0,-2.084483,-0.989623
 ,-2.186586\\Version=ES64L-G16RevA.03\HF=-3034.205334\S2=8.761764\S2-1=
 0.\S2A=8.750044\RMSD=7.991e-09\PG=C01 [X(C8H16Cl3Fe1O1)]\\@


 WHERE THERE IS MUCH DESIRE TO LEARN, THERE OF NECESSITY WILL BE
 MUCH ARGUING, MUCH WRITING, MANY OPINIONS; FOR OPINION IN GOOD MEN
 IS BUT KNOWLEDGE IN THE MAKING. -- JOHN MILTON.
 Job cpu time:       0 days  1 hours 14 minutes  9.3 seconds.
 Elapsed time:       0 days  0 hours 18 minutes 36.0 seconds.
 File lengths (MBytes):  RWF=    174 Int=      0 D2E=      0 Chk=     13 Scr=      1
 Normal termination of Gaussian 16 at Tue Feb 11 23:32:42 2020.
 Initial command:
 /n/sw/g16_nehalem/g16/l1.exe "/scratch/Gau-251986.inp" -scrdir="/scratch/"
 Entering Link 1 = /n/sw/g16_nehalem/g16/l1.exe PID=    308330.
  
 Copyright (c) 1988,1990,1992,1993,1995,1998,2003,2009,2016,
            Gaussian, Inc.  All Rights Reserved.
  
 This is part of the Gaussian(R) 16 program.  It is based on
 the Gaussian(R) 09 system (copyright 2009, Gaussian, Inc.),
 the Gaussian(R) 03 system (copyright 2003, Gaussian, Inc.),
 the Gaussian(R) 98 system (copyright 1998, Gaussian, Inc.),
 the Gaussian(R) 94 system (copyright 1995, Gaussian, Inc.),
 the Gaussian 92(TM) system (copyright 1992, Gaussian, Inc.),
 the Gaussian 90(TM) system (copyright 1990, Gaussian, Inc.),
 the Gaussian 88(TM) system (copyright 1988, Gaussian, Inc.),
 the Gaussian 86(TM) system (copyright 1986, Carnegie Mellon
 University), and the Gaussian 82(TM) system (copyright 1983,
 Carnegie Mellon University). Gaussian is a federally registered
 trademark of Gaussian, Inc.
  
 This software contains proprietary and confidential information,
 including trade secrets, belonging to Gaussian, Inc.
  
 This software is provided under written license and may be
 used, copied, transmitted, or stored only in accord with that
 written license.
  
 The following legend is applicable only to US Government
 contracts under FAR:
  
                    RESTRICTED RIGHTS LEGEND
  
 Use, reproduction and disclosure by the US Government is
 subject to restrictions as set forth in subparagraphs (a)
 and (c) of the Commercial Computer Software - Restricted
 Rights clause in FAR 52.227-19.
  
 Gaussian, Inc.
 340 Quinnipiac St., Bldg. 40, Wallingford CT 06492
  
  
 ---------------------------------------------------------------
 Warning -- This program may not be used in any manner that
 competes with the business of Gaussian, Inc. or will provide
 assistance to any competitor of Gaussian, Inc.  The licensee
 of this program is prohibited from giving any competitor of
 Gaussian, Inc. access to this program.  By using this program,
 the user acknowledges that Gaussian, Inc. is engaged in the
 business of creating and licensing software in the field of
 computational chemistry and represents and warrants to the
 licensee that it is not a competitor of Gaussian, Inc. and that
 it will not use this program in any manner prohibited above.
 ---------------------------------------------------------------
  

 Cite this work as:
 Gaussian 16, Revision A.03,
 M. J. Frisch, G. W. Trucks, H. B. Schlegel, G. E. Scuseria, 
 M. A. Robb, J. R. Cheeseman, G. Scalmani, V. Barone, 
 G. A. Petersson, H. Nakatsuji, X. Li, M. Caricato, A. V. Marenich, 
 J. Bloino, B. G. Janesko, R. Gomperts, B. Mennucci, H. P. Hratchian, 
 J. V. Ortiz, A. F. Izmaylov, J. L. Sonnenberg, D. Williams-Young, 
 F. Ding, F. Lipparini, F. Egidi, J. Goings, B. Peng, A. Petrone, 
 T. Henderson, D. Ranasinghe, V. G. Zakrzewski, J. Gao, N. Rega, 
 G. Zheng, W. Liang, M. Hada, M. Ehara, K. Toyota, R. Fukuda, 
 J. Hasegawa, M. Ishida, T. Nakajima, Y. Honda, O. Kitao, H. Nakai, 
 T. Vreven, K. Throssell, J. A. Montgomery, Jr., J. E. Peralta, 
 F. Ogliaro, M. J. Bearpark, J. J. Heyd, E. N. Brothers, K. N. Kudin, 
 V. N. Staroverov, T. A. Keith, R. Kobayashi, J. Normand, 
 K. Raghavachari, A. P. Rendell, J. C. Burant, S. S. Iyengar, 
 J. Tomasi, M. Cossi, J. M. Millam, M. Klene, C. Adamo, R. Cammi, 
 J. W. Ochterski, R. L. Martin, K. Morokuma, O. Farkas, 
 J. B. Foresman, and D. J. Fox, Gaussian, Inc., Wallingford CT, 2016.
 
 ******************************************
 Gaussian 16:  ES64L-G16RevA.03 25-Dec-2016
                11-Feb-2020 
 ******************************************
 %chk=checkpoint.chk
 %mem=3GB
 %nprocshared=4
 Will use up to    4 processors via shared memory.
 -------------------------------------------------------------------
 #t pop=none jul-cc-pvdz guess=read ub97d3 empiricaldispersion=gd3bj
 -------------------------------------------------------------------
 ------------------------------
 theory_abbreviation b97d3_d3bj
 ------------------------------
 Symbolic Z-matrix:
 Charge =  0 Multiplicity = 6
 O                    -0.29101  -0.24176  -0.52716 
 C                    -1.0997   -1.19474  -0.27632 
 C                    -2.73401  -0.19367   0.90242 
 C                    -3.05403   0.69292  -0.08615 
 C                    -4.11196   0.40149  -1.10578 
 Fe                    1.54341   0.18242  -0.09513 
 Cl                    1.86175   2.09161  -1.10551 
 C                    -2.32189   1.98728  -0.22773 
 Cl                    2.5924   -1.55751  -0.92235 
 Cl                    1.76509   0.31666   2.08722 
 H                    -3.3499   -1.0888    0.97797 
 H                    -2.8285    2.67514  -0.90947 
 H                    -2.16297   2.48518   0.73338 
 H                    -1.32163   1.77597  -0.64019 
 H                    -4.93555   1.11667  -0.97367 
 H                    -3.73985   0.55162  -2.12725 
 H                    -4.52246  -0.60709  -1.01607 
 C                    -1.98471   0.22265   2.14747 
 H                    -2.53945   1.00986   2.67286 
 H                    -1.8696   -0.61161   2.84191 
 H                    -0.98893   0.61674   1.92954 
 C                    -0.74565  -2.17388   0.81798 
 H                    -1.59697  -2.78023   1.13265 
 H                     0.00847  -2.8401    0.37461 
 H                    -0.28156  -1.68463   1.67323 
 C                    -1.84855  -1.76233  -1.45598 
 H                    -1.162    -2.47444  -1.93404 
 H                    -2.74931  -2.30489  -1.1628 
 H                    -2.08448  -0.98962  -2.18659 
 
                    Distance matrix (angstroms):
                    1          2          3          4          5
     1  O    0.000000
     2  C    1.274791   0.000000
     3  C    2.830945   2.250001   0.000000
     4  C    2.949989   2.723756   1.365918   0.000000
     5  C    3.917683   3.508513   2.507154   1.497921   0.000000
     6  Fe   1.931751   2.985874   4.408264   4.625706   5.749137
     7  Cl   3.226993   4.500879   5.511380   5.211566   6.208200
     8  C    3.030303   3.409012   2.490710   1.493807   2.547556
     9  Cl   3.193968   3.765713   5.793138   6.135627   6.987117
    10  Cl   3.372588   4.009697   4.680389   5.299911   6.688954
    11  H    3.512797   2.578344   1.089173   2.096286   2.672768
    12  H    3.885010   4.285508   3.394393   2.158215   2.618253
    13  H    3.539693   3.961299   2.744251   2.162829   3.394525
    14  H    2.268525   3.001136   2.872970   2.116883   3.145138
    15  H    4.859681   4.532403   3.175455   2.123055   1.098743
    16  H    3.883850   3.666900   3.278126   2.157874   1.097460
    17  H    4.275244   3.550754   2.655198   2.170494   1.092612
    18  C    3.199681   2.943973   1.511595   2.520649   3.891115
    19  H    4.106358   3.953579   2.149608   2.824431   4.137755
    20  H    3.738900   3.264372   2.164140   3.417342   4.651752
    21  H    2.694346   2.856493   2.181063   2.886775   4.360365
    22  C    2.397747   1.510476   2.807468   3.790065   4.654608
    23  H    3.302167   2.178578   2.834805   3.958693   4.632393
    24  H    2.766633   2.087807   3.847508   4.698238   5.447693
    25  H    2.631291   2.170271   2.971799   4.053983   5.171725
    26  C    2.366595   1.508155   2.967620   3.059065   3.150842
    27  H    2.778992   2.095126   3.964670   4.126339   4.202297
    28  H    3.271668   2.177037   2.953404   3.199827   3.030607
    29  H    2.555298   2.158935   3.255359   2.860560   2.685891
                    6          7          8          9         10
     6  Fe   0.000000
     7  Cl   2.183398   0.000000
     8  C    4.267971   4.276006   0.000000
     9  Cl   2.193643   3.726056   6.099038   0.000000
    10  Cl   2.197678   3.654221   4.985312   3.640672   0.000000
    11  H    5.168369   6.451147   3.460176   6.256348   5.419311
    12  H    5.098073   4.730480   1.092960   6.877621   5.970225
    13  H    4.441439   4.442394   1.094029   6.457432   4.686688
    14  H    3.323393   3.232660   1.102399   5.148922   4.369920
    15  H    6.604662   6.868134   2.854055   7.988991   7.409969
    16  H    5.672628   5.898605   2.771270   6.782160   6.936958
    17  H    6.185971   6.931753   3.492100   7.178675   7.072270
    18  C    4.180726   5.373101   2.978121   5.791609   3.751462
    19  H    5.001609   5.900583   3.068574   6.771471   4.399150
    20  H    4.572226   6.067332   4.047405   5.913868   3.826510
    21  H    3.271183   4.417374   2.882529   5.068196   2.774804
    22  C    3.409650   5.356565   4.570913   3.814614   3.757337
    23  H    4.488503   6.380196   5.010514   4.823780   4.669618
    24  H    3.422332   5.472406   5.394160   3.162888   3.997992
    25  H    3.153329   5.155116   4.610804   3.874644   2.892289
    26  C    4.139969   5.361158   3.973941   4.477582   5.471274
    27  H    4.214230   5.538803   4.915667   3.994968   5.703385
    28  H    5.074849   6.371377   4.413590   5.399101   6.149387
    29  H    4.348504   5.122061   3.571472   4.877914   5.898389
                   11         12         13         14         15
    11  H    0.000000
    12  H    4.242816   0.000000
    13  H    3.773858   1.782679   0.000000
    14  H    3.865136   1.775291   1.759982   0.000000
    15  H    3.344738   2.621563   3.531860   3.688674   0.000000
    16  H    3.533475   2.612067   3.795846   3.091634   1.754917
    17  H    2.362860   3.695114   4.264962   4.008191   1.773073
    18  C    2.225174   4.008930   2.674040   3.259380   4.387283
    19  H    2.816717   3.961032   2.465748   3.611973   4.364623
    20  H    2.427616   5.078876   3.757935   4.257446   5.190923
    21  H    3.064078   3.959918   2.510029   2.838668   4.924873
    22  C    2.825791   5.552948   4.870604   4.249628   5.620761
    23  H    2.440825   5.953810   5.310772   4.896705   5.546938
    24  H    3.835327   6.333645   5.762163   4.909901   6.474349
    25  H    3.202051   5.671400   4.670158   4.290624   6.042599
    26  C    2.937994   4.577126   4.788895   3.669160   4.248630
    27  H    3.897013   5.508641   5.719698   4.445846   5.296992
    28  H    2.534255   4.987095   5.184987   4.354865   4.064788
    29  H    3.409621   3.951589   4.539453   3.259110   3.746496
                   16         17         18         19         20
    16  H    0.000000
    17  H    1.786007   0.000000
    18  C    4.632712   4.139639   0.000000
    19  H    4.969114   4.489441   1.097026   0.000000
    20  H    5.435399   4.682063   1.091549   1.762503   0.000000
    21  H    4.901980   4.760274   1.092878   1.763850   1.765455
    22  C    5.006793   4.481387   3.007679   4.098102   2.792889
    23  H    5.130314   4.230605   3.193347   4.198245   2.774675
    24  H    5.640299   5.239238   4.061557   5.157134   3.818496
    25  H    5.603953   5.136016   2.600641   3.654802   2.244783
    26  C    3.063006   2.945831   4.116253   5.020928   4.449324
    27  H    3.979916   3.952520   4.960834   5.938119   5.174993
    28  H    3.173485   2.459294   4.234495   5.073845   4.436080
    29  H    2.262565   2.731334   4.501511   5.274387   5.047262
                   21         22         23         24         25
    21  H    0.000000
    22  C    3.013686   0.000000
    23  H    3.541770   1.091516   0.000000
    24  H    3.919490   1.099607   1.776407   0.000000
    25  H    2.421236   1.089126   1.795229   1.762288   0.000000
    26  C    4.226189   2.560595   2.792921   2.821548   3.500493
    27  H    4.951021   2.799517   3.112438   2.614101   3.796230
    28  H    4.604067   2.820512   2.612070   3.202403   3.810193
    29  H    4.552267   3.496046   3.802794   3.790040   4.316451
                   26         27         28         29
    26  C    0.000000
    27  H    1.098634   0.000000
    28  H    1.091653   1.772888   0.000000
    29  H    1.089277   1.766196   1.794456   0.000000
 Framework group  C1[X(C8H16Cl3FeO)]
 Deg. of freedom    81
                         Standard orientation:                         
 ---------------------------------------------------------------------
 Center     Atomic      Atomic             Coordinates (Angstroms)
 Number     Number       Type             X           Y           Z
 ---------------------------------------------------------------------
      1          8           0       -0.291007   -0.241758   -0.527161
      2          6           0       -1.099702   -1.194743   -0.276316
      3          6           0       -2.734005   -0.193672    0.902418
      4          6           0       -3.054035    0.692919   -0.086151
      5          6           0       -4.111959    0.401493   -1.105776
      6         26           0        1.543407    0.182424   -0.095125
      7         17           0        1.861754    2.091611   -1.105514
      8          6           0       -2.321886    1.987280   -0.227734
      9         17           0        2.592402   -1.557512   -0.922351
     10         17           0        1.765089    0.316663    2.087219
     11          1           0       -3.349904   -1.088803    0.977966
     12          1           0       -2.828502    2.675135   -0.909465
     13          1           0       -2.162974    2.485183    0.733379
     14          1           0       -1.321631    1.775974   -0.640193
     15          1           0       -4.935552    1.116670   -0.973670
     16          1           0       -3.739854    0.551619   -2.127255
     17          1           0       -4.522462   -0.607090   -1.016067
     18          6           0       -1.984711    0.222649    2.147470
     19          1           0       -2.539446    1.009858    2.672863
     20          1           0       -1.869596   -0.611605    2.841911
     21          1           0       -0.988931    0.616743    1.929540
     22          6           0       -0.745654   -2.173876    0.817981
     23          1           0       -1.596966   -2.780225    1.132648
     24          1           0        0.008465   -2.840102    0.374605
     25          1           0       -0.281561   -1.684630    1.673231
     26          6           0       -1.848547   -1.762329   -1.455981
     27          1           0       -1.161995   -2.474441   -1.934039
     28          1           0       -2.749311   -2.304892   -1.162797
     29          1           0       -2.084483   -0.989623   -2.186586
 ---------------------------------------------------------------------
 Rotational constants (GHZ):           0.5937609           0.3026464           0.2893241
   427 basis functions,  1056 primitive gaussians,   461 cartesian basis functions
    77 alpha electrons       72 beta electrons
       nuclear repulsion energy      1616.9259682124 Hartrees.
 NAtoms=   29 NActive=   29 NUniq=   29 SFac= 1.00D+00 NAtFMM=   60 NAOKFM=F Big=F
 Nuclear repulsion after empirical dispersion term =     1616.8259152856 Hartrees.
 Initial guess from the checkpoint file:  "checkpoint.chk"
 B after Tr=     0.000000    0.000000    0.000000
         Rot=    1.000000    0.000000    0.000000    0.000000 Ang=   0.00 deg.
 Initial guess <Sx>= 0.0000 <Sy>= 0.0000 <Sz>= 2.5000 <S**2>= 8.7618 S= 2.5020
 EnCoef did     2 forward-backward iterations
 SCF Done:  E(UB97D3) =  -3034.62894216     A.U. after   15 cycles
            NFock= 15  Conv=0.49D-08     -V/T= 2.0019
 <Sx>= 0.0000 <Sy>= 0.0000 <Sz>= 2.5000 <S**2>= 8.7599 S= 2.5017
 <L.S>= 0.000000000000E+00
 Annihilation of the first spin contaminant:
 S**2 before annihilation     8.7599,   after     8.7500
 1\1\GINC-HOLY7C04206\SP\UB97D3\Jul-CC-pVDZ\C8H16Cl3Fe1O1(6)\EKWAN\11-F
 eb-2020\0\\#t pop=none jul-cc-pvdz guess=read ub97d3 empiricaldispersi
 on=gd3bj\\theory_abbreviation b97d3_d3bj\\0,6\O,0,-0.291007,-0.241758,
 -0.527161\C,0,-1.099702,-1.194743,-0.276316\C,0,-2.734005,-0.193672,0.
 902418\C,0,-3.054035,0.692919,-0.086151\C,0,-4.111959,0.401493,-1.1057
 76\Fe,0,1.543407,0.182424,-0.095125\Cl,0,1.861754,2.091611,-1.105514\C
 ,0,-2.321886,1.98728,-0.227734\Cl,0,2.592402,-1.557512,-0.922351\Cl,0,
 1.765089,0.316663,2.087219\H,0,-3.349904,-1.088803,0.977966\H,0,-2.828
 502,2.675135,-0.909465\H,0,-2.162974,2.485183,0.733379\H,0,-1.321631,1
 .775974,-0.640193\H,0,-4.935552,1.11667,-0.97367\H,0,-3.739854,0.55161
 9,-2.127255\H,0,-4.522462,-0.60709,-1.016067\C,0,-1.984711,0.222649,2.
 14747\H,0,-2.539446,1.009858,2.672863\H,0,-1.869596,-0.611605,2.841911
 \H,0,-0.988931,0.616743,1.92954\C,0,-0.745654,-2.173876,0.817981\H,0,-
 1.596966,-2.780225,1.132648\H,0,0.008465,-2.840102,0.374605\H,0,-0.281
 561,-1.68463,1.673231\C,0,-1.848547,-1.762329,-1.455981\H,0,-1.161995,
 -2.474441,-1.934039\H,0,-2.749311,-2.304892,-1.162797\H,0,-2.084483,-0
 .989623,-2.186586\\Version=ES64L-G16RevA.03\HF=-3034.6289422\S2=8.7599
 25\S2-1=0.\S2A=8.750031\RMSD=4.914e-09\PG=C01 [X(C8H16Cl3Fe1O1)]\\@


 A SCIENTIST IS SOMEONE WHOSE CURIOSITY SURVIVES
 EDUCATION'S ASSAULTS ON IT.
                          - SIR HERMANN BONDI
 Job cpu time:       0 days  0 hours 46 minutes 52.6 seconds.
 Elapsed time:       0 days  0 hours 11 minutes 45.5 seconds.
 File lengths (MBytes):  RWF=    174 Int=      0 D2E=      0 Chk=     13 Scr=      1
 Normal termination of Gaussian 16 at Tue Feb 11 23:44:28 2020.
