 Entering Gaussian System, Link 0=g16
 Input=simple-grid-160-290-b3lyp_d3bj-631gd-gas-singlepoint-DFT-juldz2-gas.gjf
 Output=simple-grid-160-290-b3lyp_d3bj-631gd-gas-singlepoint-DFT-juldz2-gas.out
 Initial command:
 /n/sw/g16_nehalem/g16/l1.exe "/scratch/Gau-377090.inp" -scrdir="/scratch/"
 Entering Link 1 = /n/sw/g16_nehalem/g16/l1.exe PID=    377096.
  
 Copyright (c) 1988,1990,1992,1993,1995,1998,2003,2009,2016,
            Gaussian, Inc.  All Rights Reserved.
  
 This is part of the Gaussian(R) 16 program.  It is based on
 the Gaussian(R) 09 system (copyright 2009, Gaussian, Inc.),
 the Gaussian(R) 03 system (copyright 2003, Gaussian, Inc.),
 the Gaussian(R) 98 system (copyright 1998, Gaussian, Inc.),
 the Gaussian(R) 94 system (copyright 1995, Gaussian, Inc.),
 the Gaussian 92(TM) system (copyright 1992, Gaussian, Inc.),
 the Gaussian 90(TM) system (copyright 1990, Gaussian, Inc.),
 the Gaussian 88(TM) system (copyright 1988, Gaussian, Inc.),
 the Gaussian 86(TM) system (copyright 1986, Carnegie Mellon
 University), and the Gaussian 82(TM) system (copyright 1983,
 Carnegie Mellon University). Gaussian is a federally registered
 trademark of Gaussian, Inc.
  
 This software contains proprietary and confidential information,
 including trade secrets, belonging to Gaussian, Inc.
  
 This software is provided under written license and may be
 used, copied, transmitted, or stored only in accord with that
 written license.
  
 The following legend is applicable only to US Government
 contracts under FAR:
  
                    RESTRICTED RIGHTS LEGEND
  
 Use, reproduction and disclosure by the US Government is
 subject to restrictions as set forth in subparagraphs (a)
 and (c) of the Commercial Computer Software - Restricted
 Rights clause in FAR 52.227-19.
  
 Gaussian, Inc.
 340 Quinnipiac St., Bldg. 40, Wallingford CT 06492
  
  
 ---------------------------------------------------------------
 Warning -- This program may not be used in any manner that
 competes with the business of Gaussian, Inc. or will provide
 assistance to any competitor of Gaussian, Inc.  The licensee
 of this program is prohibited from giving any competitor of
 Gaussian, Inc. access to this program.  By using this program,
 the user acknowledges that Gaussian, Inc. is engaged in the
 business of creating and licensing software in the field of
 computational chemistry and represents and warrants to the
 licensee that it is not a competitor of Gaussian, Inc. and that
 it will not use this program in any manner prohibited above.
 ---------------------------------------------------------------
  

 Cite this work as:
 Gaussian 16, Revision A.03,
 M. J. Frisch, G. W. Trucks, H. B. Schlegel, G. E. Scuseria, 
 M. A. Robb, J. R. Cheeseman, G. Scalmani, V. Barone, 
 G. A. Petersson, H. Nakatsuji, X. Li, M. Caricato, A. V. Marenich, 
 J. Bloino, B. G. Janesko, R. Gomperts, B. Mennucci, H. P. Hratchian, 
 J. V. Ortiz, A. F. Izmaylov, J. L. Sonnenberg, D. Williams-Young, 
 F. Ding, F. Lipparini, F. Egidi, J. Goings, B. Peng, A. Petrone, 
 T. Henderson, D. Ranasinghe, V. G. Zakrzewski, J. Gao, N. Rega, 
 G. Zheng, W. Liang, M. Hada, M. Ehara, K. Toyota, R. Fukuda, 
 J. Hasegawa, M. Ishida, T. Nakajima, Y. Honda, O. Kitao, H. Nakai, 
 T. Vreven, K. Throssell, J. A. Montgomery, Jr., J. E. Peralta, 
 F. Ogliaro, M. J. Bearpark, J. J. Heyd, E. N. Brothers, K. N. Kudin, 
 V. N. Staroverov, T. A. Keith, R. Kobayashi, J. Normand, 
 K. Raghavachari, A. P. Rendell, J. C. Burant, S. S. Iyengar, 
 J. Tomasi, M. Cossi, J. M. Millam, M. Klene, C. Adamo, R. Cammi, 
 J. W. Ochterski, R. L. Martin, K. Morokuma, O. Farkas, 
 J. B. Foresman, and D. J. Fox, Gaussian, Inc., Wallingford CT, 2016.
 
 ******************************************
 Gaussian 16:  ES64L-G16RevA.03 25-Dec-2016
                11-Feb-2020 
 ******************************************
 %chk=checkpoint.chk
 %mem=3GB
 %nprocshared=4
 Will use up to    4 processors via shared memory.
 --------------------------------
 #t pop=none jul-cc-pvdz upbe1pbe
 --------------------------------
 ------------------------
 theory_abbreviation pbe0
 ------------------------
 Symbolic Z-matrix:
 Charge =  0 Multiplicity = 6
 O                    -0.27367  -0.32807  -0.61668 
 C                    -1.33881  -1.12456  -0.28577 
 C                    -2.30462  -0.36243   0.73715 
 C                    -2.90637   0.72944  -0.01618 
 C                    -4.28944   0.62452  -0.53253 
 Fe                    1.46581   0.12203  -0.0981 
 Cl                    2.75696  -0.25323  -1.83229 
 C                    -2.08062   1.85692  -0.38646 
 Cl                    2.08666  -1.00872   1.6953 
 Cl                    1.29206   2.28794   0.41744 
 H                    -3.07856  -1.08927   1.004 
 H                    -2.56184   2.60096  -1.02096 
 H                    -1.54131   2.31593   0.45 
 H                    -1.21785   1.34625  -0.90376 
 H                    -4.91687   1.24271   0.13255 
 H                    -4.38749   1.05872  -1.53317 
 H                    -4.68187  -0.39353  -0.50761 
 C                    -1.54472   0.09392   1.99836 
 H                    -2.20664   0.6779    2.64533 
 H                    -1.20047  -0.7723    2.56387 
 H                    -0.67503   0.7022    1.75071 
 C                    -0.89768  -2.42163   0.42673 
 H                    -1.76403  -3.02854   0.70848 
 H                    -0.28528  -2.99049  -0.27892 
 H                    -0.28515  -2.22059   1.30422 
 C                    -2.08387  -1.50166  -1.58253 
 H                    -1.41678  -2.1158   -2.19247 
 H                    -2.99673  -2.07434  -1.38321 
 H                    -2.33573  -0.61684  -2.17536 
 
                    Distance matrix (angstroms):
                    1          2          3          4          5
     1  O    0.000000
     2  C    1.370553   0.000000
     3  C    2.441066   1.600001   0.000000
     4  C    2.900003   2.442788   1.456633   0.000000
     5  C    4.128065   3.438950   2.554537   1.480038   0.000000
     6  Fe   1.870109   3.074917   3.892112   4.414929   5.793456
     7  Cl   3.266195   4.463884   5.677461   6.028032   7.218835
     8  C    2.844689   3.074024   2.497638   1.445745   2.533576
     9  Cl   3.373380   3.958781   4.540830   5.557040   6.948768
    10  Cl   3.219377   4.365902   4.479151   4.499302   5.901059
    11  H    3.327677   2.165983   1.094753   2.092394   2.600813
    12  H    3.738768   3.989459   3.455259   2.151949   2.670103
    13  H    3.120169   3.524110   2.799780   2.144221   3.373197
    14  H    1.943512   2.549788   2.606385   2.004829   3.177003
    15  H    4.958628   4.310621   3.125036   2.080310   1.103699
    16  H    4.436964   3.951852   3.392987   2.145557   1.095183
    17  H    4.410031   3.429233   2.683596   2.157534   1.091350
    18  C    2.938035   2.596986   1.541540   2.513226   3.770993
    19  H    3.922887   3.548712   2.175557   2.752437   3.799961
    20  H    3.342482   2.874664   2.173488   3.438306   4.591354
    21  H    2.612866   2.815121   2.194608   2.846309   4.275877
    22  C    2.420966   1.544234   2.513197   3.763009   4.658679
    23  H    3.357042   2.189629   2.720507   3.994046   4.611139
    24  H    2.683786   2.142823   3.466534   4.558182   5.400553
    25  H    2.696585   2.199895   2.802242   4.161350   5.244291
    26  C    2.363681   1.542363   2.593739   2.847412   3.238474
    27  H    2.643072   2.150385   3.527787   3.879501   4.303136
    28  H    3.324466   2.203440   2.811687   3.120596   3.111051
    29  H    2.600952   2.195939   2.923766   2.607712   2.838464
                    6          7          8          9         10
     6  Fe   0.000000
     7  Cl   2.194374   0.000000
     8  C    3.958557   5.472235   0.000000
     9  Cl   2.209150   3.669321   5.469173   0.000000
    10  Cl   2.233184   3.696582   3.493852   3.623845   0.000000
    11  H    4.830447   6.541925   3.407241   5.211905   5.554451
    12  H    4.818584   6.090510   1.089847   6.482011   4.125475
    13  H    3.762497   5.503137   1.095997   5.076048   2.833690
    14  H    3.057750   4.384021   1.128165   4.818795   2.988642
    15  H    6.484423   8.061396   2.948038   7.520677   6.302734
    16  H    6.099011   7.270065   2.696982   7.524092   6.129691
    17  H    6.182835   7.557155   3.441751   7.144528   6.613149
    18  C    3.668684   5.770511   3.013750   3.807179   3.919226
    19  H    4.617608   6.749323   3.255412   4.709529   4.449336
    20  H    3.872337   5.937751   4.048692   3.408160   4.492765
    21  H    2.887546   5.052652   2.806516   3.249198   2.856856
    22  C    3.511658   4.812637   4.512940   3.537213   5.193750
    23  H    4.583508   5.881937   5.016649   4.458850   6.139158
    24  H    3.575865   4.377300   5.170321   3.667572   5.552901
    25  H    3.243488   4.791927   4.765304   2.692038   4.858057
    26  C    4.176135   5.005453   3.565200   5.327332   5.455068
    27  H    4.207570   4.584652   4.414171   5.349257   5.791578
    28  H    5.137102   6.051696   4.157832   6.037687   6.376949
    29  H    4.394612   5.117165   3.063452   5.890084   5.321762
                   11         12         13         14         15
    11  H    0.000000
    12  H    4.240904   0.000000
    13  H    3.776972   1.812858   0.000000
    14  H    3.610198   1.842375   1.696337   0.000000
    15  H    3.094661   2.953235   3.556265   3.842836   0.000000
    16  H    3.572726   2.444144   3.689755   3.244292   1.757477
    17  H    2.310758   3.704722   4.256913   3.896555   1.772653
    18  C    2.177468   4.054143   2.708281   3.177646   4.021484
    19  H    2.564595   4.155244   2.818746   3.744385   3.738775
    20  H    2.461892   5.107177   3.757905   4.063619   4.876803
    21  H    3.089322   3.853246   2.246425   2.784895   4.572062
    22  C    2.620054   5.485587   4.781144   4.008693   5.446820
    23  H    2.361366   5.942950   5.355351   4.694289   5.339999
    24  H    3.614270   6.082573   5.501554   4.479669   6.288159
    25  H    3.028720   5.816963   4.784101   4.297368   5.900849
    26  C    2.801711   4.168368   4.358848   3.053080   4.301043
    27  H    3.746024   4.993139   5.161246   3.699483   5.379216
    28  H    2.583761   4.709432   4.975280   3.885190   4.121565
    29  H    3.298983   3.426075   4.015565   2.592361   3.930226
                   16         17         18         19         20
    16  H    0.000000
    17  H    1.802066   0.000000
    18  C    4.635067   4.044645   0.000000
    19  H    4.728744   4.149189   1.094415   0.000000
    20  H    5.504132   4.658067   1.090255   1.766945   0.000000
    21  H    4.969234   4.728143   1.089812   1.773907   1.763937
    22  C    5.304040   4.393894   3.035898   4.030220   2.716495
    23  H    5.349126   4.115324   3.385499   4.205350   2.975007
    24  H    5.898931   5.111411   4.035565   5.069515   3.720135
    25  H    5.969403   5.094308   2.724936   3.727186   2.126513
    26  C    3.444511   3.022087   3.957181   4.758188   4.301740
    27  H    4.397429   4.057805   4.739441   5.642076   4.947181
    28  H    3.431145   2.536041   4.271380   4.942495   4.527838
    29  H    2.725736   2.887148   4.307060   4.993203   4.875784
                   21         22         23         24         25
    21  H    0.000000
    22  C    3.400120   0.000000
    23  H    4.023748   1.094665   0.000000
    24  H    4.231700   1.093881   1.778517   0.000000
    25  H    2.982286   1.088848   1.787396   1.760421   0.000000
    26  C    4.237013   2.508088   2.771704   2.674123   3.476423
    27  H    4.903063   2.687606   3.060913   2.388947   3.676739
    28  H    4.787578   2.793300   2.608678   3.067696   3.820513
    29  H    4.462261   3.477947   3.802580   3.665383   4.345606
                   26         27         28         29
    26  C    0.000000
    27  H    1.092799   0.000000
    28  H    1.095902   1.775627   0.000000
    29  H    1.094434   1.758306   1.785697   0.000000
 Framework group  C1[X(C8H16Cl3FeO)]
 Deg. of freedom    81
                         Standard orientation:                         
 ---------------------------------------------------------------------
 Center     Atomic      Atomic             Coordinates (Angstroms)
 Number     Number       Type             X           Y           Z
 ---------------------------------------------------------------------
      1          8           0       -0.273670   -0.328071   -0.616677
      2          6           0       -1.338811   -1.124559   -0.285773
      3          6           0       -2.304623   -0.362434    0.737152
      4          6           0       -2.906367    0.729436   -0.016176
      5          6           0       -4.289439    0.624523   -0.532526
      6         26           0        1.465812    0.122031   -0.098102
      7         17           0        2.756961   -0.253231   -1.832285
      8          6           0       -2.080622    1.856918   -0.386456
      9         17           0        2.086664   -1.008719    1.695300
     10         17           0        1.292059    2.287935    0.417439
     11          1           0       -3.078562   -1.089275    1.003996
     12          1           0       -2.561843    2.600957   -1.020963
     13          1           0       -1.541306    2.315934    0.449996
     14          1           0       -1.217852    1.346248   -0.903756
     15          1           0       -4.916870    1.242707    0.132553
     16          1           0       -4.387489    1.058718   -1.533169
     17          1           0       -4.681866   -0.393527   -0.507611
     18          6           0       -1.544721    0.093918    1.998357
     19          1           0       -2.206636    0.677899    2.645333
     20          1           0       -1.200470   -0.772304    2.563871
     21          1           0       -0.675034    0.702199    1.750710
     22          6           0       -0.897675   -2.421632    0.426729
     23          1           0       -1.764033   -3.028536    0.708478
     24          1           0       -0.285277   -2.990493   -0.278921
     25          1           0       -0.285150   -2.220585    1.304216
     26          6           0       -2.083866   -1.501661   -1.582527
     27          1           0       -1.416781   -2.115804   -2.192474
     28          1           0       -2.996727   -2.074340   -1.383214
     29          1           0       -2.335726   -0.616842   -2.175358
 ---------------------------------------------------------------------
 Rotational constants (GHZ):           0.6303012           0.3134432           0.2981990
   427 basis functions,  1056 primitive gaussians,   461 cartesian basis functions
    77 alpha electrons       72 beta electrons
       nuclear repulsion energy      1643.4981497603 Hartrees.
 NAtoms=   29 NActive=   29 NUniq=   29 SFac= 1.00D+00 NAtFMM=   60 NAOKFM=F Big=F
 ExpMin= 1.40D-02 ExpMax= 4.32D+06 ExpMxC= 4.91D+03 IAcc=3 IRadAn=         5 AccDes= 0.00D+00
 Harris functional with IExCor= 1009 and IRadAn=       5 diagonalized for initial guess.
 HarFok:  IExCor= 1009 AccDes= 0.00D+00 IRadAn=         5 IDoV= 1 UseB2=F ITyADJ=14
 ICtDFT=  3500011 ScaDFX=  1.000000  1.000000  1.000000  1.000000
 FoFCou: FMM=F IPFlag=           0 FMFlag=      100000 FMFlg1=           0
         NFxFlg=           0 DoJE=T BraDBF=F KetDBF=T FulRan=T
         wScrn=  0.000000 ICntrl=       500 IOpCl=  0 I1Cent=   200000004 NGrid=           0
         NMat0=    1 NMatS0=      1 NMatT0=    0 NMatD0=    1 NMtDS0=    0 NMtDT0=    0
 Petite list used in FoFCou.
 Initial guess <Sx>= 0.0000 <Sy>= 0.0000 <Sz>= 2.5000 <S**2>= 8.7500 S= 2.5000
 EnCoef did     5 forward-backward iterations
 EnCoef did     6 forward-backward iterations
 EnCoef did     5 forward-backward iterations
 EnCoef did     2 forward-backward iterations
 Restarting incremental Fock formation.
 SCF Done:  E(UPBE1PBE) =  -3033.10721433     A.U. after   21 cycles
            NFock= 21  Conv=0.77D-08     -V/T= 2.0021
 <Sx>= 0.0000 <Sy>= 0.0000 <Sz>= 2.5000 <S**2>= 8.7626 S= 2.5021
 <L.S>= 0.000000000000E+00
 Annihilation of the first spin contaminant:
 S**2 before annihilation     8.7626,   after     8.7500
 1\1\GINC-HOLY7C06104\SP\UPBE1PBE\Jul-CC-pVDZ\C8H16Cl3Fe1O1(6)\EKWAN\11
 -Feb-2020\0\\#t pop=none jul-cc-pvdz upbe1pbe\\theory_abbreviation pbe
 0\\0,6\O,0,-0.27367,-0.328071,-0.616677\C,0,-1.338811,-1.124559,-0.285
 773\C,0,-2.304623,-0.362434,0.737152\C,0,-2.906367,0.729436,-0.016176\
 C,0,-4.289439,0.624523,-0.532526\Fe,0,1.465812,0.122031,-0.098102\Cl,0
 ,2.756961,-0.253231,-1.832285\C,0,-2.080622,1.856918,-0.386456\Cl,0,2.
 086664,-1.008719,1.6953\Cl,0,1.292059,2.287935,0.417439\H,0,-3.078562,
 -1.089275,1.003996\H,0,-2.561843,2.600957,-1.020963\H,0,-1.541306,2.31
 5934,0.449996\H,0,-1.217852,1.346248,-0.903756\H,0,-4.91687,1.242707,0
 .132553\H,0,-4.387489,1.058718,-1.533169\H,0,-4.681866,-0.393527,-0.50
 7611\C,0,-1.544721,0.093918,1.998357\H,0,-2.206636,0.677899,2.645333\H
 ,0,-1.20047,-0.772304,2.563871\H,0,-0.675034,0.702199,1.75071\C,0,-0.8
 97675,-2.421632,0.426729\H,0,-1.764033,-3.028536,0.708478\H,0,-0.28527
 7,-2.990493,-0.278921\H,0,-0.28515,-2.220585,1.304216\C,0,-2.083866,-1
 .501661,-1.582527\H,0,-1.416781,-2.115804,-2.192474\H,0,-2.996727,-2.0
 7434,-1.383214\H,0,-2.335726,-0.616842,-2.175358\\Version=ES64L-G16Rev
 A.03\HF=-3033.1072143\S2=8.762608\S2-1=0.\S2A=8.75005\RMSD=7.701e-09\P
 G=C01 [X(C8H16Cl3Fe1O1)]\\@


 FROM AN ANONYMOUS WRITER, ON PERSPECTIVE:

 MAN, DESPITE HIS ARTISTIC PRETENSIONS, HIS SOPHISTICATION AND MANY 
 ACCOMPLISHMENTS, OWES THE FACT OF HIS EXISTENCE TO A SIX-INCH LAYER OF 
 TOPSOIL AND THE FACT THAT IT RAINS.
 Job cpu time:       0 days  1 hours 30 minutes  3.3 seconds.
 Elapsed time:       0 days  0 hours 22 minutes 35.2 seconds.
 File lengths (MBytes):  RWF=    173 Int=      0 D2E=      0 Chk=     13 Scr=      1
 Normal termination of Gaussian 16 at Tue Feb 11 13:56:39 2020.
 Initial command:
 /n/sw/g16_nehalem/g16/l1.exe "/scratch/Gau-377090.inp" -scrdir="/scratch/"
 Entering Link 1 = /n/sw/g16_nehalem/g16/l1.exe PID=    379286.
  
 Copyright (c) 1988,1990,1992,1993,1995,1998,2003,2009,2016,
            Gaussian, Inc.  All Rights Reserved.
  
 This is part of the Gaussian(R) 16 program.  It is based on
 the Gaussian(R) 09 system (copyright 2009, Gaussian, Inc.),
 the Gaussian(R) 03 system (copyright 2003, Gaussian, Inc.),
 the Gaussian(R) 98 system (copyright 1998, Gaussian, Inc.),
 the Gaussian(R) 94 system (copyright 1995, Gaussian, Inc.),
 the Gaussian 92(TM) system (copyright 1992, Gaussian, Inc.),
 the Gaussian 90(TM) system (copyright 1990, Gaussian, Inc.),
 the Gaussian 88(TM) system (copyright 1988, Gaussian, Inc.),
 the Gaussian 86(TM) system (copyright 1986, Carnegie Mellon
 University), and the Gaussian 82(TM) system (copyright 1983,
 Carnegie Mellon University). Gaussian is a federally registered
 trademark of Gaussian, Inc.
  
 This software contains proprietary and confidential information,
 including trade secrets, belonging to Gaussian, Inc.
  
 This software is provided under written license and may be
 used, copied, transmitted, or stored only in accord with that
 written license.
  
 The following legend is applicable only to US Government
 contracts under FAR:
  
                    RESTRICTED RIGHTS LEGEND
  
 Use, reproduction and disclosure by the US Government is
 subject to restrictions as set forth in subparagraphs (a)
 and (c) of the Commercial Computer Software - Restricted
 Rights clause in FAR 52.227-19.
  
 Gaussian, Inc.
 340 Quinnipiac St., Bldg. 40, Wallingford CT 06492
  
  
 ---------------------------------------------------------------
 Warning -- This program may not be used in any manner that
 competes with the business of Gaussian, Inc. or will provide
 assistance to any competitor of Gaussian, Inc.  The licensee
 of this program is prohibited from giving any competitor of
 Gaussian, Inc. access to this program.  By using this program,
 the user acknowledges that Gaussian, Inc. is engaged in the
 business of creating and licensing software in the field of
 computational chemistry and represents and warrants to the
 licensee that it is not a competitor of Gaussian, Inc. and that
 it will not use this program in any manner prohibited above.
 ---------------------------------------------------------------
  

 Cite this work as:
 Gaussian 16, Revision A.03,
 M. J. Frisch, G. W. Trucks, H. B. Schlegel, G. E. Scuseria, 
 M. A. Robb, J. R. Cheeseman, G. Scalmani, V. Barone, 
 G. A. Petersson, H. Nakatsuji, X. Li, M. Caricato, A. V. Marenich, 
 J. Bloino, B. G. Janesko, R. Gomperts, B. Mennucci, H. P. Hratchian, 
 J. V. Ortiz, A. F. Izmaylov, J. L. Sonnenberg, D. Williams-Young, 
 F. Ding, F. Lipparini, F. Egidi, J. Goings, B. Peng, A. Petrone, 
 T. Henderson, D. Ranasinghe, V. G. Zakrzewski, J. Gao, N. Rega, 
 G. Zheng, W. Liang, M. Hada, M. Ehara, K. Toyota, R. Fukuda, 
 J. Hasegawa, M. Ishida, T. Nakajima, Y. Honda, O. Kitao, H. Nakai, 
 T. Vreven, K. Throssell, J. A. Montgomery, Jr., J. E. Peralta, 
 F. Ogliaro, M. J. Bearpark, J. J. Heyd, E. N. Brothers, K. N. Kudin, 
 V. N. Staroverov, T. A. Keith, R. Kobayashi, J. Normand, 
 K. Raghavachari, A. P. Rendell, J. C. Burant, S. S. Iyengar, 
 J. Tomasi, M. Cossi, J. M. Millam, M. Klene, C. Adamo, R. Cammi, 
 J. W. Ochterski, R. L. Martin, K. Morokuma, O. Farkas, 
 J. B. Foresman, and D. J. Fox, Gaussian, Inc., Wallingford CT, 2016.
 
 ******************************************
 Gaussian 16:  ES64L-G16RevA.03 25-Dec-2016
                11-Feb-2020 
 ******************************************
 %chk=checkpoint.chk
 %mem=3GB
 %nprocshared=4
 Will use up to    4 processors via shared memory.
 ---------------------------------------------------------------------
 #t pop=none jul-cc-pvdz guess=read upbe1pbe empiricaldispersion=gd3bj
 ---------------------------------------------------------------------
 -----------------------------
 theory_abbreviation pbe0_d3bj
 -----------------------------
 Symbolic Z-matrix:
 Charge =  0 Multiplicity = 6
 O                    -0.27367  -0.32807  -0.61668 
 C                    -1.33881  -1.12456  -0.28577 
 C                    -2.30462  -0.36243   0.73715 
 C                    -2.90637   0.72944  -0.01618 
 C                    -4.28944   0.62452  -0.53253 
 Fe                    1.46581   0.12203  -0.0981 
 Cl                    2.75696  -0.25323  -1.83229 
 C                    -2.08062   1.85692  -0.38646 
 Cl                    2.08666  -1.00872   1.6953 
 Cl                    1.29206   2.28794   0.41744 
 H                    -3.07856  -1.08927   1.004 
 H                    -2.56184   2.60096  -1.02096 
 H                    -1.54131   2.31593   0.45 
 H                    -1.21785   1.34625  -0.90376 
 H                    -4.91687   1.24271   0.13255 
 H                    -4.38749   1.05872  -1.53317 
 H                    -4.68187  -0.39353  -0.50761 
 C                    -1.54472   0.09392   1.99836 
 H                    -2.20664   0.6779    2.64533 
 H                    -1.20047  -0.7723    2.56387 
 H                    -0.67503   0.7022    1.75071 
 C                    -0.89768  -2.42163   0.42673 
 H                    -1.76403  -3.02854   0.70848 
 H                    -0.28528  -2.99049  -0.27892 
 H                    -0.28515  -2.22059   1.30422 
 C                    -2.08387  -1.50166  -1.58253 
 H                    -1.41678  -2.1158   -2.19247 
 H                    -2.99673  -2.07434  -1.38321 
 H                    -2.33573  -0.61684  -2.17536 
 
                    Distance matrix (angstroms):
                    1          2          3          4          5
     1  O    0.000000
     2  C    1.370553   0.000000
     3  C    2.441066   1.600001   0.000000
     4  C    2.900003   2.442788   1.456633   0.000000
     5  C    4.128065   3.438950   2.554537   1.480038   0.000000
     6  Fe   1.870109   3.074917   3.892112   4.414929   5.793456
     7  Cl   3.266195   4.463884   5.677461   6.028032   7.218835
     8  C    2.844689   3.074024   2.497638   1.445745   2.533576
     9  Cl   3.373380   3.958781   4.540830   5.557040   6.948768
    10  Cl   3.219377   4.365902   4.479151   4.499302   5.901059
    11  H    3.327677   2.165983   1.094753   2.092394   2.600813
    12  H    3.738768   3.989459   3.455259   2.151949   2.670103
    13  H    3.120169   3.524110   2.799780   2.144221   3.373197
    14  H    1.943512   2.549788   2.606385   2.004829   3.177003
    15  H    4.958628   4.310621   3.125036   2.080310   1.103699
    16  H    4.436964   3.951852   3.392987   2.145557   1.095183
    17  H    4.410031   3.429233   2.683596   2.157534   1.091350
    18  C    2.938035   2.596986   1.541540   2.513226   3.770993
    19  H    3.922887   3.548712   2.175557   2.752437   3.799961
    20  H    3.342482   2.874664   2.173488   3.438306   4.591354
    21  H    2.612866   2.815121   2.194608   2.846309   4.275877
    22  C    2.420966   1.544234   2.513197   3.763009   4.658679
    23  H    3.357042   2.189629   2.720507   3.994046   4.611139
    24  H    2.683786   2.142823   3.466534   4.558182   5.400553
    25  H    2.696585   2.199895   2.802242   4.161350   5.244291
    26  C    2.363681   1.542363   2.593739   2.847412   3.238474
    27  H    2.643072   2.150385   3.527787   3.879501   4.303136
    28  H    3.324466   2.203440   2.811687   3.120596   3.111051
    29  H    2.600952   2.195939   2.923766   2.607712   2.838464
                    6          7          8          9         10
     6  Fe   0.000000
     7  Cl   2.194374   0.000000
     8  C    3.958557   5.472235   0.000000
     9  Cl   2.209150   3.669321   5.469173   0.000000
    10  Cl   2.233184   3.696582   3.493852   3.623845   0.000000
    11  H    4.830447   6.541925   3.407241   5.211905   5.554451
    12  H    4.818584   6.090510   1.089847   6.482011   4.125475
    13  H    3.762497   5.503137   1.095997   5.076048   2.833690
    14  H    3.057750   4.384021   1.128165   4.818795   2.988642
    15  H    6.484423   8.061396   2.948038   7.520677   6.302734
    16  H    6.099011   7.270065   2.696982   7.524092   6.129691
    17  H    6.182835   7.557155   3.441751   7.144528   6.613149
    18  C    3.668684   5.770511   3.013750   3.807179   3.919226
    19  H    4.617608   6.749323   3.255412   4.709529   4.449336
    20  H    3.872337   5.937751   4.048692   3.408160   4.492765
    21  H    2.887546   5.052652   2.806516   3.249198   2.856856
    22  C    3.511658   4.812637   4.512940   3.537213   5.193750
    23  H    4.583508   5.881937   5.016649   4.458850   6.139158
    24  H    3.575865   4.377300   5.170321   3.667572   5.552901
    25  H    3.243488   4.791927   4.765304   2.692038   4.858057
    26  C    4.176135   5.005453   3.565200   5.327332   5.455068
    27  H    4.207570   4.584652   4.414171   5.349257   5.791578
    28  H    5.137102   6.051696   4.157832   6.037687   6.376949
    29  H    4.394612   5.117165   3.063452   5.890084   5.321762
                   11         12         13         14         15
    11  H    0.000000
    12  H    4.240904   0.000000
    13  H    3.776972   1.812858   0.000000
    14  H    3.610198   1.842375   1.696337   0.000000
    15  H    3.094661   2.953235   3.556265   3.842836   0.000000
    16  H    3.572726   2.444144   3.689755   3.244292   1.757477
    17  H    2.310758   3.704722   4.256913   3.896555   1.772653
    18  C    2.177468   4.054143   2.708281   3.177646   4.021484
    19  H    2.564595   4.155244   2.818746   3.744385   3.738775
    20  H    2.461892   5.107177   3.757905   4.063619   4.876803
    21  H    3.089322   3.853246   2.246425   2.784895   4.572062
    22  C    2.620054   5.485587   4.781144   4.008693   5.446820
    23  H    2.361366   5.942950   5.355351   4.694289   5.339999
    24  H    3.614270   6.082573   5.501554   4.479669   6.288159
    25  H    3.028720   5.816963   4.784101   4.297368   5.900849
    26  C    2.801711   4.168368   4.358848   3.053080   4.301043
    27  H    3.746024   4.993139   5.161246   3.699483   5.379216
    28  H    2.583761   4.709432   4.975280   3.885190   4.121565
    29  H    3.298983   3.426075   4.015565   2.592361   3.930226
                   16         17         18         19         20
    16  H    0.000000
    17  H    1.802066   0.000000
    18  C    4.635067   4.044645   0.000000
    19  H    4.728744   4.149189   1.094415   0.000000
    20  H    5.504132   4.658067   1.090255   1.766945   0.000000
    21  H    4.969234   4.728143   1.089812   1.773907   1.763937
    22  C    5.304040   4.393894   3.035898   4.030220   2.716495
    23  H    5.349126   4.115324   3.385499   4.205350   2.975007
    24  H    5.898931   5.111411   4.035565   5.069515   3.720135
    25  H    5.969403   5.094308   2.724936   3.727186   2.126513
    26  C    3.444511   3.022087   3.957181   4.758188   4.301740
    27  H    4.397429   4.057805   4.739441   5.642076   4.947181
    28  H    3.431145   2.536041   4.271380   4.942495   4.527838
    29  H    2.725736   2.887148   4.307060   4.993203   4.875784
                   21         22         23         24         25
    21  H    0.000000
    22  C    3.400120   0.000000
    23  H    4.023748   1.094665   0.000000
    24  H    4.231700   1.093881   1.778517   0.000000
    25  H    2.982286   1.088848   1.787396   1.760421   0.000000
    26  C    4.237013   2.508088   2.771704   2.674123   3.476423
    27  H    4.903063   2.687606   3.060913   2.388947   3.676739
    28  H    4.787578   2.793300   2.608678   3.067696   3.820513
    29  H    4.462261   3.477947   3.802580   3.665383   4.345606
                   26         27         28         29
    26  C    0.000000
    27  H    1.092799   0.000000
    28  H    1.095902   1.775627   0.000000
    29  H    1.094434   1.758306   1.785697   0.000000
 Framework group  C1[X(C8H16Cl3FeO)]
 Deg. of freedom    81
                         Standard orientation:                         
 ---------------------------------------------------------------------
 Center     Atomic      Atomic             Coordinates (Angstroms)
 Number     Number       Type             X           Y           Z
 ---------------------------------------------------------------------
      1          8           0       -0.273670   -0.328071   -0.616677
      2          6           0       -1.338811   -1.124559   -0.285773
      3          6           0       -2.304623   -0.362434    0.737152
      4          6           0       -2.906367    0.729436   -0.016176
      5          6           0       -4.289439    0.624523   -0.532526
      6         26           0        1.465812    0.122031   -0.098102
      7         17           0        2.756961   -0.253231   -1.832285
      8          6           0       -2.080622    1.856918   -0.386456
      9         17           0        2.086664   -1.008719    1.695300
     10         17           0        1.292059    2.287935    0.417439
     11          1           0       -3.078562   -1.089275    1.003996
     12          1           0       -2.561843    2.600957   -1.020963
     13          1           0       -1.541306    2.315934    0.449996
     14          1           0       -1.217852    1.346248   -0.903756
     15          1           0       -4.916870    1.242707    0.132553
     16          1           0       -4.387489    1.058718   -1.533169
     17          1           0       -4.681866   -0.393527   -0.507611
     18          6           0       -1.544721    0.093918    1.998357
     19          1           0       -2.206636    0.677899    2.645333
     20          1           0       -1.200470   -0.772304    2.563871
     21          1           0       -0.675034    0.702199    1.750710
     22          6           0       -0.897675   -2.421632    0.426729
     23          1           0       -1.764033   -3.028536    0.708478
     24          1           0       -0.285277   -2.990493   -0.278921
     25          1           0       -0.285150   -2.220585    1.304216
     26          6           0       -2.083866   -1.501661   -1.582527
     27          1           0       -1.416781   -2.115804   -2.192474
     28          1           0       -2.996727   -2.074340   -1.383214
     29          1           0       -2.335726   -0.616842   -2.175358
 ---------------------------------------------------------------------
 Rotational constants (GHZ):           0.6303012           0.3134432           0.2981990
   427 basis functions,  1056 primitive gaussians,   461 cartesian basis functions
    77 alpha electrons       72 beta electrons
       nuclear repulsion energy      1643.4981497603 Hartrees.
 NAtoms=   29 NActive=   29 NUniq=   29 SFac= 1.00D+00 NAtFMM=   60 NAOKFM=F Big=F
 Nuclear repulsion after empirical dispersion term =     1643.4613745245 Hartrees.
 Initial guess from the checkpoint file:  "checkpoint.chk"
 B after Tr=     0.000000    0.000000    0.000000
         Rot=    1.000000    0.000000    0.000000    0.000000 Ang=   0.00 deg.
 Initial guess <Sx>= 0.0000 <Sy>= 0.0000 <Sz>= 2.5000 <S**2>= 8.7626 S= 2.5021
 SCF Done:  E(UPBE1PBE) =  -3033.14398957     A.U. after    1 cycles
            NFock=  1  Conv=0.39D-08     -V/T= 2.0021
 <Sx>= 0.0000 <Sy>= 0.0000 <Sz>= 2.5000 <S**2>= 8.7626 S= 2.5021
 <L.S>= 0.000000000000E+00
 Annihilation of the first spin contaminant:
 S**2 before annihilation     8.7626,   after     8.7500
 1\1\GINC-HOLY7C06104\SP\UPBE1PBE\Jul-CC-pVDZ\C8H16Cl3Fe1O1(6)\EKWAN\11
 -Feb-2020\0\\#t pop=none jul-cc-pvdz guess=read upbe1pbe empiricaldisp
 ersion=gd3bj\\theory_abbreviation pbe0_d3bj\\0,6\O,0,-0.27367,-0.32807
 1,-0.616677\C,0,-1.338811,-1.124559,-0.285773\C,0,-2.304623,-0.362434,
 0.737152\C,0,-2.906367,0.729436,-0.016176\C,0,-4.289439,0.624523,-0.53
 2526\Fe,0,1.465812,0.122031,-0.098102\Cl,0,2.756961,-0.253231,-1.83228
 5\C,0,-2.080622,1.856918,-0.386456\Cl,0,2.086664,-1.008719,1.6953\Cl,0
 ,1.292059,2.287935,0.417439\H,0,-3.078562,-1.089275,1.003996\H,0,-2.56
 1843,2.600957,-1.020963\H,0,-1.541306,2.315934,0.449996\H,0,-1.217852,
 1.346248,-0.903756\H,0,-4.91687,1.242707,0.132553\H,0,-4.387489,1.0587
 18,-1.533169\H,0,-4.681866,-0.393527,-0.507611\C,0,-1.544721,0.093918,
 1.998357\H,0,-2.206636,0.677899,2.645333\H,0,-1.20047,-0.772304,2.5638
 71\H,0,-0.675034,0.702199,1.75071\C,0,-0.897675,-2.421632,0.426729\H,0
 ,-1.764033,-3.028536,0.708478\H,0,-0.285277,-2.990493,-0.278921\H,0,-0
 .28515,-2.220585,1.304216\C,0,-2.083866,-1.501661,-1.582527\H,0,-1.416
 781,-2.115804,-2.192474\H,0,-2.996727,-2.07434,-1.383214\H,0,-2.335726
 ,-0.616842,-2.175358\\Version=ES64L-G16RevA.03\HF=-3033.1439896\S2=8.7
 62608\S2-1=0.\S2A=8.75005\RMSD=3.910e-09\PG=C01 [X(C8H16Cl3Fe1O1)]\\@


 A MAN SHOULD NEVER BE ASHAMED TO OWN HE HAS BEEN IN THE WRONG
 WHICH IS BUT SAYING IN OTHER WORDS,
 THAT HE IS WISER TODAY THAN HE WAS YESTERDAY.

                          -- JONATHAN SWIFT
 Job cpu time:       0 days  0 hours  5 minutes  0.7 seconds.
 Elapsed time:       0 days  0 hours  1 minutes 42.2 seconds.
 File lengths (MBytes):  RWF=    170 Int=      0 D2E=      0 Chk=     13 Scr=      1
 Normal termination of Gaussian 16 at Tue Feb 11 13:58:21 2020.
 Initial command:
 /n/sw/g16_nehalem/g16/l1.exe "/scratch/Gau-377090.inp" -scrdir="/scratch/"
 Entering Link 1 = /n/sw/g16_nehalem/g16/l1.exe PID=    380109.
  
 Copyright (c) 1988,1990,1992,1993,1995,1998,2003,2009,2016,
            Gaussian, Inc.  All Rights Reserved.
  
 This is part of the Gaussian(R) 16 program.  It is based on
 the Gaussian(R) 09 system (copyright 2009, Gaussian, Inc.),
 the Gaussian(R) 03 system (copyright 2003, Gaussian, Inc.),
 the Gaussian(R) 98 system (copyright 1998, Gaussian, Inc.),
 the Gaussian(R) 94 system (copyright 1995, Gaussian, Inc.),
 the Gaussian 92(TM) system (copyright 1992, Gaussian, Inc.),
 the Gaussian 90(TM) system (copyright 1990, Gaussian, Inc.),
 the Gaussian 88(TM) system (copyright 1988, Gaussian, Inc.),
 the Gaussian 86(TM) system (copyright 1986, Carnegie Mellon
 University), and the Gaussian 82(TM) system (copyright 1983,
 Carnegie Mellon University). Gaussian is a federally registered
 trademark of Gaussian, Inc.
  
 This software contains proprietary and confidential information,
 including trade secrets, belonging to Gaussian, Inc.
  
 This software is provided under written license and may be
 used, copied, transmitted, or stored only in accord with that
 written license.
  
 The following legend is applicable only to US Government
 contracts under FAR:
  
                    RESTRICTED RIGHTS LEGEND
  
 Use, reproduction and disclosure by the US Government is
 subject to restrictions as set forth in subparagraphs (a)
 and (c) of the Commercial Computer Software - Restricted
 Rights clause in FAR 52.227-19.
  
 Gaussian, Inc.
 340 Quinnipiac St., Bldg. 40, Wallingford CT 06492
  
  
 ---------------------------------------------------------------
 Warning -- This program may not be used in any manner that
 competes with the business of Gaussian, Inc. or will provide
 assistance to any competitor of Gaussian, Inc.  The licensee
 of this program is prohibited from giving any competitor of
 Gaussian, Inc. access to this program.  By using this program,
 the user acknowledges that Gaussian, Inc. is engaged in the
 business of creating and licensing software in the field of
 computational chemistry and represents and warrants to the
 licensee that it is not a competitor of Gaussian, Inc. and that
 it will not use this program in any manner prohibited above.
 ---------------------------------------------------------------
  

 Cite this work as:
 Gaussian 16, Revision A.03,
 M. J. Frisch, G. W. Trucks, H. B. Schlegel, G. E. Scuseria, 
 M. A. Robb, J. R. Cheeseman, G. Scalmani, V. Barone, 
 G. A. Petersson, H. Nakatsuji, X. Li, M. Caricato, A. V. Marenich, 
 J. Bloino, B. G. Janesko, R. Gomperts, B. Mennucci, H. P. Hratchian, 
 J. V. Ortiz, A. F. Izmaylov, J. L. Sonnenberg, D. Williams-Young, 
 F. Ding, F. Lipparini, F. Egidi, J. Goings, B. Peng, A. Petrone, 
 T. Henderson, D. Ranasinghe, V. G. Zakrzewski, J. Gao, N. Rega, 
 G. Zheng, W. Liang, M. Hada, M. Ehara, K. Toyota, R. Fukuda, 
 J. Hasegawa, M. Ishida, T. Nakajima, Y. Honda, O. Kitao, H. Nakai, 
 T. Vreven, K. Throssell, J. A. Montgomery, Jr., J. E. Peralta, 
 F. Ogliaro, M. J. Bearpark, J. J. Heyd, E. N. Brothers, K. N. Kudin, 
 V. N. Staroverov, T. A. Keith, R. Kobayashi, J. Normand, 
 K. Raghavachari, A. P. Rendell, J. C. Burant, S. S. Iyengar, 
 J. Tomasi, M. Cossi, J. M. Millam, M. Klene, C. Adamo, R. Cammi, 
 J. W. Ochterski, R. L. Martin, K. Morokuma, O. Farkas, 
 J. B. Foresman, and D. J. Fox, Gaussian, Inc., Wallingford CT, 2016.
 
 ******************************************
 Gaussian 16:  ES64L-G16RevA.03 25-Dec-2016
                11-Feb-2020 
 ******************************************
 %chk=checkpoint.chk
 %mem=3GB
 %nprocshared=4
 Will use up to    4 processors via shared memory.
 -----------------------------------------
 #t pop=none jul-cc-pvdz guess=read ub3lyp
 -----------------------------------------
 -------------------------
 theory_abbreviation b3lyp
 -------------------------
 Symbolic Z-matrix:
 Charge =  0 Multiplicity = 6
 O                    -0.27367  -0.32807  -0.61668 
 C                    -1.33881  -1.12456  -0.28577 
 C                    -2.30462  -0.36243   0.73715 
 C                    -2.90637   0.72944  -0.01618 
 C                    -4.28944   0.62452  -0.53253 
 Fe                    1.46581   0.12203  -0.0981 
 Cl                    2.75696  -0.25323  -1.83229 
 C                    -2.08062   1.85692  -0.38646 
 Cl                    2.08666  -1.00872   1.6953 
 Cl                    1.29206   2.28794   0.41744 
 H                    -3.07856  -1.08927   1.004 
 H                    -2.56184   2.60096  -1.02096 
 H                    -1.54131   2.31593   0.45 
 H                    -1.21785   1.34625  -0.90376 
 H                    -4.91687   1.24271   0.13255 
 H                    -4.38749   1.05872  -1.53317 
 H                    -4.68187  -0.39353  -0.50761 
 C                    -1.54472   0.09392   1.99836 
 H                    -2.20664   0.6779    2.64533 
 H                    -1.20047  -0.7723    2.56387 
 H                    -0.67503   0.7022    1.75071 
 C                    -0.89768  -2.42163   0.42673 
 H                    -1.76403  -3.02854   0.70848 
 H                    -0.28528  -2.99049  -0.27892 
 H                    -0.28515  -2.22059   1.30422 
 C                    -2.08387  -1.50166  -1.58253 
 H                    -1.41678  -2.1158   -2.19247 
 H                    -2.99673  -2.07434  -1.38321 
 H                    -2.33573  -0.61684  -2.17536 
 
                    Distance matrix (angstroms):
                    1          2          3          4          5
     1  O    0.000000
     2  C    1.370553   0.000000
     3  C    2.441066   1.600001   0.000000
     4  C    2.900003   2.442788   1.456633   0.000000
     5  C    4.128065   3.438950   2.554537   1.480038   0.000000
     6  Fe   1.870109   3.074917   3.892112   4.414929   5.793456
     7  Cl   3.266195   4.463884   5.677461   6.028032   7.218835
     8  C    2.844689   3.074024   2.497638   1.445745   2.533576
     9  Cl   3.373380   3.958781   4.540830   5.557040   6.948768
    10  Cl   3.219377   4.365902   4.479151   4.499302   5.901059
    11  H    3.327677   2.165983   1.094753   2.092394   2.600813
    12  H    3.738768   3.989459   3.455259   2.151949   2.670103
    13  H    3.120169   3.524110   2.799780   2.144221   3.373197
    14  H    1.943512   2.549788   2.606385   2.004829   3.177003
    15  H    4.958628   4.310621   3.125036   2.080310   1.103699
    16  H    4.436964   3.951852   3.392987   2.145557   1.095183
    17  H    4.410031   3.429233   2.683596   2.157534   1.091350
    18  C    2.938035   2.596986   1.541540   2.513226   3.770993
    19  H    3.922887   3.548712   2.175557   2.752437   3.799961
    20  H    3.342482   2.874664   2.173488   3.438306   4.591354
    21  H    2.612866   2.815121   2.194608   2.846309   4.275877
    22  C    2.420966   1.544234   2.513197   3.763009   4.658679
    23  H    3.357042   2.189629   2.720507   3.994046   4.611139
    24  H    2.683786   2.142823   3.466534   4.558182   5.400553
    25  H    2.696585   2.199895   2.802242   4.161350   5.244291
    26  C    2.363681   1.542363   2.593739   2.847412   3.238474
    27  H    2.643072   2.150385   3.527787   3.879501   4.303136
    28  H    3.324466   2.203440   2.811687   3.120596   3.111051
    29  H    2.600952   2.195939   2.923766   2.607712   2.838464
                    6          7          8          9         10
     6  Fe   0.000000
     7  Cl   2.194374   0.000000
     8  C    3.958557   5.472235   0.000000
     9  Cl   2.209150   3.669321   5.469173   0.000000
    10  Cl   2.233184   3.696582   3.493852   3.623845   0.000000
    11  H    4.830447   6.541925   3.407241   5.211905   5.554451
    12  H    4.818584   6.090510   1.089847   6.482011   4.125475
    13  H    3.762497   5.503137   1.095997   5.076048   2.833690
    14  H    3.057750   4.384021   1.128165   4.818795   2.988642
    15  H    6.484423   8.061396   2.948038   7.520677   6.302734
    16  H    6.099011   7.270065   2.696982   7.524092   6.129691
    17  H    6.182835   7.557155   3.441751   7.144528   6.613149
    18  C    3.668684   5.770511   3.013750   3.807179   3.919226
    19  H    4.617608   6.749323   3.255412   4.709529   4.449336
    20  H    3.872337   5.937751   4.048692   3.408160   4.492765
    21  H    2.887546   5.052652   2.806516   3.249198   2.856856
    22  C    3.511658   4.812637   4.512940   3.537213   5.193750
    23  H    4.583508   5.881937   5.016649   4.458850   6.139158
    24  H    3.575865   4.377300   5.170321   3.667572   5.552901
    25  H    3.243488   4.791927   4.765304   2.692038   4.858057
    26  C    4.176135   5.005453   3.565200   5.327332   5.455068
    27  H    4.207570   4.584652   4.414171   5.349257   5.791578
    28  H    5.137102   6.051696   4.157832   6.037687   6.376949
    29  H    4.394612   5.117165   3.063452   5.890084   5.321762
                   11         12         13         14         15
    11  H    0.000000
    12  H    4.240904   0.000000
    13  H    3.776972   1.812858   0.000000
    14  H    3.610198   1.842375   1.696337   0.000000
    15  H    3.094661   2.953235   3.556265   3.842836   0.000000
    16  H    3.572726   2.444144   3.689755   3.244292   1.757477
    17  H    2.310758   3.704722   4.256913   3.896555   1.772653
    18  C    2.177468   4.054143   2.708281   3.177646   4.021484
    19  H    2.564595   4.155244   2.818746   3.744385   3.738775
    20  H    2.461892   5.107177   3.757905   4.063619   4.876803
    21  H    3.089322   3.853246   2.246425   2.784895   4.572062
    22  C    2.620054   5.485587   4.781144   4.008693   5.446820
    23  H    2.361366   5.942950   5.355351   4.694289   5.339999
    24  H    3.614270   6.082573   5.501554   4.479669   6.288159
    25  H    3.028720   5.816963   4.784101   4.297368   5.900849
    26  C    2.801711   4.168368   4.358848   3.053080   4.301043
    27  H    3.746024   4.993139   5.161246   3.699483   5.379216
    28  H    2.583761   4.709432   4.975280   3.885190   4.121565
    29  H    3.298983   3.426075   4.015565   2.592361   3.930226
                   16         17         18         19         20
    16  H    0.000000
    17  H    1.802066   0.000000
    18  C    4.635067   4.044645   0.000000
    19  H    4.728744   4.149189   1.094415   0.000000
    20  H    5.504132   4.658067   1.090255   1.766945   0.000000
    21  H    4.969234   4.728143   1.089812   1.773907   1.763937
    22  C    5.304040   4.393894   3.035898   4.030220   2.716495
    23  H    5.349126   4.115324   3.385499   4.205350   2.975007
    24  H    5.898931   5.111411   4.035565   5.069515   3.720135
    25  H    5.969403   5.094308   2.724936   3.727186   2.126513
    26  C    3.444511   3.022087   3.957181   4.758188   4.301740
    27  H    4.397429   4.057805   4.739441   5.642076   4.947181
    28  H    3.431145   2.536041   4.271380   4.942495   4.527838
    29  H    2.725736   2.887148   4.307060   4.993203   4.875784
                   21         22         23         24         25
    21  H    0.000000
    22  C    3.400120   0.000000
    23  H    4.023748   1.094665   0.000000
    24  H    4.231700   1.093881   1.778517   0.000000
    25  H    2.982286   1.088848   1.787396   1.760421   0.000000
    26  C    4.237013   2.508088   2.771704   2.674123   3.476423
    27  H    4.903063   2.687606   3.060913   2.388947   3.676739
    28  H    4.787578   2.793300   2.608678   3.067696   3.820513
    29  H    4.462261   3.477947   3.802580   3.665383   4.345606
                   26         27         28         29
    26  C    0.000000
    27  H    1.092799   0.000000
    28  H    1.095902   1.775627   0.000000
    29  H    1.094434   1.758306   1.785697   0.000000
 Framework group  C1[X(C8H16Cl3FeO)]
 Deg. of freedom    81
                         Standard orientation:                         
 ---------------------------------------------------------------------
 Center     Atomic      Atomic             Coordinates (Angstroms)
 Number     Number       Type             X           Y           Z
 ---------------------------------------------------------------------
      1          8           0       -0.273670   -0.328071   -0.616677
      2          6           0       -1.338811   -1.124559   -0.285773
      3          6           0       -2.304623   -0.362434    0.737152
      4          6           0       -2.906367    0.729436   -0.016176
      5          6           0       -4.289439    0.624523   -0.532526
      6         26           0        1.465812    0.122031   -0.098102
      7         17           0        2.756961   -0.253231   -1.832285
      8          6           0       -2.080622    1.856918   -0.386456
      9         17           0        2.086664   -1.008719    1.695300
     10         17           0        1.292059    2.287935    0.417439
     11          1           0       -3.078562   -1.089275    1.003996
     12          1           0       -2.561843    2.600957   -1.020963
     13          1           0       -1.541306    2.315934    0.449996
     14          1           0       -1.217852    1.346248   -0.903756
     15          1           0       -4.916870    1.242707    0.132553
     16          1           0       -4.387489    1.058718   -1.533169
     17          1           0       -4.681866   -0.393527   -0.507611
     18          6           0       -1.544721    0.093918    1.998357
     19          1           0       -2.206636    0.677899    2.645333
     20          1           0       -1.200470   -0.772304    2.563871
     21          1           0       -0.675034    0.702199    1.750710
     22          6           0       -0.897675   -2.421632    0.426729
     23          1           0       -1.764033   -3.028536    0.708478
     24          1           0       -0.285277   -2.990493   -0.278921
     25          1           0       -0.285150   -2.220585    1.304216
     26          6           0       -2.083866   -1.501661   -1.582527
     27          1           0       -1.416781   -2.115804   -2.192474
     28          1           0       -2.996727   -2.074340   -1.383214
     29          1           0       -2.335726   -0.616842   -2.175358
 ---------------------------------------------------------------------
 Rotational constants (GHZ):           0.6303012           0.3134432           0.2981990
   427 basis functions,  1056 primitive gaussians,   461 cartesian basis functions
    77 alpha electrons       72 beta electrons
       nuclear repulsion energy      1643.4981497603 Hartrees.
 NAtoms=   29 NActive=   29 NUniq=   29 SFac= 1.00D+00 NAtFMM=   60 NAOKFM=F Big=F
 Initial guess from the checkpoint file:  "checkpoint.chk"
 B after Tr=     0.000000    0.000000    0.000000
         Rot=    1.000000    0.000000    0.000000    0.000000 Ang=   0.00 deg.
 Initial guess <Sx>= 0.0000 <Sy>= 0.0000 <Sz>= 2.5000 <S**2>= 8.7626 S= 2.5021
 SCF Done:  E(UB3LYP) =  -3034.31794665     A.U. after   15 cycles
            NFock= 15  Conv=0.67D-08     -V/T= 2.0024
 <Sx>= 0.0000 <Sy>= 0.0000 <Sz>= 2.5000 <S**2>= 8.7620 S= 2.5020
 <L.S>= 0.000000000000E+00
 Annihilation of the first spin contaminant:
 S**2 before annihilation     8.7620,   after     8.7500
 1\1\GINC-HOLY7C06104\SP\UB3LYP\Jul-CC-pVDZ\C8H16Cl3Fe1O1(6)\EKWAN\11-F
 eb-2020\0\\#t pop=none jul-cc-pvdz guess=read ub3lyp\\theory_abbreviat
 ion b3lyp\\0,6\O,0,-0.27367,-0.328071,-0.616677\C,0,-1.338811,-1.12455
 9,-0.285773\C,0,-2.304623,-0.362434,0.737152\C,0,-2.906367,0.729436,-0
 .016176\C,0,-4.289439,0.624523,-0.532526\Fe,0,1.465812,0.122031,-0.098
 102\Cl,0,2.756961,-0.253231,-1.832285\C,0,-2.080622,1.856918,-0.386456
 \Cl,0,2.086664,-1.008719,1.6953\Cl,0,1.292059,2.287935,0.417439\H,0,-3
 .078562,-1.089275,1.003996\H,0,-2.561843,2.600957,-1.020963\H,0,-1.541
 306,2.315934,0.449996\H,0,-1.217852,1.346248,-0.903756\H,0,-4.91687,1.
 242707,0.132553\H,0,-4.387489,1.058718,-1.533169\H,0,-4.681866,-0.3935
 27,-0.507611\C,0,-1.544721,0.093918,1.998357\H,0,-2.206636,0.677899,2.
 645333\H,0,-1.20047,-0.772304,2.563871\H,0,-0.675034,0.702199,1.75071\
 C,0,-0.897675,-2.421632,0.426729\H,0,-1.764033,-3.028536,0.708478\H,0,
 -0.285277,-2.990493,-0.278921\H,0,-0.28515,-2.220585,1.304216\C,0,-2.0
 83866,-1.501661,-1.582527\H,0,-1.416781,-2.115804,-2.192474\H,0,-2.996
 727,-2.07434,-1.383214\H,0,-2.335726,-0.616842,-2.175358\\Version=ES64
 L-G16RevA.03\HF=-3034.3179466\S2=8.762036\S2-1=0.\S2A=8.750045\RMSD=6.
 681e-09\PG=C01 [X(C8H16Cl3Fe1O1)]\\@


 THERE IS AN OLD, OLD RECIPE IN MAINE FOR STEWING COOT. PLACE THE
 BIRD IN A KETTLE OF WATER WITH A RED BUILDING BRICK FREE OF MORTAR AND
 BLEMISHES. PARBOIL THE COOT AND BRICK TOGETHER FOR THREE HOURS.
 POUR OFF THE WATER, REFILL THE KETTLE, AND AGAIN PARBOIL FOR THREE HOURS.
 ONCE AGAIN POUR OFF THE WATER, FOR THE LAST TIME ADD FRESH WATER,
 AND LET THE COOT AND BRICK SIMMER TOGETHER OVERNIGHT. IN THE MORNING,
 THROW AWAY THE COOT AND EAT THE BRICK.
 Job cpu time:       0 days  1 hours  1 minutes 52.4 seconds.
 Elapsed time:       0 days  0 hours 15 minutes 32.1 seconds.
 File lengths (MBytes):  RWF=    174 Int=      0 D2E=      0 Chk=     13 Scr=      1
 Normal termination of Gaussian 16 at Tue Feb 11 14:13:54 2020.
 Initial command:
 /n/sw/g16_nehalem/g16/l1.exe "/scratch/Gau-377090.inp" -scrdir="/scratch/"
 Entering Link 1 = /n/sw/g16_nehalem/g16/l1.exe PID=    381338.
  
 Copyright (c) 1988,1990,1992,1993,1995,1998,2003,2009,2016,
            Gaussian, Inc.  All Rights Reserved.
  
 This is part of the Gaussian(R) 16 program.  It is based on
 the Gaussian(R) 09 system (copyright 2009, Gaussian, Inc.),
 the Gaussian(R) 03 system (copyright 2003, Gaussian, Inc.),
 the Gaussian(R) 98 system (copyright 1998, Gaussian, Inc.),
 the Gaussian(R) 94 system (copyright 1995, Gaussian, Inc.),
 the Gaussian 92(TM) system (copyright 1992, Gaussian, Inc.),
 the Gaussian 90(TM) system (copyright 1990, Gaussian, Inc.),
 the Gaussian 88(TM) system (copyright 1988, Gaussian, Inc.),
 the Gaussian 86(TM) system (copyright 1986, Carnegie Mellon
 University), and the Gaussian 82(TM) system (copyright 1983,
 Carnegie Mellon University). Gaussian is a federally registered
 trademark of Gaussian, Inc.
  
 This software contains proprietary and confidential information,
 including trade secrets, belonging to Gaussian, Inc.
  
 This software is provided under written license and may be
 used, copied, transmitted, or stored only in accord with that
 written license.
  
 The following legend is applicable only to US Government
 contracts under FAR:
  
                    RESTRICTED RIGHTS LEGEND
  
 Use, reproduction and disclosure by the US Government is
 subject to restrictions as set forth in subparagraphs (a)
 and (c) of the Commercial Computer Software - Restricted
 Rights clause in FAR 52.227-19.
  
 Gaussian, Inc.
 340 Quinnipiac St., Bldg. 40, Wallingford CT 06492
  
  
 ---------------------------------------------------------------
 Warning -- This program may not be used in any manner that
 competes with the business of Gaussian, Inc. or will provide
 assistance to any competitor of Gaussian, Inc.  The licensee
 of this program is prohibited from giving any competitor of
 Gaussian, Inc. access to this program.  By using this program,
 the user acknowledges that Gaussian, Inc. is engaged in the
 business of creating and licensing software in the field of
 computational chemistry and represents and warrants to the
 licensee that it is not a competitor of Gaussian, Inc. and that
 it will not use this program in any manner prohibited above.
 ---------------------------------------------------------------
  

 Cite this work as:
 Gaussian 16, Revision A.03,
 M. J. Frisch, G. W. Trucks, H. B. Schlegel, G. E. Scuseria, 
 M. A. Robb, J. R. Cheeseman, G. Scalmani, V. Barone, 
 G. A. Petersson, H. Nakatsuji, X. Li, M. Caricato, A. V. Marenich, 
 J. Bloino, B. G. Janesko, R. Gomperts, B. Mennucci, H. P. Hratchian, 
 J. V. Ortiz, A. F. Izmaylov, J. L. Sonnenberg, D. Williams-Young, 
 F. Ding, F. Lipparini, F. Egidi, J. Goings, B. Peng, A. Petrone, 
 T. Henderson, D. Ranasinghe, V. G. Zakrzewski, J. Gao, N. Rega, 
 G. Zheng, W. Liang, M. Hada, M. Ehara, K. Toyota, R. Fukuda, 
 J. Hasegawa, M. Ishida, T. Nakajima, Y. Honda, O. Kitao, H. Nakai, 
 T. Vreven, K. Throssell, J. A. Montgomery, Jr., J. E. Peralta, 
 F. Ogliaro, M. J. Bearpark, J. J. Heyd, E. N. Brothers, K. N. Kudin, 
 V. N. Staroverov, T. A. Keith, R. Kobayashi, J. Normand, 
 K. Raghavachari, A. P. Rendell, J. C. Burant, S. S. Iyengar, 
 J. Tomasi, M. Cossi, J. M. Millam, M. Klene, C. Adamo, R. Cammi, 
 J. W. Ochterski, R. L. Martin, K. Morokuma, O. Farkas, 
 J. B. Foresman, and D. J. Fox, Gaussian, Inc., Wallingford CT, 2016.
 
 ******************************************
 Gaussian 16:  ES64L-G16RevA.03 25-Dec-2016
                11-Feb-2020 
 ******************************************
 %chk=checkpoint.chk
 %mem=3GB
 %nprocshared=4
 Will use up to    4 processors via shared memory.
 -------------------------------------------------------------------
 #t pop=none jul-cc-pvdz guess=read ub3lyp empiricaldispersion=gd3bj
 -------------------------------------------------------------------
 ------------------------------
 theory_abbreviation b3lyp_d3bj
 ------------------------------
 Symbolic Z-matrix:
 Charge =  0 Multiplicity = 6
 O                    -0.27367  -0.32807  -0.61668 
 C                    -1.33881  -1.12456  -0.28577 
 C                    -2.30462  -0.36243   0.73715 
 C                    -2.90637   0.72944  -0.01618 
 C                    -4.28944   0.62452  -0.53253 
 Fe                    1.46581   0.12203  -0.0981 
 Cl                    2.75696  -0.25323  -1.83229 
 C                    -2.08062   1.85692  -0.38646 
 Cl                    2.08666  -1.00872   1.6953 
 Cl                    1.29206   2.28794   0.41744 
 H                    -3.07856  -1.08927   1.004 
 H                    -2.56184   2.60096  -1.02096 
 H                    -1.54131   2.31593   0.45 
 H                    -1.21785   1.34625  -0.90376 
 H                    -4.91687   1.24271   0.13255 
 H                    -4.38749   1.05872  -1.53317 
 H                    -4.68187  -0.39353  -0.50761 
 C                    -1.54472   0.09392   1.99836 
 H                    -2.20664   0.6779    2.64533 
 H                    -1.20047  -0.7723    2.56387 
 H                    -0.67503   0.7022    1.75071 
 C                    -0.89768  -2.42163   0.42673 
 H                    -1.76403  -3.02854   0.70848 
 H                    -0.28528  -2.99049  -0.27892 
 H                    -0.28515  -2.22059   1.30422 
 C                    -2.08387  -1.50166  -1.58253 
 H                    -1.41678  -2.1158   -2.19247 
 H                    -2.99673  -2.07434  -1.38321 
 H                    -2.33573  -0.61684  -2.17536 
 
                    Distance matrix (angstroms):
                    1          2          3          4          5
     1  O    0.000000
     2  C    1.370553   0.000000
     3  C    2.441066   1.600001   0.000000
     4  C    2.900003   2.442788   1.456633   0.000000
     5  C    4.128065   3.438950   2.554537   1.480038   0.000000
     6  Fe   1.870109   3.074917   3.892112   4.414929   5.793456
     7  Cl   3.266195   4.463884   5.677461   6.028032   7.218835
     8  C    2.844689   3.074024   2.497638   1.445745   2.533576
     9  Cl   3.373380   3.958781   4.540830   5.557040   6.948768
    10  Cl   3.219377   4.365902   4.479151   4.499302   5.901059
    11  H    3.327677   2.165983   1.094753   2.092394   2.600813
    12  H    3.738768   3.989459   3.455259   2.151949   2.670103
    13  H    3.120169   3.524110   2.799780   2.144221   3.373197
    14  H    1.943512   2.549788   2.606385   2.004829   3.177003
    15  H    4.958628   4.310621   3.125036   2.080310   1.103699
    16  H    4.436964   3.951852   3.392987   2.145557   1.095183
    17  H    4.410031   3.429233   2.683596   2.157534   1.091350
    18  C    2.938035   2.596986   1.541540   2.513226   3.770993
    19  H    3.922887   3.548712   2.175557   2.752437   3.799961
    20  H    3.342482   2.874664   2.173488   3.438306   4.591354
    21  H    2.612866   2.815121   2.194608   2.846309   4.275877
    22  C    2.420966   1.544234   2.513197   3.763009   4.658679
    23  H    3.357042   2.189629   2.720507   3.994046   4.611139
    24  H    2.683786   2.142823   3.466534   4.558182   5.400553
    25  H    2.696585   2.199895   2.802242   4.161350   5.244291
    26  C    2.363681   1.542363   2.593739   2.847412   3.238474
    27  H    2.643072   2.150385   3.527787   3.879501   4.303136
    28  H    3.324466   2.203440   2.811687   3.120596   3.111051
    29  H    2.600952   2.195939   2.923766   2.607712   2.838464
                    6          7          8          9         10
     6  Fe   0.000000
     7  Cl   2.194374   0.000000
     8  C    3.958557   5.472235   0.000000
     9  Cl   2.209150   3.669321   5.469173   0.000000
    10  Cl   2.233184   3.696582   3.493852   3.623845   0.000000
    11  H    4.830447   6.541925   3.407241   5.211905   5.554451
    12  H    4.818584   6.090510   1.089847   6.482011   4.125475
    13  H    3.762497   5.503137   1.095997   5.076048   2.833690
    14  H    3.057750   4.384021   1.128165   4.818795   2.988642
    15  H    6.484423   8.061396   2.948038   7.520677   6.302734
    16  H    6.099011   7.270065   2.696982   7.524092   6.129691
    17  H    6.182835   7.557155   3.441751   7.144528   6.613149
    18  C    3.668684   5.770511   3.013750   3.807179   3.919226
    19  H    4.617608   6.749323   3.255412   4.709529   4.449336
    20  H    3.872337   5.937751   4.048692   3.408160   4.492765
    21  H    2.887546   5.052652   2.806516   3.249198   2.856856
    22  C    3.511658   4.812637   4.512940   3.537213   5.193750
    23  H    4.583508   5.881937   5.016649   4.458850   6.139158
    24  H    3.575865   4.377300   5.170321   3.667572   5.552901
    25  H    3.243488   4.791927   4.765304   2.692038   4.858057
    26  C    4.176135   5.005453   3.565200   5.327332   5.455068
    27  H    4.207570   4.584652   4.414171   5.349257   5.791578
    28  H    5.137102   6.051696   4.157832   6.037687   6.376949
    29  H    4.394612   5.117165   3.063452   5.890084   5.321762
                   11         12         13         14         15
    11  H    0.000000
    12  H    4.240904   0.000000
    13  H    3.776972   1.812858   0.000000
    14  H    3.610198   1.842375   1.696337   0.000000
    15  H    3.094661   2.953235   3.556265   3.842836   0.000000
    16  H    3.572726   2.444144   3.689755   3.244292   1.757477
    17  H    2.310758   3.704722   4.256913   3.896555   1.772653
    18  C    2.177468   4.054143   2.708281   3.177646   4.021484
    19  H    2.564595   4.155244   2.818746   3.744385   3.738775
    20  H    2.461892   5.107177   3.757905   4.063619   4.876803
    21  H    3.089322   3.853246   2.246425   2.784895   4.572062
    22  C    2.620054   5.485587   4.781144   4.008693   5.446820
    23  H    2.361366   5.942950   5.355351   4.694289   5.339999
    24  H    3.614270   6.082573   5.501554   4.479669   6.288159
    25  H    3.028720   5.816963   4.784101   4.297368   5.900849
    26  C    2.801711   4.168368   4.358848   3.053080   4.301043
    27  H    3.746024   4.993139   5.161246   3.699483   5.379216
    28  H    2.583761   4.709432   4.975280   3.885190   4.121565
    29  H    3.298983   3.426075   4.015565   2.592361   3.930226
                   16         17         18         19         20
    16  H    0.000000
    17  H    1.802066   0.000000
    18  C    4.635067   4.044645   0.000000
    19  H    4.728744   4.149189   1.094415   0.000000
    20  H    5.504132   4.658067   1.090255   1.766945   0.000000
    21  H    4.969234   4.728143   1.089812   1.773907   1.763937
    22  C    5.304040   4.393894   3.035898   4.030220   2.716495
    23  H    5.349126   4.115324   3.385499   4.205350   2.975007
    24  H    5.898931   5.111411   4.035565   5.069515   3.720135
    25  H    5.969403   5.094308   2.724936   3.727186   2.126513
    26  C    3.444511   3.022087   3.957181   4.758188   4.301740
    27  H    4.397429   4.057805   4.739441   5.642076   4.947181
    28  H    3.431145   2.536041   4.271380   4.942495   4.527838
    29  H    2.725736   2.887148   4.307060   4.993203   4.875784
                   21         22         23         24         25
    21  H    0.000000
    22  C    3.400120   0.000000
    23  H    4.023748   1.094665   0.000000
    24  H    4.231700   1.093881   1.778517   0.000000
    25  H    2.982286   1.088848   1.787396   1.760421   0.000000
    26  C    4.237013   2.508088   2.771704   2.674123   3.476423
    27  H    4.903063   2.687606   3.060913   2.388947   3.676739
    28  H    4.787578   2.793300   2.608678   3.067696   3.820513
    29  H    4.462261   3.477947   3.802580   3.665383   4.345606
                   26         27         28         29
    26  C    0.000000
    27  H    1.092799   0.000000
    28  H    1.095902   1.775627   0.000000
    29  H    1.094434   1.758306   1.785697   0.000000
 Framework group  C1[X(C8H16Cl3FeO)]
 Deg. of freedom    81
                         Standard orientation:                         
 ---------------------------------------------------------------------
 Center     Atomic      Atomic             Coordinates (Angstroms)
 Number     Number       Type             X           Y           Z
 ---------------------------------------------------------------------
      1          8           0       -0.273670   -0.328071   -0.616677
      2          6           0       -1.338811   -1.124559   -0.285773
      3          6           0       -2.304623   -0.362434    0.737152
      4          6           0       -2.906367    0.729436   -0.016176
      5          6           0       -4.289439    0.624523   -0.532526
      6         26           0        1.465812    0.122031   -0.098102
      7         17           0        2.756961   -0.253231   -1.832285
      8          6           0       -2.080622    1.856918   -0.386456
      9         17           0        2.086664   -1.008719    1.695300
     10         17           0        1.292059    2.287935    0.417439
     11          1           0       -3.078562   -1.089275    1.003996
     12          1           0       -2.561843    2.600957   -1.020963
     13          1           0       -1.541306    2.315934    0.449996
     14          1           0       -1.217852    1.346248   -0.903756
     15          1           0       -4.916870    1.242707    0.132553
     16          1           0       -4.387489    1.058718   -1.533169
     17          1           0       -4.681866   -0.393527   -0.507611
     18          6           0       -1.544721    0.093918    1.998357
     19          1           0       -2.206636    0.677899    2.645333
     20          1           0       -1.200470   -0.772304    2.563871
     21          1           0       -0.675034    0.702199    1.750710
     22          6           0       -0.897675   -2.421632    0.426729
     23          1           0       -1.764033   -3.028536    0.708478
     24          1           0       -0.285277   -2.990493   -0.278921
     25          1           0       -0.285150   -2.220585    1.304216
     26          6           0       -2.083866   -1.501661   -1.582527
     27          1           0       -1.416781   -2.115804   -2.192474
     28          1           0       -2.996727   -2.074340   -1.383214
     29          1           0       -2.335726   -0.616842   -2.175358
 ---------------------------------------------------------------------
 Rotational constants (GHZ):           0.6303012           0.3134432           0.2981990
   427 basis functions,  1056 primitive gaussians,   461 cartesian basis functions
    77 alpha electrons       72 beta electrons
       nuclear repulsion energy      1643.4981497603 Hartrees.
 NAtoms=   29 NActive=   29 NUniq=   29 SFac= 1.00D+00 NAtFMM=   60 NAOKFM=F Big=F
 Nuclear repulsion after empirical dispersion term =     1643.4293131512 Hartrees.
 Initial guess from the checkpoint file:  "checkpoint.chk"
 B after Tr=     0.000000    0.000000    0.000000
         Rot=    1.000000    0.000000    0.000000    0.000000 Ang=   0.00 deg.
 Initial guess <Sx>= 0.0000 <Sy>= 0.0000 <Sz>= 2.5000 <S**2>= 8.7620 S= 2.5020
 SCF Done:  E(UB3LYP) =  -3034.38678326     A.U. after    1 cycles
            NFock=  1  Conv=0.16D-08     -V/T= 2.0024
 <Sx>= 0.0000 <Sy>= 0.0000 <Sz>= 2.5000 <S**2>= 8.7620 S= 2.5020
 <L.S>= 0.000000000000E+00
 Annihilation of the first spin contaminant:
 S**2 before annihilation     8.7620,   after     8.7500
 1\1\GINC-HOLY7C06104\SP\UB3LYP\Jul-CC-pVDZ\C8H16Cl3Fe1O1(6)\EKWAN\11-F
 eb-2020\0\\#t pop=none jul-cc-pvdz guess=read ub3lyp empiricaldispersi
 on=gd3bj\\theory_abbreviation b3lyp_d3bj\\0,6\O,0,-0.27367,-0.328071,-
 0.616677\C,0,-1.338811,-1.124559,-0.285773\C,0,-2.304623,-0.362434,0.7
 37152\C,0,-2.906367,0.729436,-0.016176\C,0,-4.289439,0.624523,-0.53252
 6\Fe,0,1.465812,0.122031,-0.098102\Cl,0,2.756961,-0.253231,-1.832285\C
 ,0,-2.080622,1.856918,-0.386456\Cl,0,2.086664,-1.008719,1.6953\Cl,0,1.
 292059,2.287935,0.417439\H,0,-3.078562,-1.089275,1.003996\H,0,-2.56184
 3,2.600957,-1.020963\H,0,-1.541306,2.315934,0.449996\H,0,-1.217852,1.3
 46248,-0.903756\H,0,-4.91687,1.242707,0.132553\H,0,-4.387489,1.058718,
 -1.533169\H,0,-4.681866,-0.393527,-0.507611\C,0,-1.544721,0.093918,1.9
 98357\H,0,-2.206636,0.677899,2.645333\H,0,-1.20047,-0.772304,2.563871\
 H,0,-0.675034,0.702199,1.75071\C,0,-0.897675,-2.421632,0.426729\H,0,-1
 .764033,-3.028536,0.708478\H,0,-0.285277,-2.990493,-0.278921\H,0,-0.28
 515,-2.220585,1.304216\C,0,-2.083866,-1.501661,-1.582527\H,0,-1.416781
 ,-2.115804,-2.192474\H,0,-2.996727,-2.07434,-1.383214\H,0,-2.335726,-0
 .616842,-2.175358\\Version=ES64L-G16RevA.03\HF=-3034.3867833\S2=8.7620
 36\S2-1=0.\S2A=8.750045\RMSD=1.617e-09\PG=C01 [X(C8H16Cl3Fe1O1)]\\@


 MISERY NO LONGER LOVES COMPANY.  NOWADAYS IT INSISTS ON IT.

                                              -- BAKER'S LAW
 Job cpu time:       0 days  0 hours  4 minutes 57.8 seconds.
 Elapsed time:       0 days  0 hours  1 minutes 26.0 seconds.
 File lengths (MBytes):  RWF=    170 Int=      0 D2E=      0 Chk=     13 Scr=      1
 Normal termination of Gaussian 16 at Tue Feb 11 14:15:21 2020.
 Initial command:
 /n/sw/g16_nehalem/g16/l1.exe "/scratch/Gau-377090.inp" -scrdir="/scratch/"
 Entering Link 1 = /n/sw/g16_nehalem/g16/l1.exe PID=    381558.
  
 Copyright (c) 1988,1990,1992,1993,1995,1998,2003,2009,2016,
            Gaussian, Inc.  All Rights Reserved.
  
 This is part of the Gaussian(R) 16 program.  It is based on
 the Gaussian(R) 09 system (copyright 2009, Gaussian, Inc.),
 the Gaussian(R) 03 system (copyright 2003, Gaussian, Inc.),
 the Gaussian(R) 98 system (copyright 1998, Gaussian, Inc.),
 the Gaussian(R) 94 system (copyright 1995, Gaussian, Inc.),
 the Gaussian 92(TM) system (copyright 1992, Gaussian, Inc.),
 the Gaussian 90(TM) system (copyright 1990, Gaussian, Inc.),
 the Gaussian 88(TM) system (copyright 1988, Gaussian, Inc.),
 the Gaussian 86(TM) system (copyright 1986, Carnegie Mellon
 University), and the Gaussian 82(TM) system (copyright 1983,
 Carnegie Mellon University). Gaussian is a federally registered
 trademark of Gaussian, Inc.
  
 This software contains proprietary and confidential information,
 including trade secrets, belonging to Gaussian, Inc.
  
 This software is provided under written license and may be
 used, copied, transmitted, or stored only in accord with that
 written license.
  
 The following legend is applicable only to US Government
 contracts under FAR:
  
                    RESTRICTED RIGHTS LEGEND
  
 Use, reproduction and disclosure by the US Government is
 subject to restrictions as set forth in subparagraphs (a)
 and (c) of the Commercial Computer Software - Restricted
 Rights clause in FAR 52.227-19.
  
 Gaussian, Inc.
 340 Quinnipiac St., Bldg. 40, Wallingford CT 06492
  
  
 ---------------------------------------------------------------
 Warning -- This program may not be used in any manner that
 competes with the business of Gaussian, Inc. or will provide
 assistance to any competitor of Gaussian, Inc.  The licensee
 of this program is prohibited from giving any competitor of
 Gaussian, Inc. access to this program.  By using this program,
 the user acknowledges that Gaussian, Inc. is engaged in the
 business of creating and licensing software in the field of
 computational chemistry and represents and warrants to the
 licensee that it is not a competitor of Gaussian, Inc. and that
 it will not use this program in any manner prohibited above.
 ---------------------------------------------------------------
  

 Cite this work as:
 Gaussian 16, Revision A.03,
 M. J. Frisch, G. W. Trucks, H. B. Schlegel, G. E. Scuseria, 
 M. A. Robb, J. R. Cheeseman, G. Scalmani, V. Barone, 
 G. A. Petersson, H. Nakatsuji, X. Li, M. Caricato, A. V. Marenich, 
 J. Bloino, B. G. Janesko, R. Gomperts, B. Mennucci, H. P. Hratchian, 
 J. V. Ortiz, A. F. Izmaylov, J. L. Sonnenberg, D. Williams-Young, 
 F. Ding, F. Lipparini, F. Egidi, J. Goings, B. Peng, A. Petrone, 
 T. Henderson, D. Ranasinghe, V. G. Zakrzewski, J. Gao, N. Rega, 
 G. Zheng, W. Liang, M. Hada, M. Ehara, K. Toyota, R. Fukuda, 
 J. Hasegawa, M. Ishida, T. Nakajima, Y. Honda, O. Kitao, H. Nakai, 
 T. Vreven, K. Throssell, J. A. Montgomery, Jr., J. E. Peralta, 
 F. Ogliaro, M. J. Bearpark, J. J. Heyd, E. N. Brothers, K. N. Kudin, 
 V. N. Staroverov, T. A. Keith, R. Kobayashi, J. Normand, 
 K. Raghavachari, A. P. Rendell, J. C. Burant, S. S. Iyengar, 
 J. Tomasi, M. Cossi, J. M. Millam, M. Klene, C. Adamo, R. Cammi, 
 J. W. Ochterski, R. L. Martin, K. Morokuma, O. Farkas, 
 J. B. Foresman, and D. J. Fox, Gaussian, Inc., Wallingford CT, 2016.
 
 ******************************************
 Gaussian 16:  ES64L-G16RevA.03 25-Dec-2016
                11-Feb-2020 
 ******************************************
 %chk=checkpoint.chk
 %mem=3GB
 %nprocshared=4
 Will use up to    4 processors via shared memory.
 ----------------------------------------
 #t pop=none jul-cc-pvdz guess=read ub97d
 ----------------------------------------
 ------------------------
 theory_abbreviation b97d
 ------------------------
 Symbolic Z-matrix:
 Charge =  0 Multiplicity = 6
 O                    -0.27367  -0.32807  -0.61668 
 C                    -1.33881  -1.12456  -0.28577 
 C                    -2.30462  -0.36243   0.73715 
 C                    -2.90637   0.72944  -0.01618 
 C                    -4.28944   0.62452  -0.53253 
 Fe                    1.46581   0.12203  -0.0981 
 Cl                    2.75696  -0.25323  -1.83229 
 C                    -2.08062   1.85692  -0.38646 
 Cl                    2.08666  -1.00872   1.6953 
 Cl                    1.29206   2.28794   0.41744 
 H                    -3.07856  -1.08927   1.004 
 H                    -2.56184   2.60096  -1.02096 
 H                    -1.54131   2.31593   0.45 
 H                    -1.21785   1.34625  -0.90376 
 H                    -4.91687   1.24271   0.13255 
 H                    -4.38749   1.05872  -1.53317 
 H                    -4.68187  -0.39353  -0.50761 
 C                    -1.54472   0.09392   1.99836 
 H                    -2.20664   0.6779    2.64533 
 H                    -1.20047  -0.7723    2.56387 
 H                    -0.67503   0.7022    1.75071 
 C                    -0.89768  -2.42163   0.42673 
 H                    -1.76403  -3.02854   0.70848 
 H                    -0.28528  -2.99049  -0.27892 
 H                    -0.28515  -2.22059   1.30422 
 C                    -2.08387  -1.50166  -1.58253 
 H                    -1.41678  -2.1158   -2.19247 
 H                    -2.99673  -2.07434  -1.38321 
 H                    -2.33573  -0.61684  -2.17536 
 
                    Distance matrix (angstroms):
                    1          2          3          4          5
     1  O    0.000000
     2  C    1.370553   0.000000
     3  C    2.441066   1.600001   0.000000
     4  C    2.900003   2.442788   1.456633   0.000000
     5  C    4.128065   3.438950   2.554537   1.480038   0.000000
     6  Fe   1.870109   3.074917   3.892112   4.414929   5.793456
     7  Cl   3.266195   4.463884   5.677461   6.028032   7.218835
     8  C    2.844689   3.074024   2.497638   1.445745   2.533576
     9  Cl   3.373380   3.958781   4.540830   5.557040   6.948768
    10  Cl   3.219377   4.365902   4.479151   4.499302   5.901059
    11  H    3.327677   2.165983   1.094753   2.092394   2.600813
    12  H    3.738768   3.989459   3.455259   2.151949   2.670103
    13  H    3.120169   3.524110   2.799780   2.144221   3.373197
    14  H    1.943512   2.549788   2.606385   2.004829   3.177003
    15  H    4.958628   4.310621   3.125036   2.080310   1.103699
    16  H    4.436964   3.951852   3.392987   2.145557   1.095183
    17  H    4.410031   3.429233   2.683596   2.157534   1.091350
    18  C    2.938035   2.596986   1.541540   2.513226   3.770993
    19  H    3.922887   3.548712   2.175557   2.752437   3.799961
    20  H    3.342482   2.874664   2.173488   3.438306   4.591354
    21  H    2.612866   2.815121   2.194608   2.846309   4.275877
    22  C    2.420966   1.544234   2.513197   3.763009   4.658679
    23  H    3.357042   2.189629   2.720507   3.994046   4.611139
    24  H    2.683786   2.142823   3.466534   4.558182   5.400553
    25  H    2.696585   2.199895   2.802242   4.161350   5.244291
    26  C    2.363681   1.542363   2.593739   2.847412   3.238474
    27  H    2.643072   2.150385   3.527787   3.879501   4.303136
    28  H    3.324466   2.203440   2.811687   3.120596   3.111051
    29  H    2.600952   2.195939   2.923766   2.607712   2.838464
                    6          7          8          9         10
     6  Fe   0.000000
     7  Cl   2.194374   0.000000
     8  C    3.958557   5.472235   0.000000
     9  Cl   2.209150   3.669321   5.469173   0.000000
    10  Cl   2.233184   3.696582   3.493852   3.623845   0.000000
    11  H    4.830447   6.541925   3.407241   5.211905   5.554451
    12  H    4.818584   6.090510   1.089847   6.482011   4.125475
    13  H    3.762497   5.503137   1.095997   5.076048   2.833690
    14  H    3.057750   4.384021   1.128165   4.818795   2.988642
    15  H    6.484423   8.061396   2.948038   7.520677   6.302734
    16  H    6.099011   7.270065   2.696982   7.524092   6.129691
    17  H    6.182835   7.557155   3.441751   7.144528   6.613149
    18  C    3.668684   5.770511   3.013750   3.807179   3.919226
    19  H    4.617608   6.749323   3.255412   4.709529   4.449336
    20  H    3.872337   5.937751   4.048692   3.408160   4.492765
    21  H    2.887546   5.052652   2.806516   3.249198   2.856856
    22  C    3.511658   4.812637   4.512940   3.537213   5.193750
    23  H    4.583508   5.881937   5.016649   4.458850   6.139158
    24  H    3.575865   4.377300   5.170321   3.667572   5.552901
    25  H    3.243488   4.791927   4.765304   2.692038   4.858057
    26  C    4.176135   5.005453   3.565200   5.327332   5.455068
    27  H    4.207570   4.584652   4.414171   5.349257   5.791578
    28  H    5.137102   6.051696   4.157832   6.037687   6.376949
    29  H    4.394612   5.117165   3.063452   5.890084   5.321762
                   11         12         13         14         15
    11  H    0.000000
    12  H    4.240904   0.000000
    13  H    3.776972   1.812858   0.000000
    14  H    3.610198   1.842375   1.696337   0.000000
    15  H    3.094661   2.953235   3.556265   3.842836   0.000000
    16  H    3.572726   2.444144   3.689755   3.244292   1.757477
    17  H    2.310758   3.704722   4.256913   3.896555   1.772653
    18  C    2.177468   4.054143   2.708281   3.177646   4.021484
    19  H    2.564595   4.155244   2.818746   3.744385   3.738775
    20  H    2.461892   5.107177   3.757905   4.063619   4.876803
    21  H    3.089322   3.853246   2.246425   2.784895   4.572062
    22  C    2.620054   5.485587   4.781144   4.008693   5.446820
    23  H    2.361366   5.942950   5.355351   4.694289   5.339999
    24  H    3.614270   6.082573   5.501554   4.479669   6.288159
    25  H    3.028720   5.816963   4.784101   4.297368   5.900849
    26  C    2.801711   4.168368   4.358848   3.053080   4.301043
    27  H    3.746024   4.993139   5.161246   3.699483   5.379216
    28  H    2.583761   4.709432   4.975280   3.885190   4.121565
    29  H    3.298983   3.426075   4.015565   2.592361   3.930226
[...]
 Rotational constants (GHZ):           0.6303012           0.3134432           0.2981990
   427 basis functions,  1056 primitive gaussians,   461 cartesian basis functions
    77 alpha electrons       72 beta electrons
       nuclear repulsion energy      1643.4981497603 Hartrees.
 NAtoms=   29 NActive=   29 NUniq=   29 SFac= 1.00D+00 NAtFMM=   60 NAOKFM=F Big=F
 Nuclear repulsion after empirical dispersion term =     1643.4957796304 Hartrees.
 Initial guess from the checkpoint file:  "checkpoint.chk"
 B after Tr=     0.000000    0.000000    0.000000
         Rot=    1.000000    0.000000    0.000000    0.000000 Ang=   0.00 deg.
 Initial guess <Sx>= 0.0000 <Sy>= 0.0000 <Sz>= 2.5000 <S**2>= 8.7617 S= 2.5020
 SCF Done:  E(UM06L) =  -3034.18605635     A.U. after   18 cycles
            NFock= 18  Conv=0.29D-08     -V/T= 2.0020
 <Sx>= 0.0000 <Sy>= 0.0000 <Sz>= 2.5000 <S**2>= 8.7623 S= 2.5020
 <L.S>= 0.000000000000E+00
 Annihilation of the first spin contaminant:
 S**2 before annihilation     8.7623,   after     8.7500
 1\1\GINC-HOLY7C06104\SP\UM06L\Jul-CC-pVDZ\C8H16Cl3Fe1O1(6)\EKWAN\11-Fe
 b-2020\0\\#t pop=none jul-cc-pvdz guess=read um06l empiricaldispersion
 =gd3\\theory_abbreviation m06l_d3\\0,6\O,0,-0.27367,-0.328071,-0.61667
 7\C,0,-1.338811,-1.124559,-0.285773\C,0,-2.304623,-0.362434,0.737152\C
 ,0,-2.906367,0.729436,-0.016176\C,0,-4.289439,0.624523,-0.532526\Fe,0,
 1.465812,0.122031,-0.098102\Cl,0,2.756961,-0.253231,-1.832285\C,0,-2.0
 80622,1.856918,-0.386456\Cl,0,2.086664,-1.008719,1.6953\Cl,0,1.292059,
 2.287935,0.417439\H,0,-3.078562,-1.089275,1.003996\H,0,-2.561843,2.600
 957,-1.020963\H,0,-1.541306,2.315934,0.449996\H,0,-1.217852,1.346248,-
 0.903756\H,0,-4.91687,1.242707,0.132553\H,0,-4.387489,1.058718,-1.5331
 69\H,0,-4.681866,-0.393527,-0.507611\C,0,-1.544721,0.093918,1.998357\H
 ,0,-2.206636,0.677899,2.645333\H,0,-1.20047,-0.772304,2.563871\H,0,-0.
 675034,0.702199,1.75071\C,0,-0.897675,-2.421632,0.426729\H,0,-1.764033
 ,-3.028536,0.708478\H,0,-0.285277,-2.990493,-0.278921\H,0,-0.28515,-2.
 220585,1.304216\C,0,-2.083866,-1.501661,-1.582527\H,0,-1.416781,-2.115
 804,-2.192474\H,0,-2.996727,-2.07434,-1.383214\H,0,-2.335726,-0.616842
 ,-2.175358\\Version=ES64L-G16RevA.03\HF=-3034.1860563\S2=8.762297\S2-1
 =0.\S2A=8.750048\RMSD=2.852e-09\PG=C01 [X(C8H16Cl3Fe1O1)]\\@


 JUST WHEN YOU THINK YOU'VE GOT THE WORLD ON A STRING,
 YOU FIND OUT IT'S YOUR LEASH.
 Job cpu time:       0 days  1 hours 18 minutes 26.0 seconds.
 Elapsed time:       0 days  0 hours 19 minutes 39.8 seconds.
 File lengths (MBytes):  RWF=    174 Int=      0 D2E=      0 Chk=     13 Scr=      1
 Normal termination of Gaussian 16 at Tue Feb 11 23:25:15 2020.
 Initial command:
 /n/sw/g16_nehalem/g16/l1.exe "/scratch/Gau-377090.inp" -scrdir="/scratch/"
 Entering Link 1 = /n/sw/g16_nehalem/g16/l1.exe PID=    434721.
  
 Copyright (c) 1988,1990,1992,1993,1995,1998,2003,2009,2016,
            Gaussian, Inc.  All Rights Reserved.
  
 This is part of the Gaussian(R) 16 program.  It is based on
 the Gaussian(R) 09 system (copyright 2009, Gaussian, Inc.),
 the Gaussian(R) 03 system (copyright 2003, Gaussian, Inc.),
 the Gaussian(R) 98 system (copyright 1998, Gaussian, Inc.),
 the Gaussian(R) 94 system (copyright 1995, Gaussian, Inc.),
 the Gaussian 92(TM) system (copyright 1992, Gaussian, Inc.),
 the Gaussian 90(TM) system (copyright 1990, Gaussian, Inc.),
 the Gaussian 88(TM) system (copyright 1988, Gaussian, Inc.),
 the Gaussian 86(TM) system (copyright 1986, Carnegie Mellon
 University), and the Gaussian 82(TM) system (copyright 1983,
 Carnegie Mellon University). Gaussian is a federally registered
 trademark of Gaussian, Inc.
  
 This software contains proprietary and confidential information,
 including trade secrets, belonging to Gaussian, Inc.
  
 This software is provided under written license and may be
 used, copied, transmitted, or stored only in accord with that
 written license.
  
 The following legend is applicable only to US Government
 contracts under FAR:
  
                    RESTRICTED RIGHTS LEGEND
  
 Use, reproduction and disclosure by the US Government is
 subject to restrictions as set forth in subparagraphs (a)
 and (c) of the Commercial Computer Software - Restricted
 Rights clause in FAR 52.227-19.
  
 Gaussian, Inc.
 340 Quinnipiac St., Bldg. 40, Wallingford CT 06492
  
  
 ---------------------------------------------------------------
 Warning -- This program may not be used in any manner that
 competes with the business of Gaussian, Inc. or will provide
 assistance to any competitor of Gaussian, Inc.  The licensee
 of this program is prohibited from giving any competitor of
 Gaussian, Inc. access to this program.  By using this program,
 the user acknowledges that Gaussian, Inc. is engaged in the
 business of creating and licensing software in the field of
 computational chemistry and represents and warrants to the
 licensee that it is not a competitor of Gaussian, Inc. and that
 it will not use this program in any manner prohibited above.
 ---------------------------------------------------------------
  

 Cite this work as:
 Gaussian 16, Revision A.03,
 M. J. Frisch, G. W. Trucks, H. B. Schlegel, G. E. Scuseria, 
 M. A. Robb, J. R. Cheeseman, G. Scalmani, V. Barone, 
 G. A. Petersson, H. Nakatsuji, X. Li, M. Caricato, A. V. Marenich, 
 J. Bloino, B. G. Janesko, R. Gomperts, B. Mennucci, H. P. Hratchian, 
 J. V. Ortiz, A. F. Izmaylov, J. L. Sonnenberg, D. Williams-Young, 
 F. Ding, F. Lipparini, F. Egidi, J. Goings, B. Peng, A. Petrone, 
 T. Henderson, D. Ranasinghe, V. G. Zakrzewski, J. Gao, N. Rega, 
 G. Zheng, W. Liang, M. Hada, M. Ehara, K. Toyota, R. Fukuda, 
 J. Hasegawa, M. Ishida, T. Nakajima, Y. Honda, O. Kitao, H. Nakai, 
 T. Vreven, K. Throssell, J. A. Montgomery, Jr., J. E. Peralta, 
 F. Ogliaro, M. J. Bearpark, J. J. Heyd, E. N. Brothers, K. N. Kudin, 
 V. N. Staroverov, T. A. Keith, R. Kobayashi, J. Normand, 
 K. Raghavachari, A. P. Rendell, J. C. Burant, S. S. Iyengar, 
 J. Tomasi, M. Cossi, J. M. Millam, M. Klene, C. Adamo, R. Cammi, 
 J. W. Ochterski, R. L. Martin, K. Morokuma, O. Farkas, 
 J. B. Foresman, and D. J. Fox, Gaussian, Inc., Wallingford CT, 2016.
 
 ******************************************
 Gaussian 16:  ES64L-G16RevA.03 25-Dec-2016
                11-Feb-2020 
 ******************************************
 %chk=checkpoint.chk
 %mem=3GB
 %nprocshared=4
 Will use up to    4 processors via shared memory.
 -------------------------------------------------------------------
 #t pop=none jul-cc-pvdz guess=read ub97d3 empiricaldispersion=gd3bj
 -------------------------------------------------------------------
 ------------------------------
 theory_abbreviation b97d3_d3bj
 ------------------------------
 Symbolic Z-matrix:
 Charge =  0 Multiplicity = 6
 O                    -0.27367  -0.32807  -0.61668 
 C                    -1.33881  -1.12456  -0.28577 
 C                    -2.30462  -0.36243   0.73715 
 C                    -2.90637   0.72944  -0.01618 
 C                    -4.28944   0.62452  -0.53253 
 Fe                    1.46581   0.12203  -0.0981 
 Cl                    2.75696  -0.25323  -1.83229 
 C                    -2.08062   1.85692  -0.38646 
 Cl                    2.08666  -1.00872   1.6953 
 Cl                    1.29206   2.28794   0.41744 
 H                    -3.07856  -1.08927   1.004 
 H                    -2.56184   2.60096  -1.02096 
 H                    -1.54131   2.31593   0.45 
 H                    -1.21785   1.34625  -0.90376 
 H                    -4.91687   1.24271   0.13255 
 H                    -4.38749   1.05872  -1.53317 
 H                    -4.68187  -0.39353  -0.50761 
 C                    -1.54472   0.09392   1.99836 
 H                    -2.20664   0.6779    2.64533 
 H                    -1.20047  -0.7723    2.56387 
 H                    -0.67503   0.7022    1.75071 
 C                    -0.89768  -2.42163   0.42673 
 H                    -1.76403  -3.02854   0.70848 
 H                    -0.28528  -2.99049  -0.27892 
 H                    -0.28515  -2.22059   1.30422 
 C                    -2.08387  -1.50166  -1.58253 
 H                    -1.41678  -2.1158   -2.19247 
 H                    -2.99673  -2.07434  -1.38321 
 H                    -2.33573  -0.61684  -2.17536 
 
                    Distance matrix (angstroms):
                    1          2          3          4          5
     1  O    0.000000
     2  C    1.370553   0.000000
     3  C    2.441066   1.600001   0.000000
     4  C    2.900003   2.442788   1.456633   0.000000
     5  C    4.128065   3.438950   2.554537   1.480038   0.000000
     6  Fe   1.870109   3.074917   3.892112   4.414929   5.793456
     7  Cl   3.266195   4.463884   5.677461   6.028032   7.218835
     8  C    2.844689   3.074024   2.497638   1.445745   2.533576
     9  Cl   3.373380   3.958781   4.540830   5.557040   6.948768
    10  Cl   3.219377   4.365902   4.479151   4.499302   5.901059
    11  H    3.327677   2.165983   1.094753   2.092394   2.600813
    12  H    3.738768   3.989459   3.455259   2.151949   2.670103
    13  H    3.120169   3.524110   2.799780   2.144221   3.373197
    14  H    1.943512   2.549788   2.606385   2.004829   3.177003
    15  H    4.958628   4.310621   3.125036   2.080310   1.103699
    16  H    4.436964   3.951852   3.392987   2.145557   1.095183
    17  H    4.410031   3.429233   2.683596   2.157534   1.091350
    18  C    2.938035   2.596986   1.541540   2.513226   3.770993
    19  H    3.922887   3.548712   2.175557   2.752437   3.799961
    20  H    3.342482   2.874664   2.173488   3.438306   4.591354
    21  H    2.612866   2.815121   2.194608   2.846309   4.275877
    22  C    2.420966   1.544234   2.513197   3.763009   4.658679
    23  H    3.357042   2.189629   2.720507   3.994046   4.611139
    24  H    2.683786   2.142823   3.466534   4.558182   5.400553
    25  H    2.696585   2.199895   2.802242   4.161350   5.244291
    26  C    2.363681   1.542363   2.593739   2.847412   3.238474
    27  H    2.643072   2.150385   3.527787   3.879501   4.303136
    28  H    3.324466   2.203440   2.811687   3.120596   3.111051
    29  H    2.600952   2.195939   2.923766   2.607712   2.838464
                    6          7          8          9         10
     6  Fe   0.000000
     7  Cl   2.194374   0.000000
     8  C    3.958557   5.472235   0.000000
     9  Cl   2.209150   3.669321   5.469173   0.000000
    10  Cl   2.233184   3.696582   3.493852   3.623845   0.000000
    11  H    4.830447   6.541925   3.407241   5.211905   5.554451
    12  H    4.818584   6.090510   1.089847   6.482011   4.125475
    13  H    3.762497   5.503137   1.095997   5.076048   2.833690
    14  H    3.057750   4.384021   1.128165   4.818795   2.988642
    15  H    6.484423   8.061396   2.948038   7.520677   6.302734
    16  H    6.099011   7.270065   2.696982   7.524092   6.129691
    17  H    6.182835   7.557155   3.441751   7.144528   6.613149
    18  C    3.668684   5.770511   3.013750   3.807179   3.919226
    19  H    4.617608   6.749323   3.255412   4.709529   4.449336
    20  H    3.872337   5.937751   4.048692   3.408160   4.492765
    21  H    2.887546   5.052652   2.806516   3.249198   2.856856
    22  C    3.511658   4.812637   4.512940   3.537213   5.193750
    23  H    4.583508   5.881937   5.016649   4.458850   6.139158
    24  H    3.575865   4.377300   5.170321   3.667572   5.552901
    25  H    3.243488   4.791927   4.765304   2.692038   4.858057
    26  C    4.176135   5.005453   3.565200   5.327332   5.455068
    27  H    4.207570   4.584652   4.414171   5.349257   5.791578
    28  H    5.137102   6.051696   4.157832   6.037687   6.376949
    29  H    4.394612   5.117165   3.063452   5.890084   5.321762
                   11         12         13         14         15
    11  H    0.000000
    12  H    4.240904   0.000000
    13  H    3.776972   1.812858   0.000000
    14  H    3.610198   1.842375   1.696337   0.000000
    15  H    3.094661   2.953235   3.556265   3.842836   0.000000
    16  H    3.572726   2.444144   3.689755   3.244292   1.757477
    17  H    2.310758   3.704722   4.256913   3.896555   1.772653
    18  C    2.177468   4.054143   2.708281   3.177646   4.021484
    19  H    2.564595   4.155244   2.818746   3.744385   3.738775
    20  H    2.461892   5.107177   3.757905   4.063619   4.876803
    21  H    3.089322   3.853246   2.246425   2.784895   4.572062
    22  C    2.620054   5.485587   4.781144   4.008693   5.446820
    23  H    2.361366   5.942950   5.355351   4.694289   5.339999
    24  H    3.614270   6.082573   5.501554   4.479669   6.288159
    25  H    3.028720   5.816963   4.784101   4.297368   5.900849
    26  C    2.801711   4.168368   4.358848   3.053080   4.301043
    27  H    3.746024   4.993139   5.161246   3.699483   5.379216
    28  H    2.583761   4.709432   4.975280   3.885190   4.121565
    29  H    3.298983   3.426075   4.015565   2.592361   3.930226
                   16         17         18         19         20
    16  H    0.000000
    17  H    1.802066   0.000000
    18  C    4.635067   4.044645   0.000000
    19  H    4.728744   4.149189   1.094415   0.000000
    20  H    5.504132   4.658067   1.090255   1.766945   0.000000
    21  H    4.969234   4.728143   1.089812   1.773907   1.763937
    22  C    5.304040   4.393894   3.035898   4.030220   2.716495
    23  H    5.349126   4.115324   3.385499   4.205350   2.975007
    24  H    5.898931   5.111411   4.035565   5.069515   3.720135
    25  H    5.969403   5.094308   2.724936   3.727186   2.126513
    26  C    3.444511   3.022087   3.957181   4.758188   4.301740
    27  H    4.397429   4.057805   4.739441   5.642076   4.947181
    28  H    3.431145   2.536041   4.271380   4.942495   4.527838
    29  H    2.725736   2.887148   4.307060   4.993203   4.875784
                   21         22         23         24         25
    21  H    0.000000
    22  C    3.400120   0.000000
    23  H    4.023748   1.094665   0.000000
    24  H    4.231700   1.093881   1.778517   0.000000
    25  H    2.982286   1.088848   1.787396   1.760421   0.000000
    26  C    4.237013   2.508088   2.771704   2.674123   3.476423
    27  H    4.903063   2.687606   3.060913   2.388947   3.676739
    28  H    4.787578   2.793300   2.608678   3.067696   3.820513
    29  H    4.462261   3.477947   3.802580   3.665383   4.345606
                   26         27         28         29
    26  C    0.000000
    27  H    1.092799   0.000000
    28  H    1.095902   1.775627   0.000000
    29  H    1.094434   1.758306   1.785697   0.000000
 Framework group  C1[X(C8H16Cl3FeO)]
 Deg. of freedom    81
                         Standard orientation:                         
 ---------------------------------------------------------------------
 Center     Atomic      Atomic             Coordinates (Angstroms)
 Number     Number       Type             X           Y           Z
 ---------------------------------------------------------------------
      1          8           0       -0.273670   -0.328071   -0.616677
      2          6           0       -1.338811   -1.124559   -0.285773
      3          6           0       -2.304623   -0.362434    0.737152
      4          6           0       -2.906367    0.729436   -0.016176
      5          6           0       -4.289439    0.624523   -0.532526
      6         26           0        1.465812    0.122031   -0.098102
      7         17           0        2.756961   -0.253231   -1.832285
      8          6           0       -2.080622    1.856918   -0.386456
      9         17           0        2.086664   -1.008719    1.695300
     10         17           0        1.292059    2.287935    0.417439
     11          1           0       -3.078562   -1.089275    1.003996
     12          1           0       -2.561843    2.600957   -1.020963
     13          1           0       -1.541306    2.315934    0.449996
     14          1           0       -1.217852    1.346248   -0.903756
     15          1           0       -4.916870    1.242707    0.132553
     16          1           0       -4.387489    1.058718   -1.533169
     17          1           0       -4.681866   -0.393527   -0.507611
     18          6           0       -1.544721    0.093918    1.998357
     19          1           0       -2.206636    0.677899    2.645333
     20          1           0       -1.200470   -0.772304    2.563871
     21          1           0       -0.675034    0.702199    1.750710
     22          6           0       -0.897675   -2.421632    0.426729
     23          1           0       -1.764033   -3.028536    0.708478
     24          1           0       -0.285277   -2.990493   -0.278921
     25          1           0       -0.285150   -2.220585    1.304216
     26          6           0       -2.083866   -1.501661   -1.582527
     27          1           0       -1.416781   -2.115804   -2.192474
     28          1           0       -2.996727   -2.074340   -1.383214
     29          1           0       -2.335726   -0.616842   -2.175358
 ---------------------------------------------------------------------
 Rotational constants (GHZ):           0.6303012           0.3134432           0.2981990
   427 basis functions,  1056 primitive gaussians,   461 cartesian basis functions
    77 alpha electrons       72 beta electrons
       nuclear repulsion energy      1643.4981497603 Hartrees.
 NAtoms=   29 NActive=   29 NUniq=   29 SFac= 1.00D+00 NAtFMM=   60 NAOKFM=F Big=F
 Nuclear repulsion after empirical dispersion term =     1643.3963159128 Hartrees.
 Initial guess from the checkpoint file:  "checkpoint.chk"
 B after Tr=     0.000000    0.000000    0.000000
         Rot=    1.000000    0.000000    0.000000    0.000000 Ang=   0.00 deg.
 Initial guess <Sx>= 0.0000 <Sy>= 0.0000 <Sz>= 2.5000 <S**2>= 8.7623 S= 2.5020
 EnCoef did     3 forward-backward iterations
 EnCoef did     4 forward-backward iterations
 SCF Done:  E(UB97D3) =  -3034.60596635     A.U. after   16 cycles
            NFock= 16  Conv=0.66D-08     -V/T= 2.0019
 <Sx>= 0.0000 <Sy>= 0.0000 <Sz>= 2.5000 <S**2>= 8.7612 S= 2.5019
 <L.S>= 0.000000000000E+00
 Annihilation of the first spin contaminant:
 S**2 before annihilation     8.7612,   after     8.7500
 1\1\GINC-HOLY7C06104\SP\UB97D3\Jul-CC-pVDZ\C8H16Cl3Fe1O1(6)\EKWAN\11-F
 eb-2020\0\\#t pop=none jul-cc-pvdz guess=read ub97d3 empiricaldispersi
 on=gd3bj\\theory_abbreviation b97d3_d3bj\\0,6\O,0,-0.27367,-0.328071,-
 0.616677\C,0,-1.338811,-1.124559,-0.285773\C,0,-2.304623,-0.362434,0.7
 37152\C,0,-2.906367,0.729436,-0.016176\C,0,-4.289439,0.624523,-0.53252
 6\Fe,0,1.465812,0.122031,-0.098102\Cl,0,2.756961,-0.253231,-1.832285\C
 ,0,-2.080622,1.856918,-0.386456\Cl,0,2.086664,-1.008719,1.6953\Cl,0,1.
 292059,2.287935,0.417439\H,0,-3.078562,-1.089275,1.003996\H,0,-2.56184
 3,2.600957,-1.020963\H,0,-1.541306,2.315934,0.449996\H,0,-1.217852,1.3
 46248,-0.903756\H,0,-4.91687,1.242707,0.132553\H,0,-4.387489,1.058718,
 -1.533169\H,0,-4.681866,-0.393527,-0.507611\C,0,-1.544721,0.093918,1.9
 98357\H,0,-2.206636,0.677899,2.645333\H,0,-1.20047,-0.772304,2.563871\
 H,0,-0.675034,0.702199,1.75071\C,0,-0.897675,-2.421632,0.426729\H,0,-1
 .764033,-3.028536,0.708478\H,0,-0.285277,-2.990493,-0.278921\H,0,-0.28
 515,-2.220585,1.304216\C,0,-2.083866,-1.501661,-1.582527\H,0,-1.416781
 ,-2.115804,-2.192474\H,0,-2.996727,-2.07434,-1.383214\H,0,-2.335726,-0
 .616842,-2.175358\\Version=ES64L-G16RevA.03\HF=-3034.6059664\S2=8.7612
 26\S2-1=0.\S2A=8.750039\RMSD=6.645e-09\PG=C01 [X(C8H16Cl3Fe1O1)]\\@


 HE THAT IS UNAWARE OF HIS IGNORANCE WILL BE MISLED BY HIS KNOWLEDGE.

                                        -- WHATLEY
 Job cpu time:       0 days  0 hours 50 minutes 59.0 seconds.
 Elapsed time:       0 days  0 hours 13 minutes  1.7 seconds.
 File lengths (MBytes):  RWF=    174 Int=      0 D2E=      0 Chk=     13 Scr=      1
 Normal termination of Gaussian 16 at Tue Feb 11 23:38:18 2020.
