 Entering Gaussian System, Link 0=g16
 Input=simple-grid-215-285-b3lyp_d3bj-631gd-gas-singlepoint-DFT-juldz2-gas.gjf
 Output=simple-grid-215-285-b3lyp_d3bj-631gd-gas-singlepoint-DFT-juldz2-gas.out
 Initial command:
 /n/sw/g16_nehalem/g16/l1.exe "/scratch/Gau-353074.inp" -scrdir="/scratch/"
 Entering Link 1 = /n/sw/g16_nehalem/g16/l1.exe PID=    353079.
  
 Copyright (c) 1988,1990,1992,1993,1995,1998,2003,2009,2016,
            Gaussian, Inc.  All Rights Reserved.
  
 This is part of the Gaussian(R) 16 program.  It is based on
 the Gaussian(R) 09 system (copyright 2009, Gaussian, Inc.),
 the Gaussian(R) 03 system (copyright 2003, Gaussian, Inc.),
 the Gaussian(R) 98 system (copyright 1998, Gaussian, Inc.),
 the Gaussian(R) 94 system (copyright 1995, Gaussian, Inc.),
 the Gaussian 92(TM) system (copyright 1992, Gaussian, Inc.),
 the Gaussian 90(TM) system (copyright 1990, Gaussian, Inc.),
 the Gaussian 88(TM) system (copyright 1988, Gaussian, Inc.),
 the Gaussian 86(TM) system (copyright 1986, Carnegie Mellon
 University), and the Gaussian 82(TM) system (copyright 1983,
 Carnegie Mellon University). Gaussian is a federally registered
 trademark of Gaussian, Inc.
  
 This software contains proprietary and confidential information,
 including trade secrets, belonging to Gaussian, Inc.
  
 This software is provided under written license and may be
 used, copied, transmitted, or stored only in accord with that
 written license.
  
 The following legend is applicable only to US Government
 contracts under FAR:
  
                    RESTRICTED RIGHTS LEGEND
  
 Use, reproduction and disclosure by the US Government is
 subject to restrictions as set forth in subparagraphs (a)
 and (c) of the Commercial Computer Software - Restricted
 Rights clause in FAR 52.227-19.
  
 Gaussian, Inc.
 340 Quinnipiac St., Bldg. 40, Wallingford CT 06492
  
  
 ---------------------------------------------------------------
 Warning -- This program may not be used in any manner that
 competes with the business of Gaussian, Inc. or will provide
 assistance to any competitor of Gaussian, Inc.  The licensee
 of this program is prohibited from giving any competitor of
 Gaussian, Inc. access to this program.  By using this program,
 the user acknowledges that Gaussian, Inc. is engaged in the
 business of creating and licensing software in the field of
 computational chemistry and represents and warrants to the
 licensee that it is not a competitor of Gaussian, Inc. and that
 it will not use this program in any manner prohibited above.
 ---------------------------------------------------------------
  

 Cite this work as:
 Gaussian 16, Revision A.03,
 M. J. Frisch, G. W. Trucks, H. B. Schlegel, G. E. Scuseria, 
 M. A. Robb, J. R. Cheeseman, G. Scalmani, V. Barone, 
 G. A. Petersson, H. Nakatsuji, X. Li, M. Caricato, A. V. Marenich, 
 J. Bloino, B. G. Janesko, R. Gomperts, B. Mennucci, H. P. Hratchian, 
 J. V. Ortiz, A. F. Izmaylov, J. L. Sonnenberg, D. Williams-Young, 
 F. Ding, F. Lipparini, F. Egidi, J. Goings, B. Peng, A. Petrone, 
 T. Henderson, D. Ranasinghe, V. G. Zakrzewski, J. Gao, N. Rega, 
 G. Zheng, W. Liang, M. Hada, M. Ehara, K. Toyota, R. Fukuda, 
 J. Hasegawa, M. Ishida, T. Nakajima, Y. Honda, O. Kitao, H. Nakai, 
 T. Vreven, K. Throssell, J. A. Montgomery, Jr., J. E. Peralta, 
 F. Ogliaro, M. J. Bearpark, J. J. Heyd, E. N. Brothers, K. N. Kudin, 
 V. N. Staroverov, T. A. Keith, R. Kobayashi, J. Normand, 
 K. Raghavachari, A. P. Rendell, J. C. Burant, S. S. Iyengar, 
 J. Tomasi, M. Cossi, J. M. Millam, M. Klene, C. Adamo, R. Cammi, 
 J. W. Ochterski, R. L. Martin, K. Morokuma, O. Farkas, 
 J. B. Foresman, and D. J. Fox, Gaussian, Inc., Wallingford CT, 2016.
 
 ******************************************
 Gaussian 16:  ES64L-G16RevA.03 25-Dec-2016
                11-Feb-2020 
 ******************************************
 %chk=checkpoint.chk
 %mem=3GB
 %nprocshared=4
 Will use up to    4 processors via shared memory.
 --------------------------------
 #t pop=none jul-cc-pvdz upbe1pbe
 --------------------------------
 ------------------------
 theory_abbreviation pbe0
 ------------------------
 Symbolic Z-matrix:
 Charge =  0 Multiplicity = 6
 O                    -0.30962  -0.20625  -0.53314 
 C                    -1.13656  -1.16593  -0.32627 
 C                    -2.71275  -0.27238   0.83118 
 C                    -2.96212   0.72916  -0.07295 
 C                    -3.97247   0.57775  -1.16649 
 Fe                    1.51566   0.17953  -0.08274 
 Cl                    1.84947   2.12864  -1.01773 
 C                    -2.19399   2.00389  -0.04769 
 Cl                    2.58655  -1.5246   -0.95743 
 Cl                    1.70609   0.24342   2.10982 
 H                    -3.37483  -1.13644   0.79044 
 H                    -2.672     2.78641  -0.6422 
 H                    -2.01451   2.37129   0.96615 
 H                    -1.20276   1.80283  -0.48862 
 H                    -4.78404   1.29767  -0.99141 
 H                    -3.54549   0.83302  -2.14467 
 H                    -4.40954  -0.42208  -1.20951 
 C                    -2.05274   0.00656   2.16483 
 H                    -2.6457    0.73794   2.72729 
 H                    -1.99026  -0.89765   2.77282 
 H                    -1.0432    0.41131   2.05949 
 C                    -0.76028  -2.21849   0.69631 
 H                    -1.60414  -2.85126   0.9788 
 H                    -0.00675  -2.84607   0.20036 
 H                    -0.29155  -1.7862    1.57919 
 C                    -1.84412  -1.69348  -1.55474 
 H                    -1.13116  -2.36706  -2.04803 
 H                    -2.74117  -2.26742  -1.31217 
 H                    -2.07874  -0.89352  -2.25587 
 
                    Distance matrix (angstroms):
                    1          2          3          4          5
     1  O    0.000000
     2  C    1.283590   0.000000
     3  C    2.764195   2.150002   0.000000
     4  C    2.850006   2.643523   1.372122   0.000000
     5  C    3.798981   3.433480   2.510039   1.496511   0.000000
     6  Fe   1.919206   2.983934   4.349594   4.511403   5.608269
     7  Cl   3.216866   4.499854   5.476974   5.099273   6.026802
     8  C    2.944693   3.353135   2.494580   1.488494   2.539407
     9  Cl   3.210272   3.793222   5.731471   6.053879   6.890882
    10  Cl   3.354182   4.000186   4.628950   5.176166   6.564455
    11  H    3.465919   2.501550   1.089314   2.096718   2.669308
    12  H    3.814288   4.251873   3.395396   2.154184   2.616157
    13  H    3.434854   3.866918   2.737651   2.162016   3.405667
    14  H    2.199108   2.973931   2.885904   2.102599   3.103487
    15  H    4.742593   4.451495   3.174440   2.118048   1.098897
    16  H    3.761384   3.620135   3.281931   2.154793   1.097411
    17  H    4.160934   3.470708   2.658177   2.170742   1.092038
    18  C    3.219124   2.901666   1.513950   2.521272   3.887073
    19  H    4.120578   3.902109   2.149530   2.818080   4.116737
    20  H    3.772526   3.225700   2.164009   3.418987   4.650178
    21  H    2.764274   2.861508   2.182564   2.886279   4.360650
    22  C    2.400778   1.514970   2.760017   3.758792   4.648349
    23  H    3.310255   2.182238   2.810953   3.971109   4.687149
    24  H    2.756520   2.092056   3.787389   4.646638   5.414594
    25  H    2.637893   2.174750   2.951850   4.023505   5.164902
    26  C    2.368588   1.512646   2.909754   3.052015   3.136732
    27  H    2.763859   2.099335   3.896021   4.103648   4.185936
    28  H    3.281423   2.181757   2.928306   3.250228   3.103600
    29  H    2.563187   2.164551   3.212111   2.859818   2.633927
                    6          7          8          9         10
     6  Fe   0.000000
     7  Cl   2.187386   0.000000
     8  C    4.134125   4.160057   0.000000
     9  Cl   2.194526   3.727339   6.010935   0.000000
    10  Cl   2.201739   3.654612   4.792151   3.648169   0.000000
    11  H    5.139176   6.420554   3.458109   6.224445   5.427758
    12  H    4.964410   4.584475   1.092834   6.807094   5.762652
    13  H    4.285563   4.350288   1.093196   6.328333   4.436061
    14  H    3.192118   3.114834   1.103350   5.064617   4.200600
    15  H    6.462363   6.685406   2.845651   7.892518   7.269859
    16  H    5.503992   5.661646   2.755873   6.676063   6.784358
    17  H    6.061316   6.761518   3.484800   7.086908   6.990122
    18  C    4.220776   5.464354   2.984049   5.797921   3.766689
    19  H    5.052231   6.013803   3.083377   6.787686   4.423114
    20  H    4.648232   6.186299   4.051635   5.937596   3.924879
    21  H    3.345236   4.559168   2.881114   5.101428   2.754871
    22  C    3.396669   5.352223   4.520791   3.797052   3.760592
    23  H    4.477248   6.380672   4.997409   4.803215   4.670541
    24  H    3.398847   5.447664   5.326132   3.132401   4.015573
    25  H    3.145174   5.162745   4.542115   3.845295   2.896814
    26  C    4.118631   5.342245   4.008010   4.473938   5.457530
    27  H    4.165715   5.491536   4.923023   3.964906   5.670305
    28  H    5.061592   6.362861   4.488032   5.390934   6.147564
    29  H    4.335168   5.108547   3.644763   4.883556   5.888707
                   11         12         13         14         15
    11  H    0.000000
    12  H    4.234995   0.000000
    13  H    3.766363   1.786460   0.000000
    14  H    3.872103   1.774745   1.760244   0.000000
    15  H    3.329519   2.607492   3.557390   3.651517   0.000000
    16  H    3.538757   2.614601   3.793077   3.028441   1.754969
    17  H    2.362358   3.692601   4.274647   3.969050   1.773512
    18  C    2.223353   3.998815   2.651461   3.315096   4.369072
    19  H    2.792188   3.943402   2.483513   3.682143   4.326025
    20  H    2.429790   5.069467   3.735051   4.306944   5.176293
    21  H    3.072867   3.948827   2.445470   2.907683   4.907898
    22  C    2.831176   5.522261   4.765708   4.215549   5.603780
    23  H    2.472132   5.962494   5.238663   4.896424   5.586325
    24  H    3.822962   6.287958   5.642552   4.849475   6.435324
    25  H    3.248221   5.613373   4.541930   4.241140   6.025003
    26  C    2.855387   4.646241   4.786050   3.711081   4.231713
    27  H    3.821701   5.559572   5.684853   4.452510   5.281115
    28  H    2.470150   5.098519   5.218855   4.428531   4.121413
    29  H    3.319466   4.061744   4.587430   3.340777   3.703885
                   16         17         18         19         20
    16  H    0.000000
    17  H    1.787845   0.000000
    18  C    4.634995   4.138165   0.000000
    19  H    4.955272   4.467123   1.096766   0.000000
    20  H    5.440197   4.683806   1.091397   1.762621   0.000000
    21  H    4.910630   4.765830   1.092748   1.766543   1.766117
    22  C    5.014013   4.491805   2.962739   4.052183   2.751251
    23  H    5.205657   4.308114   3.126504   4.126071   2.680339
    24  H    5.617622   5.219968   4.022772   5.118067   3.787907
    25  H    5.596038   5.157083   2.580455   3.637511   2.258302
    26  C    3.102563   2.883920   4.094977   4.989001   4.402556
    27  H    4.009847   3.903052   4.922553   5.893943   5.112518
    28  H    3.309494   2.489834   4.211230   5.035733   4.373481
    29  H    2.268184   2.598023   4.511472   5.273992   5.029472
                   21         22         23         24         25
    21  H    0.000000
    22  C    2.975594   0.000000
    23  H    3.482376   1.091923   0.000000
    24  H    3.891160   1.098926   1.776981   0.000000
    25  H    2.371653   1.089062   1.793801   1.762268   0.000000
    26  C    4.258434   2.552954   2.795864   2.790128   3.498654
    27  H    4.959715   2.773269   3.101585   2.559108   3.768161
    28  H    4.628911   2.821403   2.623403   3.178000   3.819971
    29  H    4.625713   3.494175   3.810652   3.760150   4.324189
                   26         27         28         29
    26  C    0.000000
    27  H    1.097889   0.000000
    28  H    1.092218   1.773003   0.000000
    29  H    1.089298   1.764211   1.793595   0.000000
 Framework group  C1[X(C8H16Cl3FeO)]
 Deg. of freedom    81
                         Standard orientation:                         
 ---------------------------------------------------------------------
 Center     Atomic      Atomic             Coordinates (Angstroms)
 Number     Number       Type             X           Y           Z
 ---------------------------------------------------------------------
      1          8           0       -0.309622   -0.206253   -0.533136
      2          6           0       -1.136561   -1.165930   -0.326267
      3          6           0       -2.712754   -0.272376    0.831180
      4          6           0       -2.962124    0.729160   -0.072954
      5          6           0       -3.972469    0.577753   -1.166492
      6         26           0        1.515662    0.179533   -0.082737
      7         17           0        1.849470    2.128638   -1.017734
      8          6           0       -2.193985    2.003891   -0.047692
      9         17           0        2.586545   -1.524599   -0.957431
     10         17           0        1.706093    0.243424    2.109821
     11          1           0       -3.374830   -1.136436    0.790441
     12          1           0       -2.672003    2.786414   -0.642202
     13          1           0       -2.014506    2.371289    0.966154
     14          1           0       -1.202755    1.802828   -0.488621
     15          1           0       -4.784039    1.297665   -0.991406
     16          1           0       -3.545493    0.833024   -2.144674
     17          1           0       -4.409538   -0.422080   -1.209511
     18          6           0       -2.052738    0.006556    2.164829
     19          1           0       -2.645702    0.737942    2.727292
     20          1           0       -1.990264   -0.897650    2.772823
     21          1           0       -1.043197    0.411313    2.059486
     22          6           0       -0.760283   -2.218491    0.696310
     23          1           0       -1.604143   -2.851261    0.978796
     24          1           0       -0.006746   -2.846072    0.200364
     25          1           0       -0.291549   -1.786203    1.579187
     26          6           0       -1.844123   -1.693479   -1.554740
     27          1           0       -1.131161   -2.367060   -2.048029
     28          1           0       -2.741170   -2.267421   -1.312174
     29          1           0       -2.078743   -0.893516   -2.255869
 ---------------------------------------------------------------------
 Rotational constants (GHZ):           0.5903979           0.3102041           0.2961168
   427 basis functions,  1056 primitive gaussians,   461 cartesian basis functions
    77 alpha electrons       72 beta electrons
       nuclear repulsion energy      1624.4738059483 Hartrees.
 NAtoms=   29 NActive=   29 NUniq=   29 SFac= 1.00D+00 NAtFMM=   60 NAOKFM=F Big=F
 ExpMin= 1.40D-02 ExpMax= 4.32D+06 ExpMxC= 4.91D+03 IAcc=3 IRadAn=         5 AccDes= 0.00D+00
 Harris functional with IExCor= 1009 and IRadAn=       5 diagonalized for initial guess.
 HarFok:  IExCor= 1009 AccDes= 0.00D+00 IRadAn=         5 IDoV= 1 UseB2=F ITyADJ=14
 ICtDFT=  3500011 ScaDFX=  1.000000  1.000000  1.000000  1.000000
 FoFCou: FMM=F IPFlag=           0 FMFlag=      100000 FMFlg1=           0
         NFxFlg=           0 DoJE=T BraDBF=F KetDBF=T FulRan=T
         wScrn=  0.000000 ICntrl=       500 IOpCl=  0 I1Cent=   200000004 NGrid=           0
         NMat0=    1 NMatS0=      1 NMatT0=    0 NMatD0=    1 NMtDS0=    0 NMtDT0=    0
 Petite list used in FoFCou.
 Initial guess <Sx>= 0.0000 <Sy>= 0.0000 <Sz>= 2.5000 <S**2>= 8.7500 S= 2.5000
 EnCoef did   100 forward-backward iterations
 Restarting incremental Fock formation.
 SCF Done:  E(UPBE1PBE) =  -3033.11999680     A.U. after   21 cycles
            NFock= 21  Conv=0.45D-08     -V/T= 2.0021
 <Sx>= 0.0000 <Sy>= 0.0000 <Sz>= 2.5000 <S**2>= 8.7627 S= 2.5021
 <L.S>= 0.000000000000E+00
 Annihilation of the first spin contaminant:
 S**2 before annihilation     8.7627,   after     8.7501
 1\1\GINC-HOLY7C12205\SP\UPBE1PBE\Jul-CC-pVDZ\C8H16Cl3Fe1O1(6)\EKWAN\11
 -Feb-2020\0\\#t pop=none jul-cc-pvdz upbe1pbe\\theory_abbreviation pbe
 0\\0,6\O,0,-0.309622,-0.206253,-0.533136\C,0,-1.136561,-1.16593,-0.326
 267\C,0,-2.712754,-0.272376,0.83118\C,0,-2.962124,0.72916,-0.072954\C,
 0,-3.972469,0.577753,-1.166492\Fe,0,1.515662,0.179533,-0.082737\Cl,0,1
 .84947,2.128638,-1.017734\C,0,-2.193985,2.003891,-0.047692\Cl,0,2.5865
 45,-1.524599,-0.957431\Cl,0,1.706093,0.243424,2.109821\H,0,-3.37483,-1
 .136436,0.790441\H,0,-2.672003,2.786414,-0.642202\H,0,-2.014506,2.3712
 89,0.966154\H,0,-1.202755,1.802828,-0.488621\H,0,-4.784039,1.297665,-0
 .991406\H,0,-3.545493,0.833024,-2.144674\H,0,-4.409538,-0.42208,-1.209
 511\C,0,-2.052738,0.006556,2.164829\H,0,-2.645702,0.737942,2.727292\H,
 0,-1.990264,-0.89765,2.772823\H,0,-1.043197,0.411313,2.059486\C,0,-0.7
 60283,-2.218491,0.69631\H,0,-1.604143,-2.851261,0.978796\H,0,-0.006746
 ,-2.846072,0.200364\H,0,-0.291549,-1.786203,1.579187\C,0,-1.844123,-1.
 693479,-1.55474\H,0,-1.131161,-2.36706,-2.048029\H,0,-2.74117,-2.26742
 1,-1.312174\H,0,-2.078743,-0.893516,-2.255869\\Version=ES64L-G16RevA.0
 3\HF=-3033.1199968\S2=8.762729\S2-1=0.\S2A=8.75005\RMSD=4.461e-09\PG=C
 01 [X(C8H16Cl3Fe1O1)]\\@


 THE SOLUTION TO A PROBLEM CHANGES THE PROBLEM.

                                 -- JOHN PEERS
           PAUL DICKSON'S "THE OFFICIAL RULES"
 Job cpu time:       0 days  1 hours 25 minutes 20.8 seconds.
 Elapsed time:       0 days  0 hours 21 minutes 24.0 seconds.
 File lengths (MBytes):  RWF=    173 Int=      0 D2E=      0 Chk=     13 Scr=      1
 Normal termination of Gaussian 16 at Tue Feb 11 20:05:20 2020.
 Initial command:
 /n/sw/g16_nehalem/g16/l1.exe "/scratch/Gau-353074.inp" -scrdir="/scratch/"
 Entering Link 1 = /n/sw/g16_nehalem/g16/l1.exe PID=    354418.
  
 Copyright (c) 1988,1990,1992,1993,1995,1998,2003,2009,2016,
            Gaussian, Inc.  All Rights Reserved.
  
 This is part of the Gaussian(R) 16 program.  It is based on
 the Gaussian(R) 09 system (copyright 2009, Gaussian, Inc.),
 the Gaussian(R) 03 system (copyright 2003, Gaussian, Inc.),
 the Gaussian(R) 98 system (copyright 1998, Gaussian, Inc.),
 the Gaussian(R) 94 system (copyright 1995, Gaussian, Inc.),
 the Gaussian 92(TM) system (copyright 1992, Gaussian, Inc.),
 the Gaussian 90(TM) system (copyright 1990, Gaussian, Inc.),
 the Gaussian 88(TM) system (copyright 1988, Gaussian, Inc.),
 the Gaussian 86(TM) system (copyright 1986, Carnegie Mellon
 University), and the Gaussian 82(TM) system (copyright 1983,
 Carnegie Mellon University). Gaussian is a federally registered
 trademark of Gaussian, Inc.
  
 This software contains proprietary and confidential information,
 including trade secrets, belonging to Gaussian, Inc.
  
 This software is provided under written license and may be
 used, copied, transmitted, or stored only in accord with that
 written license.
  
 The following legend is applicable only to US Government
 contracts under FAR:
  
                    RESTRICTED RIGHTS LEGEND
  
 Use, reproduction and disclosure by the US Government is
 subject to restrictions as set forth in subparagraphs (a)
 and (c) of the Commercial Computer Software - Restricted
 Rights clause in FAR 52.227-19.
  
 Gaussian, Inc.
 340 Quinnipiac St., Bldg. 40, Wallingford CT 06492
  
  
 ---------------------------------------------------------------
 Warning -- This program may not be used in any manner that
 competes with the business of Gaussian, Inc. or will provide
 assistance to any competitor of Gaussian, Inc.  The licensee
 of this program is prohibited from giving any competitor of
 Gaussian, Inc. access to this program.  By using this program,
 the user acknowledges that Gaussian, Inc. is engaged in the
 business of creating and licensing software in the field of
 computational chemistry and represents and warrants to the
 licensee that it is not a competitor of Gaussian, Inc. and that
 it will not use this program in any manner prohibited above.
 ---------------------------------------------------------------
  

 Cite this work as:
 Gaussian 16, Revision A.03,
 M. J. Frisch, G. W. Trucks, H. B. Schlegel, G. E. Scuseria, 
 M. A. Robb, J. R. Cheeseman, G. Scalmani, V. Barone, 
 G. A. Petersson, H. Nakatsuji, X. Li, M. Caricato, A. V. Marenich, 
 J. Bloino, B. G. Janesko, R. Gomperts, B. Mennucci, H. P. Hratchian, 
 J. V. Ortiz, A. F. Izmaylov, J. L. Sonnenberg, D. Williams-Young, 
 F. Ding, F. Lipparini, F. Egidi, J. Goings, B. Peng, A. Petrone, 
 T. Henderson, D. Ranasinghe, V. G. Zakrzewski, J. Gao, N. Rega, 
 G. Zheng, W. Liang, M. Hada, M. Ehara, K. Toyota, R. Fukuda, 
 J. Hasegawa, M. Ishida, T. Nakajima, Y. Honda, O. Kitao, H. Nakai, 
 T. Vreven, K. Throssell, J. A. Montgomery, Jr., J. E. Peralta, 
 F. Ogliaro, M. J. Bearpark, J. J. Heyd, E. N. Brothers, K. N. Kudin, 
 V. N. Staroverov, T. A. Keith, R. Kobayashi, J. Normand, 
 K. Raghavachari, A. P. Rendell, J. C. Burant, S. S. Iyengar, 
 J. Tomasi, M. Cossi, J. M. Millam, M. Klene, C. Adamo, R. Cammi, 
 J. W. Ochterski, R. L. Martin, K. Morokuma, O. Farkas, 
 J. B. Foresman, and D. J. Fox, Gaussian, Inc., Wallingford CT, 2016.
 
 ******************************************
 Gaussian 16:  ES64L-G16RevA.03 25-Dec-2016
                11-Feb-2020 
 ******************************************
 %chk=checkpoint.chk
 %mem=3GB
 %nprocshared=4
 Will use up to    4 processors via shared memory.
 ---------------------------------------------------------------------
 #t pop=none jul-cc-pvdz guess=read upbe1pbe empiricaldispersion=gd3bj
 ---------------------------------------------------------------------
 -----------------------------
 theory_abbreviation pbe0_d3bj
 -----------------------------
 Symbolic Z-matrix:
 Charge =  0 Multiplicity = 6
 O                    -0.30962  -0.20625  -0.53314 
 C                    -1.13656  -1.16593  -0.32627 
 C                    -2.71275  -0.27238   0.83118 
 C                    -2.96212   0.72916  -0.07295 
 C                    -3.97247   0.57775  -1.16649 
 Fe                    1.51566   0.17953  -0.08274 
 Cl                    1.84947   2.12864  -1.01773 
 C                    -2.19399   2.00389  -0.04769 
 Cl                    2.58655  -1.5246   -0.95743 
 Cl                    1.70609   0.24342   2.10982 
 H                    -3.37483  -1.13644   0.79044 
 H                    -2.672     2.78641  -0.6422 
 H                    -2.01451   2.37129   0.96615 
 H                    -1.20276   1.80283  -0.48862 
 H                    -4.78404   1.29767  -0.99141 
 H                    -3.54549   0.83302  -2.14467 
 H                    -4.40954  -0.42208  -1.20951 
 C                    -2.05274   0.00656   2.16483 
 H                    -2.6457    0.73794   2.72729 
 H                    -1.99026  -0.89765   2.77282 
 H                    -1.0432    0.41131   2.05949 
 C                    -0.76028  -2.21849   0.69631 
 H                    -1.60414  -2.85126   0.9788 
 H                    -0.00675  -2.84607   0.20036 
 H                    -0.29155  -1.7862    1.57919 
 C                    -1.84412  -1.69348  -1.55474 
 H                    -1.13116  -2.36706  -2.04803 
 H                    -2.74117  -2.26742  -1.31217 
 H                    -2.07874  -0.89352  -2.25587 
 
                    Distance matrix (angstroms):
                    1          2          3          4          5
     1  O    0.000000
     2  C    1.283590   0.000000
     3  C    2.764195   2.150002   0.000000
     4  C    2.850006   2.643523   1.372122   0.000000
     5  C    3.798981   3.433480   2.510039   1.496511   0.000000
     6  Fe   1.919206   2.983934   4.349594   4.511403   5.608269
     7  Cl   3.216866   4.499854   5.476974   5.099273   6.026802
     8  C    2.944693   3.353135   2.494580   1.488494   2.539407
     9  Cl   3.210272   3.793222   5.731471   6.053879   6.890882
    10  Cl   3.354182   4.000186   4.628950   5.176166   6.564455
    11  H    3.465919   2.501550   1.089314   2.096718   2.669308
    12  H    3.814288   4.251873   3.395396   2.154184   2.616157
    13  H    3.434854   3.866918   2.737651   2.162016   3.405667
    14  H    2.199108   2.973931   2.885904   2.102599   3.103487
    15  H    4.742593   4.451495   3.174440   2.118048   1.098897
    16  H    3.761384   3.620135   3.281931   2.154793   1.097411
    17  H    4.160934   3.470708   2.658177   2.170742   1.092038
    18  C    3.219124   2.901666   1.513950   2.521272   3.887073
    19  H    4.120578   3.902109   2.149530   2.818080   4.116737
    20  H    3.772526   3.225700   2.164009   3.418987   4.650178
    21  H    2.764274   2.861508   2.182564   2.886279   4.360650
    22  C    2.400778   1.514970   2.760017   3.758792   4.648349
    23  H    3.310255   2.182238   2.810953   3.971109   4.687149
    24  H    2.756520   2.092056   3.787389   4.646638   5.414594
    25  H    2.637893   2.174750   2.951850   4.023505   5.164902
    26  C    2.368588   1.512646   2.909754   3.052015   3.136732
    27  H    2.763859   2.099335   3.896021   4.103648   4.185936
    28  H    3.281423   2.181757   2.928306   3.250228   3.103600
    29  H    2.563187   2.164551   3.212111   2.859818   2.633927
                    6          7          8          9         10
     6  Fe   0.000000
     7  Cl   2.187386   0.000000
     8  C    4.134125   4.160057   0.000000
     9  Cl   2.194526   3.727339   6.010935   0.000000
    10  Cl   2.201739   3.654612   4.792151   3.648169   0.000000
    11  H    5.139176   6.420554   3.458109   6.224445   5.427758
    12  H    4.964410   4.584475   1.092834   6.807094   5.762652
    13  H    4.285563   4.350288   1.093196   6.328333   4.436061
    14  H    3.192118   3.114834   1.103350   5.064617   4.200600
    15  H    6.462363   6.685406   2.845651   7.892518   7.269859
    16  H    5.503992   5.661646   2.755873   6.676063   6.784358
    17  H    6.061316   6.761518   3.484800   7.086908   6.990122
    18  C    4.220776   5.464354   2.984049   5.797921   3.766689
    19  H    5.052231   6.013803   3.083377   6.787686   4.423114
    20  H    4.648232   6.186299   4.051635   5.937596   3.924879
    21  H    3.345236   4.559168   2.881114   5.101428   2.754871
    22  C    3.396669   5.352223   4.520791   3.797052   3.760592
    23  H    4.477248   6.380672   4.997409   4.803215   4.670541
    24  H    3.398847   5.447664   5.326132   3.132401   4.015573
    25  H    3.145174   5.162745   4.542115   3.845295   2.896814
    26  C    4.118631   5.342245   4.008010   4.473938   5.457530
    27  H    4.165715   5.491536   4.923023   3.964906   5.670305
    28  H    5.061592   6.362861   4.488032   5.390934   6.147564
    29  H    4.335168   5.108547   3.644763   4.883556   5.888707
                   11         12         13         14         15
    11  H    0.000000
    12  H    4.234995   0.000000
    13  H    3.766363   1.786460   0.000000
    14  H    3.872103   1.774745   1.760244   0.000000
    15  H    3.329519   2.607492   3.557390   3.651517   0.000000
    16  H    3.538757   2.614601   3.793077   3.028441   1.754969
    17  H    2.362358   3.692601   4.274647   3.969050   1.773512
    18  C    2.223353   3.998815   2.651461   3.315096   4.369072
    19  H    2.792188   3.943402   2.483513   3.682143   4.326025
    20  H    2.429790   5.069467   3.735051   4.306944   5.176293
    21  H    3.072867   3.948827   2.445470   2.907683   4.907898
    22  C    2.831176   5.522261   4.765708   4.215549   5.603780
    23  H    2.472132   5.962494   5.238663   4.896424   5.586325
    24  H    3.822962   6.287958   5.642552   4.849475   6.435324
    25  H    3.248221   5.613373   4.541930   4.241140   6.025003
    26  C    2.855387   4.646241   4.786050   3.711081   4.231713
    27  H    3.821701   5.559572   5.684853   4.452510   5.281115
    28  H    2.470150   5.098519   5.218855   4.428531   4.121413
    29  H    3.319466   4.061744   4.587430   3.340777   3.703885
                   16         17         18         19         20
    16  H    0.000000
    17  H    1.787845   0.000000
    18  C    4.634995   4.138165   0.000000
    19  H    4.955272   4.467123   1.096766   0.000000
    20  H    5.440197   4.683806   1.091397   1.762621   0.000000
    21  H    4.910630   4.765830   1.092748   1.766543   1.766117
    22  C    5.014013   4.491805   2.962739   4.052183   2.751251
    23  H    5.205657   4.308114   3.126504   4.126071   2.680339
    24  H    5.617622   5.219968   4.022772   5.118067   3.787907
    25  H    5.596038   5.157083   2.580455   3.637511   2.258302
    26  C    3.102563   2.883920   4.094977   4.989001   4.402556
    27  H    4.009847   3.903052   4.922553   5.893943   5.112518
    28  H    3.309494   2.489834   4.211230   5.035733   4.373481
    29  H    2.268184   2.598023   4.511472   5.273992   5.029472
                   21         22         23         24         25
    21  H    0.000000
    22  C    2.975594   0.000000
    23  H    3.482376   1.091923   0.000000
    24  H    3.891160   1.098926   1.776981   0.000000
    25  H    2.371653   1.089062   1.793801   1.762268   0.000000
    26  C    4.258434   2.552954   2.795864   2.790128   3.498654
    27  H    4.959715   2.773269   3.101585   2.559108   3.768161
    28  H    4.628911   2.821403   2.623403   3.178000   3.819971
    29  H    4.625713   3.494175   3.810652   3.760150   4.324189
                   26         27         28         29
    26  C    0.000000
    27  H    1.097889   0.000000
    28  H    1.092218   1.773003   0.000000
    29  H    1.089298   1.764211   1.793595   0.000000
 Framework group  C1[X(C8H16Cl3FeO)]
 Deg. of freedom    81
                         Standard orientation:                         
 ---------------------------------------------------------------------
 Center     Atomic      Atomic             Coordinates (Angstroms)
 Number     Number       Type             X           Y           Z
 ---------------------------------------------------------------------
      1          8           0       -0.309622   -0.206253   -0.533136
      2          6           0       -1.136561   -1.165930   -0.326267
      3          6           0       -2.712754   -0.272376    0.831180
      4          6           0       -2.962124    0.729160   -0.072954
      5          6           0       -3.972469    0.577753   -1.166492
      6         26           0        1.515662    0.179533   -0.082737
      7         17           0        1.849470    2.128638   -1.017734
      8          6           0       -2.193985    2.003891   -0.047692
      9         17           0        2.586545   -1.524599   -0.957431
     10         17           0        1.706093    0.243424    2.109821
     11          1           0       -3.374830   -1.136436    0.790441
     12          1           0       -2.672003    2.786414   -0.642202
     13          1           0       -2.014506    2.371289    0.966154
     14          1           0       -1.202755    1.802828   -0.488621
     15          1           0       -4.784039    1.297665   -0.991406
     16          1           0       -3.545493    0.833024   -2.144674
     17          1           0       -4.409538   -0.422080   -1.209511
     18          6           0       -2.052738    0.006556    2.164829
     19          1           0       -2.645702    0.737942    2.727292
     20          1           0       -1.990264   -0.897650    2.772823
     21          1           0       -1.043197    0.411313    2.059486
     22          6           0       -0.760283   -2.218491    0.696310
     23          1           0       -1.604143   -2.851261    0.978796
     24          1           0       -0.006746   -2.846072    0.200364
     25          1           0       -0.291549   -1.786203    1.579187
     26          6           0       -1.844123   -1.693479   -1.554740
     27          1           0       -1.131161   -2.367060   -2.048029
     28          1           0       -2.741170   -2.267421   -1.312174
     29          1           0       -2.078743   -0.893516   -2.255869
 ---------------------------------------------------------------------
 Rotational constants (GHZ):           0.5903979           0.3102041           0.2961168
   427 basis functions,  1056 primitive gaussians,   461 cartesian basis functions
    77 alpha electrons       72 beta electrons
       nuclear repulsion energy      1624.4738059483 Hartrees.
 NAtoms=   29 NActive=   29 NUniq=   29 SFac= 1.00D+00 NAtFMM=   60 NAOKFM=F Big=F
 Nuclear repulsion after empirical dispersion term =     1624.4372078800 Hartrees.
 Initial guess from the checkpoint file:  "checkpoint.chk"
 B after Tr=     0.000000    0.000000    0.000000
         Rot=    1.000000    0.000000    0.000000    0.000000 Ang=   0.00 deg.
 Initial guess <Sx>= 0.0000 <Sy>= 0.0000 <Sz>= 2.5000 <S**2>= 8.7627 S= 2.5021
 SCF Done:  E(UPBE1PBE) =  -3033.15659486     A.U. after    1 cycles
            NFock=  1  Conv=0.22D-08     -V/T= 2.0021
 <Sx>= 0.0000 <Sy>= 0.0000 <Sz>= 2.5000 <S**2>= 8.7627 S= 2.5021
 <L.S>= 0.000000000000E+00
 Annihilation of the first spin contaminant:
 S**2 before annihilation     8.7627,   after     8.7501
 1\1\GINC-HOLY7C12205\SP\UPBE1PBE\Jul-CC-pVDZ\C8H16Cl3Fe1O1(6)\EKWAN\11
 -Feb-2020\0\\#t pop=none jul-cc-pvdz guess=read upbe1pbe empiricaldisp
 ersion=gd3bj\\theory_abbreviation pbe0_d3bj\\0,6\O,0,-0.309622,-0.2062
 53,-0.533136\C,0,-1.136561,-1.16593,-0.326267\C,0,-2.712754,-0.272376,
 0.83118\C,0,-2.962124,0.72916,-0.072954\C,0,-3.972469,0.577753,-1.1664
 92\Fe,0,1.515662,0.179533,-0.082737\Cl,0,1.84947,2.128638,-1.017734\C,
 0,-2.193985,2.003891,-0.047692\Cl,0,2.586545,-1.524599,-0.957431\Cl,0,
 1.706093,0.243424,2.109821\H,0,-3.37483,-1.136436,0.790441\H,0,-2.6720
 03,2.786414,-0.642202\H,0,-2.014506,2.371289,0.966154\H,0,-1.202755,1.
 802828,-0.488621\H,0,-4.784039,1.297665,-0.991406\H,0,-3.545493,0.8330
 24,-2.144674\H,0,-4.409538,-0.42208,-1.209511\C,0,-2.052738,0.006556,2
 .164829\H,0,-2.645702,0.737942,2.727292\H,0,-1.990264,-0.89765,2.77282
 3\H,0,-1.043197,0.411313,2.059486\C,0,-0.760283,-2.218491,0.69631\H,0,
 -1.604143,-2.851261,0.978796\H,0,-0.006746,-2.846072,0.200364\H,0,-0.2
 91549,-1.786203,1.579187\C,0,-1.844123,-1.693479,-1.55474\H,0,-1.13116
 1,-2.36706,-2.048029\H,0,-2.74117,-2.267421,-1.312174\H,0,-2.078743,-0
 .893516,-2.255869\\Version=ES64L-G16RevA.03\HF=-3033.1565949\S2=8.7627
 29\S2-1=0.\S2A=8.75005\RMSD=2.200e-09\PG=C01 [X(C8H16Cl3Fe1O1)]\\@


 HONESTY IN A LAWYER IS LIKE A HEN'S HIND LEGS.
  -- MAGNUS OLESON, LAKE WOBEGON PATRIARCH, C.1875
 Job cpu time:       0 days  0 hours  4 minutes 23.5 seconds.
 Elapsed time:       0 days  0 hours  1 minutes  6.6 seconds.
 File lengths (MBytes):  RWF=    170 Int=      0 D2E=      0 Chk=     13 Scr=      1
 Normal termination of Gaussian 16 at Tue Feb 11 20:06:28 2020.
 Initial command:
 /n/sw/g16_nehalem/g16/l1.exe "/scratch/Gau-353074.inp" -scrdir="/scratch/"
 Entering Link 1 = /n/sw/g16_nehalem/g16/l1.exe PID=    354585.
  
 Copyright (c) 1988,1990,1992,1993,1995,1998,2003,2009,2016,
            Gaussian, Inc.  All Rights Reserved.
  
 This is part of the Gaussian(R) 16 program.  It is based on
 the Gaussian(R) 09 system (copyright 2009, Gaussian, Inc.),
 the Gaussian(R) 03 system (copyright 2003, Gaussian, Inc.),
 the Gaussian(R) 98 system (copyright 1998, Gaussian, Inc.),
 the Gaussian(R) 94 system (copyright 1995, Gaussian, Inc.),
 the Gaussian 92(TM) system (copyright 1992, Gaussian, Inc.),
 the Gaussian 90(TM) system (copyright 1990, Gaussian, Inc.),
 the Gaussian 88(TM) system (copyright 1988, Gaussian, Inc.),
 the Gaussian 86(TM) system (copyright 1986, Carnegie Mellon
 University), and the Gaussian 82(TM) system (copyright 1983,
 Carnegie Mellon University). Gaussian is a federally registered
 trademark of Gaussian, Inc.
  
 This software contains proprietary and confidential information,
 including trade secrets, belonging to Gaussian, Inc.
  
 This software is provided under written license and may be
 used, copied, transmitted, or stored only in accord with that
 written license.
  
 The following legend is applicable only to US Government
 contracts under FAR:
  
                    RESTRICTED RIGHTS LEGEND
  
 Use, reproduction and disclosure by the US Government is
 subject to restrictions as set forth in subparagraphs (a)
 and (c) of the Commercial Computer Software - Restricted
 Rights clause in FAR 52.227-19.
  
 Gaussian, Inc.
 340 Quinnipiac St., Bldg. 40, Wallingford CT 06492
  
  
 ---------------------------------------------------------------
 Warning -- This program may not be used in any manner that
 competes with the business of Gaussian, Inc. or will provide
 assistance to any competitor of Gaussian, Inc.  The licensee
 of this program is prohibited from giving any competitor of
 Gaussian, Inc. access to this program.  By using this program,
 the user acknowledges that Gaussian, Inc. is engaged in the
 business of creating and licensing software in the field of
 computational chemistry and represents and warrants to the
 licensee that it is not a competitor of Gaussian, Inc. and that
 it will not use this program in any manner prohibited above.
 ---------------------------------------------------------------
  

 Cite this work as:
 Gaussian 16, Revision A.03,
 M. J. Frisch, G. W. Trucks, H. B. Schlegel, G. E. Scuseria, 
 M. A. Robb, J. R. Cheeseman, G. Scalmani, V. Barone, 
 G. A. Petersson, H. Nakatsuji, X. Li, M. Caricato, A. V. Marenich, 
 J. Bloino, B. G. Janesko, R. Gomperts, B. Mennucci, H. P. Hratchian, 
 J. V. Ortiz, A. F. Izmaylov, J. L. Sonnenberg, D. Williams-Young, 
 F. Ding, F. Lipparini, F. Egidi, J. Goings, B. Peng, A. Petrone, 
 T. Henderson, D. Ranasinghe, V. G. Zakrzewski, J. Gao, N. Rega, 
 G. Zheng, W. Liang, M. Hada, M. Ehara, K. Toyota, R. Fukuda, 
 J. Hasegawa, M. Ishida, T. Nakajima, Y. Honda, O. Kitao, H. Nakai, 
 T. Vreven, K. Throssell, J. A. Montgomery, Jr., J. E. Peralta, 
 F. Ogliaro, M. J. Bearpark, J. J. Heyd, E. N. Brothers, K. N. Kudin, 
 V. N. Staroverov, T. A. Keith, R. Kobayashi, J. Normand, 
 K. Raghavachari, A. P. Rendell, J. C. Burant, S. S. Iyengar, 
 J. Tomasi, M. Cossi, J. M. Millam, M. Klene, C. Adamo, R. Cammi, 
 J. W. Ochterski, R. L. Martin, K. Morokuma, O. Farkas, 
 J. B. Foresman, and D. J. Fox, Gaussian, Inc., Wallingford CT, 2016.
 
 ******************************************
 Gaussian 16:  ES64L-G16RevA.03 25-Dec-2016
                11-Feb-2020 
 ******************************************
 %chk=checkpoint.chk
 %mem=3GB
 %nprocshared=4
 Will use up to    4 processors via shared memory.
 -----------------------------------------
 #t pop=none jul-cc-pvdz guess=read ub3lyp
 -----------------------------------------
 -------------------------
 theory_abbreviation b3lyp
 -------------------------
 Symbolic Z-matrix:
 Charge =  0 Multiplicity = 6
 O                    -0.30962  -0.20625  -0.53314 
 C                    -1.13656  -1.16593  -0.32627 
 C                    -2.71275  -0.27238   0.83118 
 C                    -2.96212   0.72916  -0.07295 
 C                    -3.97247   0.57775  -1.16649 
 Fe                    1.51566   0.17953  -0.08274 
 Cl                    1.84947   2.12864  -1.01773 
 C                    -2.19399   2.00389  -0.04769 
 Cl                    2.58655  -1.5246   -0.95743 
 Cl                    1.70609   0.24342   2.10982 
 H                    -3.37483  -1.13644   0.79044 
 H                    -2.672     2.78641  -0.6422 
 H                    -2.01451   2.37129   0.96615 
 H                    -1.20276   1.80283  -0.48862 
 H                    -4.78404   1.29767  -0.99141 
 H                    -3.54549   0.83302  -2.14467 
 H                    -4.40954  -0.42208  -1.20951 
 C                    -2.05274   0.00656   2.16483 
 H                    -2.6457    0.73794   2.72729 
 H                    -1.99026  -0.89765   2.77282 
 H                    -1.0432    0.41131   2.05949 
 C                    -0.76028  -2.21849   0.69631 
 H                    -1.60414  -2.85126   0.9788 
 H                    -0.00675  -2.84607   0.20036 
 H                    -0.29155  -1.7862    1.57919 
 C                    -1.84412  -1.69348  -1.55474 
 H                    -1.13116  -2.36706  -2.04803 
 H                    -2.74117  -2.26742  -1.31217 
 H                    -2.07874  -0.89352  -2.25587 
 
                    Distance matrix (angstroms):
                    1          2          3          4          5
     1  O    0.000000
     2  C    1.283590   0.000000
     3  C    2.764195   2.150002   0.000000
     4  C    2.850006   2.643523   1.372122   0.000000
     5  C    3.798981   3.433480   2.510039   1.496511   0.000000
     6  Fe   1.919206   2.983934   4.349594   4.511403   5.608269
     7  Cl   3.216866   4.499854   5.476974   5.099273   6.026802
     8  C    2.944693   3.353135   2.494580   1.488494   2.539407
     9  Cl   3.210272   3.793222   5.731471   6.053879   6.890882
    10  Cl   3.354182   4.000186   4.628950   5.176166   6.564455
    11  H    3.465919   2.501550   1.089314   2.096718   2.669308
    12  H    3.814288   4.251873   3.395396   2.154184   2.616157
    13  H    3.434854   3.866918   2.737651   2.162016   3.405667
    14  H    2.199108   2.973931   2.885904   2.102599   3.103487
    15  H    4.742593   4.451495   3.174440   2.118048   1.098897
    16  H    3.761384   3.620135   3.281931   2.154793   1.097411
    17  H    4.160934   3.470708   2.658177   2.170742   1.092038
    18  C    3.219124   2.901666   1.513950   2.521272   3.887073
    19  H    4.120578   3.902109   2.149530   2.818080   4.116737
    20  H    3.772526   3.225700   2.164009   3.418987   4.650178
    21  H    2.764274   2.861508   2.182564   2.886279   4.360650
    22  C    2.400778   1.514970   2.760017   3.758792   4.648349
    23  H    3.310255   2.182238   2.810953   3.971109   4.687149
    24  H    2.756520   2.092056   3.787389   4.646638   5.414594
    25  H    2.637893   2.174750   2.951850   4.023505   5.164902
    26  C    2.368588   1.512646   2.909754   3.052015   3.136732
    27  H    2.763859   2.099335   3.896021   4.103648   4.185936
    28  H    3.281423   2.181757   2.928306   3.250228   3.103600
    29  H    2.563187   2.164551   3.212111   2.859818   2.633927
                    6          7          8          9         10
     6  Fe   0.000000
     7  Cl   2.187386   0.000000
     8  C    4.134125   4.160057   0.000000
     9  Cl   2.194526   3.727339   6.010935   0.000000
    10  Cl   2.201739   3.654612   4.792151   3.648169   0.000000
    11  H    5.139176   6.420554   3.458109   6.224445   5.427758
    12  H    4.964410   4.584475   1.092834   6.807094   5.762652
    13  H    4.285563   4.350288   1.093196   6.328333   4.436061
    14  H    3.192118   3.114834   1.103350   5.064617   4.200600
    15  H    6.462363   6.685406   2.845651   7.892518   7.269859
    16  H    5.503992   5.661646   2.755873   6.676063   6.784358
    17  H    6.061316   6.761518   3.484800   7.086908   6.990122
    18  C    4.220776   5.464354   2.984049   5.797921   3.766689
    19  H    5.052231   6.013803   3.083377   6.787686   4.423114
    20  H    4.648232   6.186299   4.051635   5.937596   3.924879
    21  H    3.345236   4.559168   2.881114   5.101428   2.754871
    22  C    3.396669   5.352223   4.520791   3.797052   3.760592
    23  H    4.477248   6.380672   4.997409   4.803215   4.670541
    24  H    3.398847   5.447664   5.326132   3.132401   4.015573
    25  H    3.145174   5.162745   4.542115   3.845295   2.896814
    26  C    4.118631   5.342245   4.008010   4.473938   5.457530
    27  H    4.165715   5.491536   4.923023   3.964906   5.670305
    28  H    5.061592   6.362861   4.488032   5.390934   6.147564
    29  H    4.335168   5.108547   3.644763   4.883556   5.888707
                   11         12         13         14         15
    11  H    0.000000
    12  H    4.234995   0.000000
    13  H    3.766363   1.786460   0.000000
    14  H    3.872103   1.774745   1.760244   0.000000
    15  H    3.329519   2.607492   3.557390   3.651517   0.000000
    16  H    3.538757   2.614601   3.793077   3.028441   1.754969
    17  H    2.362358   3.692601   4.274647   3.969050   1.773512
    18  C    2.223353   3.998815   2.651461   3.315096   4.369072
    19  H    2.792188   3.943402   2.483513   3.682143   4.326025
    20  H    2.429790   5.069467   3.735051   4.306944   5.176293
    21  H    3.072867   3.948827   2.445470   2.907683   4.907898
    22  C    2.831176   5.522261   4.765708   4.215549   5.603780
    23  H    2.472132   5.962494   5.238663   4.896424   5.586325
    24  H    3.822962   6.287958   5.642552   4.849475   6.435324
    25  H    3.248221   5.613373   4.541930   4.241140   6.025003
    26  C    2.855387   4.646241   4.786050   3.711081   4.231713
    27  H    3.821701   5.559572   5.684853   4.452510   5.281115
    28  H    2.470150   5.098519   5.218855   4.428531   4.121413
    29  H    3.319466   4.061744   4.587430   3.340777   3.703885
                   16         17         18         19         20
    16  H    0.000000
    17  H    1.787845   0.000000
    18  C    4.634995   4.138165   0.000000
    19  H    4.955272   4.467123   1.096766   0.000000
    20  H    5.440197   4.683806   1.091397   1.762621   0.000000
    21  H    4.910630   4.765830   1.092748   1.766543   1.766117
    22  C    5.014013   4.491805   2.962739   4.052183   2.751251
    23  H    5.205657   4.308114   3.126504   4.126071   2.680339
    24  H    5.617622   5.219968   4.022772   5.118067   3.787907
    25  H    5.596038   5.157083   2.580455   3.637511   2.258302
    26  C    3.102563   2.883920   4.094977   4.989001   4.402556
    27  H    4.009847   3.903052   4.922553   5.893943   5.112518
    28  H    3.309494   2.489834   4.211230   5.035733   4.373481
    29  H    2.268184   2.598023   4.511472   5.273992   5.029472
                   21         22         23         24         25
    21  H    0.000000
    22  C    2.975594   0.000000
    23  H    3.482376   1.091923   0.000000
    24  H    3.891160   1.098926   1.776981   0.000000
    25  H    2.371653   1.089062   1.793801   1.762268   0.000000
    26  C    4.258434   2.552954   2.795864   2.790128   3.498654
    27  H    4.959715   2.773269   3.101585   2.559108   3.768161
    28  H    4.628911   2.821403   2.623403   3.178000   3.819971
    29  H    4.625713   3.494175   3.810652   3.760150   4.324189
                   26         27         28         29
    26  C    0.000000
    27  H    1.097889   0.000000
    28  H    1.092218   1.773003   0.000000
    29  H    1.089298   1.764211   1.793595   0.000000
 Framework group  C1[X(C8H16Cl3FeO)]
 Deg. of freedom    81
                         Standard orientation:                         
 ---------------------------------------------------------------------
 Center     Atomic      Atomic             Coordinates (Angstroms)
 Number     Number       Type             X           Y           Z
 ---------------------------------------------------------------------
      1          8           0       -0.309622   -0.206253   -0.533136
      2          6           0       -1.136561   -1.165930   -0.326267
      3          6           0       -2.712754   -0.272376    0.831180
      4          6           0       -2.962124    0.729160   -0.072954
      5          6           0       -3.972469    0.577753   -1.166492
      6         26           0        1.515662    0.179533   -0.082737
      7         17           0        1.849470    2.128638   -1.017734
      8          6           0       -2.193985    2.003891   -0.047692
      9         17           0        2.586545   -1.524599   -0.957431
     10         17           0        1.706093    0.243424    2.109821
     11          1           0       -3.374830   -1.136436    0.790441
     12          1           0       -2.672003    2.786414   -0.642202
     13          1           0       -2.014506    2.371289    0.966154
     14          1           0       -1.202755    1.802828   -0.488621
     15          1           0       -4.784039    1.297665   -0.991406
     16          1           0       -3.545493    0.833024   -2.144674
     17          1           0       -4.409538   -0.422080   -1.209511
     18          6           0       -2.052738    0.006556    2.164829
     19          1           0       -2.645702    0.737942    2.727292
     20          1           0       -1.990264   -0.897650    2.772823
     21          1           0       -1.043197    0.411313    2.059486
     22          6           0       -0.760283   -2.218491    0.696310
     23          1           0       -1.604143   -2.851261    0.978796
     24          1           0       -0.006746   -2.846072    0.200364
     25          1           0       -0.291549   -1.786203    1.579187
     26          6           0       -1.844123   -1.693479   -1.554740
     27          1           0       -1.131161   -2.367060   -2.048029
     28          1           0       -2.741170   -2.267421   -1.312174
     29          1           0       -2.078743   -0.893516   -2.255869
 ---------------------------------------------------------------------
 Rotational constants (GHZ):           0.5903979           0.3102041           0.2961168
   427 basis functions,  1056 primitive gaussians,   461 cartesian basis functions
    77 alpha electrons       72 beta electrons
       nuclear repulsion energy      1624.4738059483 Hartrees.
 NAtoms=   29 NActive=   29 NUniq=   29 SFac= 1.00D+00 NAtFMM=   60 NAOKFM=F Big=F
 Initial guess from the checkpoint file:  "checkpoint.chk"
 B after Tr=     0.000000    0.000000    0.000000
         Rot=    1.000000    0.000000    0.000000    0.000000 Ang=   0.00 deg.
 Initial guess <Sx>= 0.0000 <Sy>= 0.0000 <Sz>= 2.5000 <S**2>= 8.7627 S= 2.5021
 SCF Done:  E(UB3LYP) =  -3034.33580499     A.U. after   15 cycles
            NFock= 15  Conv=0.70D-08     -V/T= 2.0024
 <Sx>= 0.0000 <Sy>= 0.0000 <Sz>= 2.5000 <S**2>= 8.7620 S= 2.5020
 <L.S>= 0.000000000000E+00
 Annihilation of the first spin contaminant:
 S**2 before annihilation     8.7620,   after     8.7500
 1\1\GINC-HOLY7C12205\SP\UB3LYP\Jul-CC-pVDZ\C8H16Cl3Fe1O1(6)\EKWAN\11-F
 eb-2020\0\\#t pop=none jul-cc-pvdz guess=read ub3lyp\\theory_abbreviat
 ion b3lyp\\0,6\O,0,-0.309622,-0.206253,-0.533136\C,0,-1.136561,-1.1659
 3,-0.326267\C,0,-2.712754,-0.272376,0.83118\C,0,-2.962124,0.72916,-0.0
 72954\C,0,-3.972469,0.577753,-1.166492\Fe,0,1.515662,0.179533,-0.08273
 7\Cl,0,1.84947,2.128638,-1.017734\C,0,-2.193985,2.003891,-0.047692\Cl,
 0,2.586545,-1.524599,-0.957431\Cl,0,1.706093,0.243424,2.109821\H,0,-3.
 37483,-1.136436,0.790441\H,0,-2.672003,2.786414,-0.642202\H,0,-2.01450
 6,2.371289,0.966154\H,0,-1.202755,1.802828,-0.488621\H,0,-4.784039,1.2
 97665,-0.991406\H,0,-3.545493,0.833024,-2.144674\H,0,-4.409538,-0.4220
 8,-1.209511\C,0,-2.052738,0.006556,2.164829\H,0,-2.645702,0.737942,2.7
 27292\H,0,-1.990264,-0.89765,2.772823\H,0,-1.043197,0.411313,2.059486\
 C,0,-0.760283,-2.218491,0.69631\H,0,-1.604143,-2.851261,0.978796\H,0,-
 0.006746,-2.846072,0.200364\H,0,-0.291549,-1.786203,1.579187\C,0,-1.84
 4123,-1.693479,-1.55474\H,0,-1.131161,-2.36706,-2.048029\H,0,-2.74117,
 -2.267421,-1.312174\H,0,-2.078743,-0.893516,-2.255869\\Version=ES64L-G
 16RevA.03\HF=-3034.335805\S2=8.762011\S2-1=0.\S2A=8.750045\RMSD=6.970e
 -09\PG=C01 [X(C8H16Cl3Fe1O1)]\\@


 ... SUBJECTS WHICH DISCLOSE THEIR FULL POWER, MEANING AND BEAUTY AS SOON
 AS THEY ARE PRESENTED TO THE MIND HAVE VERY LITTLE OF THOSE QUALITIES
 TO DISCLOSE.
                           -- CHARLES DUTTON (1882)
 Job cpu time:       0 days  0 hours 59 minutes 11.4 seconds.
 Elapsed time:       0 days  0 hours 14 minutes 50.8 seconds.
 File lengths (MBytes):  RWF=    174 Int=      0 D2E=      0 Chk=     13 Scr=      1
 Normal termination of Gaussian 16 at Tue Feb 11 20:21:19 2020.
 Initial command:
 /n/sw/g16_nehalem/g16/l1.exe "/scratch/Gau-353074.inp" -scrdir="/scratch/"
 Entering Link 1 = /n/sw/g16_nehalem/g16/l1.exe PID=    355590.
  
 Copyright (c) 1988,1990,1992,1993,1995,1998,2003,2009,2016,
            Gaussian, Inc.  All Rights Reserved.
  
 This is part of the Gaussian(R) 16 program.  It is based on
 the Gaussian(R) 09 system (copyright 2009, Gaussian, Inc.),
 the Gaussian(R) 03 system (copyright 2003, Gaussian, Inc.),
 the Gaussian(R) 98 system (copyright 1998, Gaussian, Inc.),
 the Gaussian(R) 94 system (copyright 1995, Gaussian, Inc.),
 the Gaussian 92(TM) system (copyright 1992, Gaussian, Inc.),
 the Gaussian 90(TM) system (copyright 1990, Gaussian, Inc.),
 the Gaussian 88(TM) system (copyright 1988, Gaussian, Inc.),
 the Gaussian 86(TM) system (copyright 1986, Carnegie Mellon
 University), and the Gaussian 82(TM) system (copyright 1983,
 Carnegie Mellon University). Gaussian is a federally registered
 trademark of Gaussian, Inc.
  
 This software contains proprietary and confidential information,
 including trade secrets, belonging to Gaussian, Inc.
  
 This software is provided under written license and may be
 used, copied, transmitted, or stored only in accord with that
 written license.
  
 The following legend is applicable only to US Government
 contracts under FAR:
  
                    RESTRICTED RIGHTS LEGEND
  
 Use, reproduction and disclosure by the US Government is
 subject to restrictions as set forth in subparagraphs (a)
 and (c) of the Commercial Computer Software - Restricted
 Rights clause in FAR 52.227-19.
  
 Gaussian, Inc.
 340 Quinnipiac St., Bldg. 40, Wallingford CT 06492
  
  
 ---------------------------------------------------------------
 Warning -- This program may not be used in any manner that
 competes with the business of Gaussian, Inc. or will provide
 assistance to any competitor of Gaussian, Inc.  The licensee
 of this program is prohibited from giving any competitor of
 Gaussian, Inc. access to this program.  By using this program,
 the user acknowledges that Gaussian, Inc. is engaged in the
 business of creating and licensing software in the field of
 computational chemistry and represents and warrants to the
 licensee that it is not a competitor of Gaussian, Inc. and that
 it will not use this program in any manner prohibited above.
 ---------------------------------------------------------------
  

 Cite this work as:
 Gaussian 16, Revision A.03,
 M. J. Frisch, G. W. Trucks, H. B. Schlegel, G. E. Scuseria, 
 M. A. Robb, J. R. Cheeseman, G. Scalmani, V. Barone, 
 G. A. Petersson, H. Nakatsuji, X. Li, M. Caricato, A. V. Marenich, 
 J. Bloino, B. G. Janesko, R. Gomperts, B. Mennucci, H. P. Hratchian, 
 J. V. Ortiz, A. F. Izmaylov, J. L. Sonnenberg, D. Williams-Young, 
 F. Ding, F. Lipparini, F. Egidi, J. Goings, B. Peng, A. Petrone, 
 T. Henderson, D. Ranasinghe, V. G. Zakrzewski, J. Gao, N. Rega, 
 G. Zheng, W. Liang, M. Hada, M. Ehara, K. Toyota, R. Fukuda, 
 J. Hasegawa, M. Ishida, T. Nakajima, Y. Honda, O. Kitao, H. Nakai, 
 T. Vreven, K. Throssell, J. A. Montgomery, Jr., J. E. Peralta, 
 F. Ogliaro, M. J. Bearpark, J. J. Heyd, E. N. Brothers, K. N. Kudin, 
 V. N. Staroverov, T. A. Keith, R. Kobayashi, J. Normand, 
 K. Raghavachari, A. P. Rendell, J. C. Burant, S. S. Iyengar, 
 J. Tomasi, M. Cossi, J. M. Millam, M. Klene, C. Adamo, R. Cammi, 
 J. W. Ochterski, R. L. Martin, K. Morokuma, O. Farkas, 
 J. B. Foresman, and D. J. Fox, Gaussian, Inc., Wallingford CT, 2016.
 
 ******************************************
 Gaussian 16:  ES64L-G16RevA.03 25-Dec-2016
                11-Feb-2020 
 ******************************************
 %chk=checkpoint.chk
 %mem=3GB
 %nprocshared=4
 Will use up to    4 processors via shared memory.
 -------------------------------------------------------------------
 #t pop=none jul-cc-pvdz guess=read ub3lyp empiricaldispersion=gd3bj
 -------------------------------------------------------------------
 ------------------------------
 theory_abbreviation b3lyp_d3bj
 ------------------------------
 Symbolic Z-matrix:
 Charge =  0 Multiplicity = 6
 O                    -0.30962  -0.20625  -0.53314 
 C                    -1.13656  -1.16593  -0.32627 
 C                    -2.71275  -0.27238   0.83118 
 C                    -2.96212   0.72916  -0.07295 
 C                    -3.97247   0.57775  -1.16649 
 Fe                    1.51566   0.17953  -0.08274 
 Cl                    1.84947   2.12864  -1.01773 
 C                    -2.19399   2.00389  -0.04769 
 Cl                    2.58655  -1.5246   -0.95743 
 Cl                    1.70609   0.24342   2.10982 
 H                    -3.37483  -1.13644   0.79044 
 H                    -2.672     2.78641  -0.6422 
 H                    -2.01451   2.37129   0.96615 
 H                    -1.20276   1.80283  -0.48862 
 H                    -4.78404   1.29767  -0.99141 
 H                    -3.54549   0.83302  -2.14467 
 H                    -4.40954  -0.42208  -1.20951 
 C                    -2.05274   0.00656   2.16483 
 H                    -2.6457    0.73794   2.72729 
 H                    -1.99026  -0.89765   2.77282 
 H                    -1.0432    0.41131   2.05949 
 C                    -0.76028  -2.21849   0.69631 
 H                    -1.60414  -2.85126   0.9788 
 H                    -0.00675  -2.84607   0.20036 
 H                    -0.29155  -1.7862    1.57919 
 C                    -1.84412  -1.69348  -1.55474 
 H                    -1.13116  -2.36706  -2.04803 
 H                    -2.74117  -2.26742  -1.31217 
 H                    -2.07874  -0.89352  -2.25587 
 
                    Distance matrix (angstroms):
                    1          2          3          4          5
     1  O    0.000000
     2  C    1.283590   0.000000
     3  C    2.764195   2.150002   0.000000
     4  C    2.850006   2.643523   1.372122   0.000000
     5  C    3.798981   3.433480   2.510039   1.496511   0.000000
     6  Fe   1.919206   2.983934   4.349594   4.511403   5.608269
     7  Cl   3.216866   4.499854   5.476974   5.099273   6.026802
     8  C    2.944693   3.353135   2.494580   1.488494   2.539407
     9  Cl   3.210272   3.793222   5.731471   6.053879   6.890882
    10  Cl   3.354182   4.000186   4.628950   5.176166   6.564455
    11  H    3.465919   2.501550   1.089314   2.096718   2.669308
    12  H    3.814288   4.251873   3.395396   2.154184   2.616157
    13  H    3.434854   3.866918   2.737651   2.162016   3.405667
    14  H    2.199108   2.973931   2.885904   2.102599   3.103487
    15  H    4.742593   4.451495   3.174440   2.118048   1.098897
    16  H    3.761384   3.620135   3.281931   2.154793   1.097411
    17  H    4.160934   3.470708   2.658177   2.170742   1.092038
    18  C    3.219124   2.901666   1.513950   2.521272   3.887073
    19  H    4.120578   3.902109   2.149530   2.818080   4.116737
    20  H    3.772526   3.225700   2.164009   3.418987   4.650178
    21  H    2.764274   2.861508   2.182564   2.886279   4.360650
    22  C    2.400778   1.514970   2.760017   3.758792   4.648349
    23  H    3.310255   2.182238   2.810953   3.971109   4.687149
    24  H    2.756520   2.092056   3.787389   4.646638   5.414594
    25  H    2.637893   2.174750   2.951850   4.023505   5.164902
    26  C    2.368588   1.512646   2.909754   3.052015   3.136732
    27  H    2.763859   2.099335   3.896021   4.103648   4.185936
    28  H    3.281423   2.181757   2.928306   3.250228   3.103600
    29  H    2.563187   2.164551   3.212111   2.859818   2.633927
                    6          7          8          9         10
     6  Fe   0.000000
     7  Cl   2.187386   0.000000
     8  C    4.134125   4.160057   0.000000
     9  Cl   2.194526   3.727339   6.010935   0.000000
    10  Cl   2.201739   3.654612   4.792151   3.648169   0.000000
    11  H    5.139176   6.420554   3.458109   6.224445   5.427758
    12  H    4.964410   4.584475   1.092834   6.807094   5.762652
    13  H    4.285563   4.350288   1.093196   6.328333   4.436061
    14  H    3.192118   3.114834   1.103350   5.064617   4.200600
    15  H    6.462363   6.685406   2.845651   7.892518   7.269859
    16  H    5.503992   5.661646   2.755873   6.676063   6.784358
    17  H    6.061316   6.761518   3.484800   7.086908   6.990122
    18  C    4.220776   5.464354   2.984049   5.797921   3.766689
    19  H    5.052231   6.013803   3.083377   6.787686   4.423114
    20  H    4.648232   6.186299   4.051635   5.937596   3.924879
    21  H    3.345236   4.559168   2.881114   5.101428   2.754871
    22  C    3.396669   5.352223   4.520791   3.797052   3.760592
    23  H    4.477248   6.380672   4.997409   4.803215   4.670541
    24  H    3.398847   5.447664   5.326132   3.132401   4.015573
    25  H    3.145174   5.162745   4.542115   3.845295   2.896814
    26  C    4.118631   5.342245   4.008010   4.473938   5.457530
    27  H    4.165715   5.491536   4.923023   3.964906   5.670305
    28  H    5.061592   6.362861   4.488032   5.390934   6.147564
    29  H    4.335168   5.108547   3.644763   4.883556   5.888707
                   11         12         13         14         15
    11  H    0.000000
    12  H    4.234995   0.000000
    13  H    3.766363   1.786460   0.000000
    14  H    3.872103   1.774745   1.760244   0.000000
    15  H    3.329519   2.607492   3.557390   3.651517   0.000000
    16  H    3.538757   2.614601   3.793077   3.028441   1.754969
    17  H    2.362358   3.692601   4.274647   3.969050   1.773512
    18  C    2.223353   3.998815   2.651461   3.315096   4.369072
    19  H    2.792188   3.943402   2.483513   3.682143   4.326025
    20  H    2.429790   5.069467   3.735051   4.306944   5.176293
    21  H    3.072867   3.948827   2.445470   2.907683   4.907898
    22  C    2.831176   5.522261   4.765708   4.215549   5.603780
    23  H    2.472132   5.962494   5.238663   4.896424   5.586325
    24  H    3.822962   6.287958   5.642552   4.849475   6.435324
    25  H    3.248221   5.613373   4.541930   4.241140   6.025003
    26  C    2.855387   4.646241   4.786050   3.711081   4.231713
    27  H    3.821701   5.559572   5.684853   4.452510   5.281115
    28  H    2.470150   5.098519   5.218855   4.428531   4.121413
    29  H    3.319466   4.061744   4.587430   3.340777   3.703885
                   16         17         18         19         20
    16  H    0.000000
    17  H    1.787845   0.000000
    18  C    4.634995   4.138165   0.000000
    19  H    4.955272   4.467123   1.096766   0.000000
    20  H    5.440197   4.683806   1.091397   1.762621   0.000000
    21  H    4.910630   4.765830   1.092748   1.766543   1.766117
    22  C    5.014013   4.491805   2.962739   4.052183   2.751251
    23  H    5.205657   4.308114   3.126504   4.126071   2.680339
    24  H    5.617622   5.219968   4.022772   5.118067   3.787907
    25  H    5.596038   5.157083   2.580455   3.637511   2.258302
    26  C    3.102563   2.883920   4.094977   4.989001   4.402556
    27  H    4.009847   3.903052   4.922553   5.893943   5.112518
    28  H    3.309494   2.489834   4.211230   5.035733   4.373481
    29  H    2.268184   2.598023   4.511472   5.273992   5.029472
                   21         22         23         24         25
    21  H    0.000000
    22  C    2.975594   0.000000
    23  H    3.482376   1.091923   0.000000
    24  H    3.891160   1.098926   1.776981   0.000000
    25  H    2.371653   1.089062   1.793801   1.762268   0.000000
    26  C    4.258434   2.552954   2.795864   2.790128   3.498654
    27  H    4.959715   2.773269   3.101585   2.559108   3.768161
    28  H    4.628911   2.821403   2.623403   3.178000   3.819971
    29  H    4.625713   3.494175   3.810652   3.760150   4.324189
                   26         27         28         29
    26  C    0.000000
    27  H    1.097889   0.000000
    28  H    1.092218   1.773003   0.000000
    29  H    1.089298   1.764211   1.793595   0.000000
 Framework group  C1[X(C8H16Cl3FeO)]
 Deg. of freedom    81
                         Standard orientation:                         
 ---------------------------------------------------------------------
 Center     Atomic      Atomic             Coordinates (Angstroms)
 Number     Number       Type             X           Y           Z
 ---------------------------------------------------------------------
      1          8           0       -0.309622   -0.206253   -0.533136
      2          6           0       -1.136561   -1.165930   -0.326267
      3          6           0       -2.712754   -0.272376    0.831180
      4          6           0       -2.962124    0.729160   -0.072954
      5          6           0       -3.972469    0.577753   -1.166492
      6         26           0        1.515662    0.179533   -0.082737
      7         17           0        1.849470    2.128638   -1.017734
      8          6           0       -2.193985    2.003891   -0.047692
      9         17           0        2.586545   -1.524599   -0.957431
     10         17           0        1.706093    0.243424    2.109821
     11          1           0       -3.374830   -1.136436    0.790441
     12          1           0       -2.672003    2.786414   -0.642202
     13          1           0       -2.014506    2.371289    0.966154
     14          1           0       -1.202755    1.802828   -0.488621
     15          1           0       -4.784039    1.297665   -0.991406
     16          1           0       -3.545493    0.833024   -2.144674
     17          1           0       -4.409538   -0.422080   -1.209511
     18          6           0       -2.052738    0.006556    2.164829
     19          1           0       -2.645702    0.737942    2.727292
     20          1           0       -1.990264   -0.897650    2.772823
     21          1           0       -1.043197    0.411313    2.059486
     22          6           0       -0.760283   -2.218491    0.696310
     23          1           0       -1.604143   -2.851261    0.978796
     24          1           0       -0.006746   -2.846072    0.200364
     25          1           0       -0.291549   -1.786203    1.579187
     26          6           0       -1.844123   -1.693479   -1.554740
     27          1           0       -1.131161   -2.367060   -2.048029
     28          1           0       -2.741170   -2.267421   -1.312174
     29          1           0       -2.078743   -0.893516   -2.255869
 ---------------------------------------------------------------------
 Rotational constants (GHZ):           0.5903979           0.3102041           0.2961168
   427 basis functions,  1056 primitive gaussians,   461 cartesian basis functions
    77 alpha electrons       72 beta electrons
       nuclear repulsion energy      1624.4738059483 Hartrees.
 NAtoms=   29 NActive=   29 NUniq=   29 SFac= 1.00D+00 NAtFMM=   60 NAOKFM=F Big=F
 Nuclear repulsion after empirical dispersion term =     1624.4056086997 Hartrees.
 Initial guess from the checkpoint file:  "checkpoint.chk"
 B after Tr=     0.000000    0.000000    0.000000
         Rot=    1.000000    0.000000    0.000000    0.000000 Ang=   0.00 deg.
 Initial guess <Sx>= 0.0000 <Sy>= 0.0000 <Sz>= 2.5000 <S**2>= 8.7620 S= 2.5020
 SCF Done:  E(UB3LYP) =  -3034.40400224     A.U. after    1 cycles
            NFock=  1  Conv=0.24D-08     -V/T= 2.0024
 <Sx>= 0.0000 <Sy>= 0.0000 <Sz>= 2.5000 <S**2>= 8.7620 S= 2.5020
 <L.S>= 0.000000000000E+00
 Annihilation of the first spin contaminant:
 S**2 before annihilation     8.7620,   after     8.7500
 1\1\GINC-HOLY7C12205\SP\UB3LYP\Jul-CC-pVDZ\C8H16Cl3Fe1O1(6)\EKWAN\11-F
 eb-2020\0\\#t pop=none jul-cc-pvdz guess=read ub3lyp empiricaldispersi
 on=gd3bj\\theory_abbreviation b3lyp_d3bj\\0,6\O,0,-0.309622,-0.206253,
 -0.533136\C,0,-1.136561,-1.16593,-0.326267\C,0,-2.712754,-0.272376,0.8
 3118\C,0,-2.962124,0.72916,-0.072954\C,0,-3.972469,0.577753,-1.166492\
 Fe,0,1.515662,0.179533,-0.082737\Cl,0,1.84947,2.128638,-1.017734\C,0,-
 2.193985,2.003891,-0.047692\Cl,0,2.586545,-1.524599,-0.957431\Cl,0,1.7
 06093,0.243424,2.109821\H,0,-3.37483,-1.136436,0.790441\H,0,-2.672003,
 2.786414,-0.642202\H,0,-2.014506,2.371289,0.966154\H,0,-1.202755,1.802
 828,-0.488621\H,0,-4.784039,1.297665,-0.991406\H,0,-3.545493,0.833024,
 -2.144674\H,0,-4.409538,-0.42208,-1.209511\C,0,-2.052738,0.006556,2.16
 4829\H,0,-2.645702,0.737942,2.727292\H,0,-1.990264,-0.89765,2.772823\H
 ,0,-1.043197,0.411313,2.059486\C,0,-0.760283,-2.218491,0.69631\H,0,-1.
 604143,-2.851261,0.978796\H,0,-0.006746,-2.846072,0.200364\H,0,-0.2915
 49,-1.786203,1.579187\C,0,-1.844123,-1.693479,-1.55474\H,0,-1.131161,-
 2.36706,-2.048029\H,0,-2.74117,-2.267421,-1.312174\H,0,-2.078743,-0.89
 3516,-2.255869\\Version=ES64L-G16RevA.03\HF=-3034.4040022\S2=8.762011\
 S2-1=0.\S2A=8.750045\RMSD=2.371e-09\PG=C01 [X(C8H16Cl3Fe1O1)]\\@


 WOMEN HOLD UP HALF THE SKY. -- MAO TSE TUNG
 Job cpu time:       0 days  0 hours  4 minutes 23.5 seconds.
 Elapsed time:       0 days  0 hours  1 minutes  6.7 seconds.
 File lengths (MBytes):  RWF=    170 Int=      0 D2E=      0 Chk=     13 Scr=      1
 Normal termination of Gaussian 16 at Tue Feb 11 20:22:26 2020.
 Initial command:
 /n/sw/g16_nehalem/g16/l1.exe "/scratch/Gau-353074.inp" -scrdir="/scratch/"
 Entering Link 1 = /n/sw/g16_nehalem/g16/l1.exe PID=    356115.
  
 Copyright (c) 1988,1990,1992,1993,1995,1998,2003,2009,2016,
            Gaussian, Inc.  All Rights Reserved.
  
 This is part of the Gaussian(R) 16 program.  It is based on
 the Gaussian(R) 09 system (copyright 2009, Gaussian, Inc.),
 the Gaussian(R) 03 system (copyright 2003, Gaussian, Inc.),
 the Gaussian(R) 98 system (copyright 1998, Gaussian, Inc.),
 the Gaussian(R) 94 system (copyright 1995, Gaussian, Inc.),
 the Gaussian 92(TM) system (copyright 1992, Gaussian, Inc.),
 the Gaussian 90(TM) system (copyright 1990, Gaussian, Inc.),
 the Gaussian 88(TM) system (copyright 1988, Gaussian, Inc.),
 the Gaussian 86(TM) system (copyright 1986, Carnegie Mellon
 University), and the Gaussian 82(TM) system (copyright 1983,
 Carnegie Mellon University). Gaussian is a federally registered
 trademark of Gaussian, Inc.
  
 This software contains proprietary and confidential information,
 including trade secrets, belonging to Gaussian, Inc.
  
 This software is provided under written license and may be
 used, copied, transmitted, or stored only in accord with that
 written license.
  
 The following legend is applicable only to US Government
 contracts under FAR:
  
                    RESTRICTED RIGHTS LEGEND
  
 Use, reproduction and disclosure by the US Government is
 subject to restrictions as set forth in subparagraphs (a)
 and (c) of the Commercial Computer Software - Restricted
 Rights clause in FAR 52.227-19.
  
 Gaussian, Inc.
 340 Quinnipiac St., Bldg. 40, Wallingford CT 06492
  
  
 ---------------------------------------------------------------
 Warning -- This program may not be used in any manner that
 competes with the business of Gaussian, Inc. or will provide
 assistance to any competitor of Gaussian, Inc.  The licensee
 of this program is prohibited from giving any competitor of
 Gaussian, Inc. access to this program.  By using this program,
 the user acknowledges that Gaussian, Inc. is engaged in the
 business of creating and licensing software in the field of
 computational chemistry and represents and warrants to the
 licensee that it is not a competitor of Gaussian, Inc. and that
 it will not use this program in any manner prohibited above.
 ---------------------------------------------------------------
  

 Cite this work as:
 Gaussian 16, Revision A.03,
 M. J. Frisch, G. W. Trucks, H. B. Schlegel, G. E. Scuseria, 
 M. A. Robb, J. R. Cheeseman, G. Scalmani, V. Barone, 
 G. A. Petersson, H. Nakatsuji, X. Li, M. Caricato, A. V. Marenich, 
 J. Bloino, B. G. Janesko, R. Gomperts, B. Mennucci, H. P. Hratchian, 
 J. V. Ortiz, A. F. Izmaylov, J. L. Sonnenberg, D. Williams-Young, 
 F. Ding, F. Lipparini, F. Egidi, J. Goings, B. Peng, A. Petrone, 
 T. Henderson, D. Ranasinghe, V. G. Zakrzewski, J. Gao, N. Rega, 
 G. Zheng, W. Liang, M. Hada, M. Ehara, K. Toyota, R. Fukuda, 
 J. Hasegawa, M. Ishida, T. Nakajima, Y. Honda, O. Kitao, H. Nakai, 
 T. Vreven, K. Throssell, J. A. Montgomery, Jr., J. E. Peralta, 
 F. Ogliaro, M. J. Bearpark, J. J. Heyd, E. N. Brothers, K. N. Kudin, 
 V. N. Staroverov, T. A. Keith, R. Kobayashi, J. Normand, 
 K. Raghavachari, A. P. Rendell, J. C. Burant, S. S. Iyengar, 
 J. Tomasi, M. Cossi, J. M. Millam, M. Klene, C. Adamo, R. Cammi, 
 J. W. Ochterski, R. L. Martin, K. Morokuma, O. Farkas, 
 J. B. Foresman, and D. J. Fox, Gaussian, Inc., Wallingford CT, 2016.
 
 ******************************************
 Gaussian 16:  ES64L-G16RevA.03 25-Dec-2016
                11-Feb-2020 
 ******************************************
 %chk=checkpoint.chk
 %mem=3GB
 %nprocshared=4
 Will use up to    4 processors via shared memory.
 ----------------------------------------
 #t pop=none jul-cc-pvdz guess=read ub97d
 ----------------------------------------
 ------------------------
 theory_abbreviation b97d
 ------------------------
 Symbolic Z-matrix:
 Charge =  0 Multiplicity = 6
 O                    -0.30962  -0.20625  -0.53314 
 C                    -1.13656  -1.16593  -0.32627 
 C                    -2.71275  -0.27238   0.83118 
 C                    -2.96212   0.72916  -0.07295 
 C                    -3.97247   0.57775  -1.16649 
 Fe                    1.51566   0.17953  -0.08274 
 Cl                    1.84947   2.12864  -1.01773 
 C                    -2.19399   2.00389  -0.04769 
 Cl                    2.58655  -1.5246   -0.95743 
 Cl                    1.70609   0.24342   2.10982 
 H                    -3.37483  -1.13644   0.79044 
 H                    -2.672     2.78641  -0.6422 
 H                    -2.01451   2.37129   0.96615 
 H                    -1.20276   1.80283  -0.48862 
 H                    -4.78404   1.29767  -0.99141 
 H                    -3.54549   0.83302  -2.14467 
 H                    -4.40954  -0.42208  -1.20951 
 C                    -2.05274   0.00656   2.16483 
 H                    -2.6457    0.73794   2.72729 
 H                    -1.99026  -0.89765   2.77282 
 H                    -1.0432    0.41131   2.05949 
 C                    -0.76028  -2.21849   0.69631 
 H                    -1.60414  -2.85126   0.9788 
 H                    -0.00675  -2.84607   0.20036 
 H                    -0.29155  -1.7862    1.57919 
 C                    -1.84412  -1.69348  -1.55474 
 H                    -1.13116  -2.36706  -2.04803 
 H                    -2.74117  -2.26742  -1.31217 
 H                    -2.07874  -0.89352  -2.25587 
 
                    Distance matrix (angstroms):
                    1          2          3          4          5
     1  O    0.000000
     2  C    1.283590   0.000000
     3  C    2.764195   2.150002   0.000000
     4  C    2.850006   2.643523   1.372122   0.000000
     5  C    3.798981   3.433480   2.510039   1.496511   0.000000
     6  Fe   1.919206   2.983934   4.349594   4.511403   5.608269
     7  Cl   3.216866   4.499854   5.476974   5.099273   6.026802
     8  C    2.944693   3.353135   2.494580   1.488494   2.539407
     9  Cl   3.210272   3.793222   5.731471   6.053879   6.890882
    10  Cl   3.354182   4.000186   4.628950   5.176166   6.564455
    11  H    3.465919   2.501550   1.089314   2.096718   2.669308
    12  H    3.814288   4.251873   3.395396   2.154184   2.616157
    13  H    3.434854   3.866918   2.737651   2.162016   3.405667
    14  H    2.199108   2.973931   2.885904   2.102599   3.103487
    15  H    4.742593   4.451495   3.174440   2.118048   1.098897
    16  H    3.761384   3.620135   3.281931   2.154793   1.097411
    17  H    4.160934   3.470708   2.658177   2.170742   1.092038
    18  C    3.219124   2.901666   1.513950   2.521272   3.887073
    19  H    4.120578   3.902109   2.149530   2.818080   4.116737
    20  H    3.772526   3.225700   2.164009   3.418987   4.650178
    21  H    2.764274   2.861508   2.182564   2.886279   4.360650
    22  C    2.400778   1.514970   2.760017   3.758792   4.648349
    23  H    3.310255   2.182238   2.810953   3.971109   4.687149
    24  H    2.756520   2.092056   3.787389   4.646638   5.414594
    25  H    2.637893   2.174750   2.951850   4.023505   5.164902
    26  C    2.368588   1.512646   2.909754   3.052015   3.136732
    27  H    2.763859   2.099335   3.896021   4.103648   4.185936
    28  H    3.281423   2.181757   2.928306   3.250228   3.103600
    29  H    2.563187   2.164551   3.212111   2.859818   2.633927
                    6          7          8          9         10
     6  Fe   0.000000
     7  Cl   2.187386   0.000000
     8  C    4.134125   4.160057   0.000000
     9  Cl   2.194526   3.727339   6.010935   0.000000
    10  Cl   2.201739   3.654612   4.792151   3.648169   0.000000
    11  H    5.139176   6.420554   3.458109   6.224445   5.427758
    12  H    4.964410   4.584475   1.092834   6.807094   5.762652
    13  H    4.285563   4.350288   1.093196   6.328333   4.436061
    14  H    3.192118   3.114834   1.103350   5.064617   4.200600
    15  H    6.462363   6.685406   2.845651   7.892518   7.269859
    16  H    5.503992   5.661646   2.755873   6.676063   6.784358
    17  H    6.061316   6.761518   3.484800   7.086908   6.990122
    18  C    4.220776   5.464354   2.984049   5.797921   3.766689
    19  H    5.052231   6.013803   3.083377   6.787686   4.423114
    20  H    4.648232   6.186299   4.051635   5.937596   3.924879
    21  H    3.345236   4.559168   2.881114   5.101428   2.754871
    22  C    3.396669   5.352223   4.520791   3.797052   3.760592
    23  H    4.477248   6.380672   4.997409   4.803215   4.670541
    24  H    3.398847   5.447664   5.326132   3.132401   4.015573
    25  H    3.145174   5.162745   4.542115   3.845295   2.896814
    26  C    4.118631   5.342245   4.008010   4.473938   5.457530
    27  H    4.165715   5.491536   4.923023   3.964906   5.670305
    28  H    5.061592   6.362861   4.488032   5.390934   6.147564
    29  H    4.335168   5.108547   3.644763   4.883556   5.888707
                   11         12         13         14         15
    11  H    0.000000
    12  H    4.234995   0.000000
    13  H    3.766363   1.786460   0.000000
    14  H    3.872103   1.774745   1.760244   0.000000
    15  H    3.329519   2.607492   3.557390   3.651517   0.000000
    16  H    3.538757   2.614601   3.793077   3.028441   1.754969
    17  H    2.362358   3.692601   4.274647   3.969050   1.773512
    18  C    2.223353   3.998815   2.651461   3.315096   4.369072
    19  H    2.792188   3.943402   2.483513   3.682143   4.326025
    20  H    2.429790   5.069467   3.735051   4.306944   5.176293
    21  H    3.072867   3.948827   2.445470   2.907683   4.907898
    22  C    2.831176   5.522261   4.765708   4.215549   5.603780
    23  H    2.472132   5.962494   5.238663   4.896424   5.586325
    24  H    3.822962   6.287958   5.642552   4.849475   6.435324
    25  H    3.248221   5.613373   4.541930   4.241140   6.025003
    26  C    2.855387   4.646241   4.786050   3.711081   4.231713
    27  H    3.821701   5.559572   5.684853   4.452510   5.281115
    28  H    2.470150   5.098519   5.218855   4.428531   4.121413
    29  H    3.319466   4.061744   4.587430   3.340777   3.703885
                   16         17         18         19         20
    16  H    0.000000
    17  H    1.787845   0.000000
    18  C    4.634995   4.138165   0.000000
    19  H    4.955272   4.467123   1.096766   0.000000
    20  H    5.440197   4.683806   1.091397   1.762621   0.000000
    21  H    4.910630   4.765830   1.092748   1.766543   1.766117
    22  C    5.014013   4.491805   2.962739   4.052183   2.751251
    23  H    5.205657   4.308114   3.126504   4.126071   2.680339
    24  H    5.617622   5.219968   4.022772   5.118067   3.787907
    25  H    5.596038   5.157083   2.580455   3.637511   2.258302
[...]
 Rotational constants (GHZ):           0.5903979           0.3102041           0.2961168
   427 basis functions,  1056 primitive gaussians,   461 cartesian basis functions
    77 alpha electrons       72 beta electrons
       nuclear repulsion energy      1624.4738059483 Hartrees.
 NAtoms=   29 NActive=   29 NUniq=   29 SFac= 1.00D+00 NAtFMM=   60 NAOKFM=F Big=F
 Nuclear repulsion after empirical dispersion term =     1624.4713331628 Hartrees.
 Initial guess from the checkpoint file:  "checkpoint.chk"
 B after Tr=     0.000000    0.000000    0.000000
         Rot=    1.000000    0.000000    0.000000    0.000000 Ang=   0.00 deg.
 Initial guess <Sx>= 0.0000 <Sy>= 0.0000 <Sz>= 2.5000 <S**2>= 8.7617 S= 2.5020
 SCF Done:  E(UM06L) =  -3034.20093337     A.U. after   17 cycles
            NFock= 17  Conv=0.54D-08     -V/T= 2.0020
 <Sx>= 0.0000 <Sy>= 0.0000 <Sz>= 2.5000 <S**2>= 8.7618 S= 2.5020
 <L.S>= 0.000000000000E+00
 Annihilation of the first spin contaminant:
 S**2 before annihilation     8.7618,   after     8.7500
 1\1\GINC-HOLY7C12205\SP\UM06L\Jul-CC-pVDZ\C8H16Cl3Fe1O1(6)\EKWAN\12-Fe
 b-2020\0\\#t pop=none jul-cc-pvdz guess=read um06l empiricaldispersion
 =gd3\\theory_abbreviation m06l_d3\\0,6\O,0,-0.309622,-0.206253,-0.5331
 36\C,0,-1.136561,-1.16593,-0.326267\C,0,-2.712754,-0.272376,0.83118\C,
 0,-2.962124,0.72916,-0.072954\C,0,-3.972469,0.577753,-1.166492\Fe,0,1.
 515662,0.179533,-0.082737\Cl,0,1.84947,2.128638,-1.017734\C,0,-2.19398
 5,2.003891,-0.047692\Cl,0,2.586545,-1.524599,-0.957431\Cl,0,1.706093,0
 .243424,2.109821\H,0,-3.37483,-1.136436,0.790441\H,0,-2.672003,2.78641
 4,-0.642202\H,0,-2.014506,2.371289,0.966154\H,0,-1.202755,1.802828,-0.
 488621\H,0,-4.784039,1.297665,-0.991406\H,0,-3.545493,0.833024,-2.1446
 74\H,0,-4.409538,-0.42208,-1.209511\C,0,-2.052738,0.006556,2.164829\H,
 0,-2.645702,0.737942,2.727292\H,0,-1.990264,-0.89765,2.772823\H,0,-1.0
 43197,0.411313,2.059486\C,0,-0.760283,-2.218491,0.69631\H,0,-1.604143,
 -2.851261,0.978796\H,0,-0.006746,-2.846072,0.200364\H,0,-0.291549,-1.7
 86203,1.579187\C,0,-1.844123,-1.693479,-1.55474\H,0,-1.131161,-2.36706
 ,-2.048029\H,0,-2.74117,-2.267421,-1.312174\H,0,-2.078743,-0.893516,-2
 .255869\\Version=ES64L-G16RevA.03\HF=-3034.2009334\S2=8.761757\S2-1=0.
 \S2A=8.750044\RMSD=5.365e-09\PG=C01 [X(C8H16Cl3Fe1O1)]\\@


 ALTHOUGH J.J. COULD DIAGNOSE THE FAULTS OF AN
 APPARATUS WITH UNCANNY ACCURACY, IT WAS JUST AS
 WELL NOT TO LET HIM HANDLE IT.
   -- GEORGE THOMPSON, ABOUT HIS FATHER
 Job cpu time:       0 days  1 hours 12 minutes 30.1 seconds.
 Elapsed time:       0 days  0 hours 18 minutes 10.5 seconds.
 File lengths (MBytes):  RWF=    174 Int=      0 D2E=      0 Chk=     13 Scr=      1
 Normal termination of Gaussian 16 at Wed Feb 12 05:25:01 2020.
 Initial command:
 /n/sw/g16_nehalem/g16/l1.exe "/scratch/Gau-353074.inp" -scrdir="/scratch/"
 Entering Link 1 = /n/sw/g16_nehalem/g16/l1.exe PID=    401553.
  
 Copyright (c) 1988,1990,1992,1993,1995,1998,2003,2009,2016,
            Gaussian, Inc.  All Rights Reserved.
  
 This is part of the Gaussian(R) 16 program.  It is based on
 the Gaussian(R) 09 system (copyright 2009, Gaussian, Inc.),
 the Gaussian(R) 03 system (copyright 2003, Gaussian, Inc.),
 the Gaussian(R) 98 system (copyright 1998, Gaussian, Inc.),
 the Gaussian(R) 94 system (copyright 1995, Gaussian, Inc.),
 the Gaussian 92(TM) system (copyright 1992, Gaussian, Inc.),
 the Gaussian 90(TM) system (copyright 1990, Gaussian, Inc.),
 the Gaussian 88(TM) system (copyright 1988, Gaussian, Inc.),
 the Gaussian 86(TM) system (copyright 1986, Carnegie Mellon
 University), and the Gaussian 82(TM) system (copyright 1983,
 Carnegie Mellon University). Gaussian is a federally registered
 trademark of Gaussian, Inc.
  
 This software contains proprietary and confidential information,
 including trade secrets, belonging to Gaussian, Inc.
  
 This software is provided under written license and may be
 used, copied, transmitted, or stored only in accord with that
 written license.
  
 The following legend is applicable only to US Government
 contracts under FAR:
  
                    RESTRICTED RIGHTS LEGEND
  
 Use, reproduction and disclosure by the US Government is
 subject to restrictions as set forth in subparagraphs (a)
 and (c) of the Commercial Computer Software - Restricted
 Rights clause in FAR 52.227-19.
  
 Gaussian, Inc.
 340 Quinnipiac St., Bldg. 40, Wallingford CT 06492
  
  
 ---------------------------------------------------------------
 Warning -- This program may not be used in any manner that
 competes with the business of Gaussian, Inc. or will provide
 assistance to any competitor of Gaussian, Inc.  The licensee
 of this program is prohibited from giving any competitor of
 Gaussian, Inc. access to this program.  By using this program,
 the user acknowledges that Gaussian, Inc. is engaged in the
 business of creating and licensing software in the field of
 computational chemistry and represents and warrants to the
 licensee that it is not a competitor of Gaussian, Inc. and that
 it will not use this program in any manner prohibited above.
 ---------------------------------------------------------------
  

 Cite this work as:
 Gaussian 16, Revision A.03,
 M. J. Frisch, G. W. Trucks, H. B. Schlegel, G. E. Scuseria, 
 M. A. Robb, J. R. Cheeseman, G. Scalmani, V. Barone, 
 G. A. Petersson, H. Nakatsuji, X. Li, M. Caricato, A. V. Marenich, 
 J. Bloino, B. G. Janesko, R. Gomperts, B. Mennucci, H. P. Hratchian, 
 J. V. Ortiz, A. F. Izmaylov, J. L. Sonnenberg, D. Williams-Young, 
 F. Ding, F. Lipparini, F. Egidi, J. Goings, B. Peng, A. Petrone, 
 T. Henderson, D. Ranasinghe, V. G. Zakrzewski, J. Gao, N. Rega, 
 G. Zheng, W. Liang, M. Hada, M. Ehara, K. Toyota, R. Fukuda, 
 J. Hasegawa, M. Ishida, T. Nakajima, Y. Honda, O. Kitao, H. Nakai, 
 T. Vreven, K. Throssell, J. A. Montgomery, Jr., J. E. Peralta, 
 F. Ogliaro, M. J. Bearpark, J. J. Heyd, E. N. Brothers, K. N. Kudin, 
 V. N. Staroverov, T. A. Keith, R. Kobayashi, J. Normand, 
 K. Raghavachari, A. P. Rendell, J. C. Burant, S. S. Iyengar, 
 J. Tomasi, M. Cossi, J. M. Millam, M. Klene, C. Adamo, R. Cammi, 
 J. W. Ochterski, R. L. Martin, K. Morokuma, O. Farkas, 
 J. B. Foresman, and D. J. Fox, Gaussian, Inc., Wallingford CT, 2016.
 
 ******************************************
 Gaussian 16:  ES64L-G16RevA.03 25-Dec-2016
                12-Feb-2020 
 ******************************************
 %chk=checkpoint.chk
 %mem=3GB
 %nprocshared=4
 Will use up to    4 processors via shared memory.
 -------------------------------------------------------------------
 #t pop=none jul-cc-pvdz guess=read ub97d3 empiricaldispersion=gd3bj
 -------------------------------------------------------------------
 ------------------------------
 theory_abbreviation b97d3_d3bj
 ------------------------------
 Symbolic Z-matrix:
 Charge =  0 Multiplicity = 6
 O                    -0.30962  -0.20625  -0.53314 
 C                    -1.13656  -1.16593  -0.32627 
 C                    -2.71275  -0.27238   0.83118 
 C                    -2.96212   0.72916  -0.07295 
 C                    -3.97247   0.57775  -1.16649 
 Fe                    1.51566   0.17953  -0.08274 
 Cl                    1.84947   2.12864  -1.01773 
 C                    -2.19399   2.00389  -0.04769 
 Cl                    2.58655  -1.5246   -0.95743 
 Cl                    1.70609   0.24342   2.10982 
 H                    -3.37483  -1.13644   0.79044 
 H                    -2.672     2.78641  -0.6422 
 H                    -2.01451   2.37129   0.96615 
 H                    -1.20276   1.80283  -0.48862 
 H                    -4.78404   1.29767  -0.99141 
 H                    -3.54549   0.83302  -2.14467 
 H                    -4.40954  -0.42208  -1.20951 
 C                    -2.05274   0.00656   2.16483 
 H                    -2.6457    0.73794   2.72729 
 H                    -1.99026  -0.89765   2.77282 
 H                    -1.0432    0.41131   2.05949 
 C                    -0.76028  -2.21849   0.69631 
 H                    -1.60414  -2.85126   0.9788 
 H                    -0.00675  -2.84607   0.20036 
 H                    -0.29155  -1.7862    1.57919 
 C                    -1.84412  -1.69348  -1.55474 
 H                    -1.13116  -2.36706  -2.04803 
 H                    -2.74117  -2.26742  -1.31217 
 H                    -2.07874  -0.89352  -2.25587 
 
                    Distance matrix (angstroms):
                    1          2          3          4          5
     1  O    0.000000
     2  C    1.283590   0.000000
     3  C    2.764195   2.150002   0.000000
     4  C    2.850006   2.643523   1.372122   0.000000
     5  C    3.798981   3.433480   2.510039   1.496511   0.000000
     6  Fe   1.919206   2.983934   4.349594   4.511403   5.608269
     7  Cl   3.216866   4.499854   5.476974   5.099273   6.026802
     8  C    2.944693   3.353135   2.494580   1.488494   2.539407
     9  Cl   3.210272   3.793222   5.731471   6.053879   6.890882
    10  Cl   3.354182   4.000186   4.628950   5.176166   6.564455
    11  H    3.465919   2.501550   1.089314   2.096718   2.669308
    12  H    3.814288   4.251873   3.395396   2.154184   2.616157
    13  H    3.434854   3.866918   2.737651   2.162016   3.405667
    14  H    2.199108   2.973931   2.885904   2.102599   3.103487
    15  H    4.742593   4.451495   3.174440   2.118048   1.098897
    16  H    3.761384   3.620135   3.281931   2.154793   1.097411
    17  H    4.160934   3.470708   2.658177   2.170742   1.092038
    18  C    3.219124   2.901666   1.513950   2.521272   3.887073
    19  H    4.120578   3.902109   2.149530   2.818080   4.116737
    20  H    3.772526   3.225700   2.164009   3.418987   4.650178
    21  H    2.764274   2.861508   2.182564   2.886279   4.360650
    22  C    2.400778   1.514970   2.760017   3.758792   4.648349
    23  H    3.310255   2.182238   2.810953   3.971109   4.687149
    24  H    2.756520   2.092056   3.787389   4.646638   5.414594
    25  H    2.637893   2.174750   2.951850   4.023505   5.164902
    26  C    2.368588   1.512646   2.909754   3.052015   3.136732
    27  H    2.763859   2.099335   3.896021   4.103648   4.185936
    28  H    3.281423   2.181757   2.928306   3.250228   3.103600
    29  H    2.563187   2.164551   3.212111   2.859818   2.633927
                    6          7          8          9         10
     6  Fe   0.000000
     7  Cl   2.187386   0.000000
     8  C    4.134125   4.160057   0.000000
     9  Cl   2.194526   3.727339   6.010935   0.000000
    10  Cl   2.201739   3.654612   4.792151   3.648169   0.000000
    11  H    5.139176   6.420554   3.458109   6.224445   5.427758
    12  H    4.964410   4.584475   1.092834   6.807094   5.762652
    13  H    4.285563   4.350288   1.093196   6.328333   4.436061
    14  H    3.192118   3.114834   1.103350   5.064617   4.200600
    15  H    6.462363   6.685406   2.845651   7.892518   7.269859
    16  H    5.503992   5.661646   2.755873   6.676063   6.784358
    17  H    6.061316   6.761518   3.484800   7.086908   6.990122
    18  C    4.220776   5.464354   2.984049   5.797921   3.766689
    19  H    5.052231   6.013803   3.083377   6.787686   4.423114
    20  H    4.648232   6.186299   4.051635   5.937596   3.924879
    21  H    3.345236   4.559168   2.881114   5.101428   2.754871
    22  C    3.396669   5.352223   4.520791   3.797052   3.760592
    23  H    4.477248   6.380672   4.997409   4.803215   4.670541
    24  H    3.398847   5.447664   5.326132   3.132401   4.015573
    25  H    3.145174   5.162745   4.542115   3.845295   2.896814
    26  C    4.118631   5.342245   4.008010   4.473938   5.457530
    27  H    4.165715   5.491536   4.923023   3.964906   5.670305
    28  H    5.061592   6.362861   4.488032   5.390934   6.147564
    29  H    4.335168   5.108547   3.644763   4.883556   5.888707
                   11         12         13         14         15
    11  H    0.000000
    12  H    4.234995   0.000000
    13  H    3.766363   1.786460   0.000000
    14  H    3.872103   1.774745   1.760244   0.000000
    15  H    3.329519   2.607492   3.557390   3.651517   0.000000
    16  H    3.538757   2.614601   3.793077   3.028441   1.754969
    17  H    2.362358   3.692601   4.274647   3.969050   1.773512
    18  C    2.223353   3.998815   2.651461   3.315096   4.369072
    19  H    2.792188   3.943402   2.483513   3.682143   4.326025
    20  H    2.429790   5.069467   3.735051   4.306944   5.176293
    21  H    3.072867   3.948827   2.445470   2.907683   4.907898
    22  C    2.831176   5.522261   4.765708   4.215549   5.603780
    23  H    2.472132   5.962494   5.238663   4.896424   5.586325
    24  H    3.822962   6.287958   5.642552   4.849475   6.435324
    25  H    3.248221   5.613373   4.541930   4.241140   6.025003
    26  C    2.855387   4.646241   4.786050   3.711081   4.231713
    27  H    3.821701   5.559572   5.684853   4.452510   5.281115
    28  H    2.470150   5.098519   5.218855   4.428531   4.121413
    29  H    3.319466   4.061744   4.587430   3.340777   3.703885
                   16         17         18         19         20
    16  H    0.000000
    17  H    1.787845   0.000000
    18  C    4.634995   4.138165   0.000000
    19  H    4.955272   4.467123   1.096766   0.000000
    20  H    5.440197   4.683806   1.091397   1.762621   0.000000
    21  H    4.910630   4.765830   1.092748   1.766543   1.766117
    22  C    5.014013   4.491805   2.962739   4.052183   2.751251
    23  H    5.205657   4.308114   3.126504   4.126071   2.680339
    24  H    5.617622   5.219968   4.022772   5.118067   3.787907
    25  H    5.596038   5.157083   2.580455   3.637511   2.258302
    26  C    3.102563   2.883920   4.094977   4.989001   4.402556
    27  H    4.009847   3.903052   4.922553   5.893943   5.112518
    28  H    3.309494   2.489834   4.211230   5.035733   4.373481
    29  H    2.268184   2.598023   4.511472   5.273992   5.029472
                   21         22         23         24         25
    21  H    0.000000
    22  C    2.975594   0.000000
    23  H    3.482376   1.091923   0.000000
    24  H    3.891160   1.098926   1.776981   0.000000
    25  H    2.371653   1.089062   1.793801   1.762268   0.000000
    26  C    4.258434   2.552954   2.795864   2.790128   3.498654
    27  H    4.959715   2.773269   3.101585   2.559108   3.768161
    28  H    4.628911   2.821403   2.623403   3.178000   3.819971
    29  H    4.625713   3.494175   3.810652   3.760150   4.324189
                   26         27         28         29
    26  C    0.000000
    27  H    1.097889   0.000000
    28  H    1.092218   1.773003   0.000000
    29  H    1.089298   1.764211   1.793595   0.000000
 Framework group  C1[X(C8H16Cl3FeO)]
 Deg. of freedom    81
                         Standard orientation:                         
 ---------------------------------------------------------------------
 Center     Atomic      Atomic             Coordinates (Angstroms)
 Number     Number       Type             X           Y           Z
 ---------------------------------------------------------------------
      1          8           0       -0.309622   -0.206253   -0.533136
      2          6           0       -1.136561   -1.165930   -0.326267
      3          6           0       -2.712754   -0.272376    0.831180
      4          6           0       -2.962124    0.729160   -0.072954
      5          6           0       -3.972469    0.577753   -1.166492
      6         26           0        1.515662    0.179533   -0.082737
      7         17           0        1.849470    2.128638   -1.017734
      8          6           0       -2.193985    2.003891   -0.047692
      9         17           0        2.586545   -1.524599   -0.957431
     10         17           0        1.706093    0.243424    2.109821
     11          1           0       -3.374830   -1.136436    0.790441
     12          1           0       -2.672003    2.786414   -0.642202
     13          1           0       -2.014506    2.371289    0.966154
     14          1           0       -1.202755    1.802828   -0.488621
     15          1           0       -4.784039    1.297665   -0.991406
     16          1           0       -3.545493    0.833024   -2.144674
     17          1           0       -4.409538   -0.422080   -1.209511
     18          6           0       -2.052738    0.006556    2.164829
     19          1           0       -2.645702    0.737942    2.727292
     20          1           0       -1.990264   -0.897650    2.772823
     21          1           0       -1.043197    0.411313    2.059486
     22          6           0       -0.760283   -2.218491    0.696310
     23          1           0       -1.604143   -2.851261    0.978796
     24          1           0       -0.006746   -2.846072    0.200364
     25          1           0       -0.291549   -1.786203    1.579187
     26          6           0       -1.844123   -1.693479   -1.554740
     27          1           0       -1.131161   -2.367060   -2.048029
     28          1           0       -2.741170   -2.267421   -1.312174
     29          1           0       -2.078743   -0.893516   -2.255869
 ---------------------------------------------------------------------
 Rotational constants (GHZ):           0.5903979           0.3102041           0.2961168
   427 basis functions,  1056 primitive gaussians,   461 cartesian basis functions
    77 alpha electrons       72 beta electrons
       nuclear repulsion energy      1624.4738059483 Hartrees.
 NAtoms=   29 NActive=   29 NUniq=   29 SFac= 1.00D+00 NAtFMM=   60 NAOKFM=F Big=F
 Nuclear repulsion after empirical dispersion term =     1624.3730655939 Hartrees.
 Initial guess from the checkpoint file:  "checkpoint.chk"
 B after Tr=     0.000000    0.000000    0.000000
         Rot=    1.000000    0.000000    0.000000    0.000000 Ang=   0.00 deg.
 Initial guess <Sx>= 0.0000 <Sy>= 0.0000 <Sz>= 2.5000 <S**2>= 8.7618 S= 2.5020
 EnCoef did     2 forward-backward iterations
 SCF Done:  E(UB97D3) =  -3034.62492491     A.U. after   15 cycles
            NFock= 15  Conv=0.64D-08     -V/T= 2.0019
 <Sx>= 0.0000 <Sy>= 0.0000 <Sz>= 2.5000 <S**2>= 8.7598 S= 2.5016
 <L.S>= 0.000000000000E+00
 Annihilation of the first spin contaminant:
 S**2 before annihilation     8.7598,   after     8.7500
 1\1\GINC-HOLY7C12205\SP\UB97D3\Jul-CC-pVDZ\C8H16Cl3Fe1O1(6)\EKWAN\12-F
 eb-2020\0\\#t pop=none jul-cc-pvdz guess=read ub97d3 empiricaldispersi
 on=gd3bj\\theory_abbreviation b97d3_d3bj\\0,6\O,0,-0.309622,-0.206253,
 -0.533136\C,0,-1.136561,-1.16593,-0.326267\C,0,-2.712754,-0.272376,0.8
 3118\C,0,-2.962124,0.72916,-0.072954\C,0,-3.972469,0.577753,-1.166492\
 Fe,0,1.515662,0.179533,-0.082737\Cl,0,1.84947,2.128638,-1.017734\C,0,-
 2.193985,2.003891,-0.047692\Cl,0,2.586545,-1.524599,-0.957431\Cl,0,1.7
 06093,0.243424,2.109821\H,0,-3.37483,-1.136436,0.790441\H,0,-2.672003,
 2.786414,-0.642202\H,0,-2.014506,2.371289,0.966154\H,0,-1.202755,1.802
 828,-0.488621\H,0,-4.784039,1.297665,-0.991406\H,0,-3.545493,0.833024,
 -2.144674\H,0,-4.409538,-0.42208,-1.209511\C,0,-2.052738,0.006556,2.16
 4829\H,0,-2.645702,0.737942,2.727292\H,0,-1.990264,-0.89765,2.772823\H
 ,0,-1.043197,0.411313,2.059486\C,0,-0.760283,-2.218491,0.69631\H,0,-1.
 604143,-2.851261,0.978796\H,0,-0.006746,-2.846072,0.200364\H,0,-0.2915
 49,-1.786203,1.579187\C,0,-1.844123,-1.693479,-1.55474\H,0,-1.131161,-
 2.36706,-2.048029\H,0,-2.74117,-2.267421,-1.312174\H,0,-2.078743,-0.89
 3516,-2.255869\\Version=ES64L-G16RevA.03\HF=-3034.6249249\S2=8.759847\
 S2-1=0.\S2A=8.750031\RMSD=6.432e-09\PG=C01 [X(C8H16Cl3Fe1O1)]\\@


 MEMORIES ARE LIKE AN ENGLISH GRAMMER LESSON -
 PRESENT TENSE, AND PAST PERFECT.
 Job cpu time:       0 days  0 hours 47 minutes 35.7 seconds.
 Elapsed time:       0 days  0 hours 13 minutes 15.5 seconds.
 File lengths (MBytes):  RWF=    174 Int=      0 D2E=      0 Chk=     13 Scr=      1
 Normal termination of Gaussian 16 at Wed Feb 12 05:38:17 2020.
