 Entering Gaussian System, Link 0=g16
 Input=simple-grid-220-270-b3lyp_d3bj-631gd-gas-singlepoint-DFT-juldz2-gas.gjf
 Output=simple-grid-220-270-b3lyp_d3bj-631gd-gas-singlepoint-DFT-juldz2-gas.out
 Initial command:
 /n/sw/g16_nehalem/g16/l1.exe "/scratch/Gau-1765.inp" -scrdir="/scratch/"
 Entering Link 1 = /n/sw/g16_nehalem/g16/l1.exe PID=      1769.
  
 Copyright (c) 1988,1990,1992,1993,1995,1998,2003,2009,2016,
            Gaussian, Inc.  All Rights Reserved.
  
 This is part of the Gaussian(R) 16 program.  It is based on
 the Gaussian(R) 09 system (copyright 2009, Gaussian, Inc.),
 the Gaussian(R) 03 system (copyright 2003, Gaussian, Inc.),
 the Gaussian(R) 98 system (copyright 1998, Gaussian, Inc.),
 the Gaussian(R) 94 system (copyright 1995, Gaussian, Inc.),
 the Gaussian 92(TM) system (copyright 1992, Gaussian, Inc.),
 the Gaussian 90(TM) system (copyright 1990, Gaussian, Inc.),
 the Gaussian 88(TM) system (copyright 1988, Gaussian, Inc.),
 the Gaussian 86(TM) system (copyright 1986, Carnegie Mellon
 University), and the Gaussian 82(TM) system (copyright 1983,
 Carnegie Mellon University). Gaussian is a federally registered
 trademark of Gaussian, Inc.
  
 This software contains proprietary and confidential information,
 including trade secrets, belonging to Gaussian, Inc.
  
 This software is provided under written license and may be
 used, copied, transmitted, or stored only in accord with that
 written license.
  
 The following legend is applicable only to US Government
 contracts under FAR:
  
                    RESTRICTED RIGHTS LEGEND
  
 Use, reproduction and disclosure by the US Government is
 subject to restrictions as set forth in subparagraphs (a)
 and (c) of the Commercial Computer Software - Restricted
 Rights clause in FAR 52.227-19.
  
 Gaussian, Inc.
 340 Quinnipiac St., Bldg. 40, Wallingford CT 06492
  
  
 ---------------------------------------------------------------
 Warning -- This program may not be used in any manner that
 competes with the business of Gaussian, Inc. or will provide
 assistance to any competitor of Gaussian, Inc.  The licensee
 of this program is prohibited from giving any competitor of
 Gaussian, Inc. access to this program.  By using this program,
 the user acknowledges that Gaussian, Inc. is engaged in the
 business of creating and licensing software in the field of
 computational chemistry and represents and warrants to the
 licensee that it is not a competitor of Gaussian, Inc. and that
 it will not use this program in any manner prohibited above.
 ---------------------------------------------------------------
  

 Cite this work as:
 Gaussian 16, Revision A.03,
 M. J. Frisch, G. W. Trucks, H. B. Schlegel, G. E. Scuseria, 
 M. A. Robb, J. R. Cheeseman, G. Scalmani, V. Barone, 
 G. A. Petersson, H. Nakatsuji, X. Li, M. Caricato, A. V. Marenich, 
 J. Bloino, B. G. Janesko, R. Gomperts, B. Mennucci, H. P. Hratchian, 
 J. V. Ortiz, A. F. Izmaylov, J. L. Sonnenberg, D. Williams-Young, 
 F. Ding, F. Lipparini, F. Egidi, J. Goings, B. Peng, A. Petrone, 
 T. Henderson, D. Ranasinghe, V. G. Zakrzewski, J. Gao, N. Rega, 
 G. Zheng, W. Liang, M. Hada, M. Ehara, K. Toyota, R. Fukuda, 
 J. Hasegawa, M. Ishida, T. Nakajima, Y. Honda, O. Kitao, H. Nakai, 
 T. Vreven, K. Throssell, J. A. Montgomery, Jr., J. E. Peralta, 
 F. Ogliaro, M. J. Bearpark, J. J. Heyd, E. N. Brothers, K. N. Kudin, 
 V. N. Staroverov, T. A. Keith, R. Kobayashi, J. Normand, 
 K. Raghavachari, A. P. Rendell, J. C. Burant, S. S. Iyengar, 
 J. Tomasi, M. Cossi, J. M. Millam, M. Klene, C. Adamo, R. Cammi, 
 J. W. Ochterski, R. L. Martin, K. Morokuma, O. Farkas, 
 J. B. Foresman, and D. J. Fox, Gaussian, Inc., Wallingford CT, 2016.
 
 ******************************************
 Gaussian 16:  ES64L-G16RevA.03 25-Dec-2016
                11-Feb-2020 
 ******************************************
 %chk=checkpoint.chk
 %mem=3GB
 %nprocshared=4
 Will use up to    4 processors via shared memory.
 --------------------------------
 #t pop=none jul-cc-pvdz upbe1pbe
 --------------------------------
 ------------------------
 theory_abbreviation pbe0
 ------------------------
 Symbolic Z-matrix:
 Charge =  0 Multiplicity = 6
 O                    -0.27735  -0.2347   -0.77684 
 C                    -1.15672  -1.15281  -0.61217 
 C                    -2.81605  -0.2791    0.53816 
 C                    -2.61195   0.92569  -0.0746 
 C                    -3.24662   1.26327  -1.3885 
 Fe                    1.44829   0.14121  -0.01836 
 Cl                    2.00635   2.06147  -0.90422 
 C                    -1.70553   1.97513   0.47344 
 Cl                    2.66295  -1.58078  -0.62093 
 Cl                    1.18871   0.25385   2.17179 
 H                    -3.57088  -0.92583   0.09399 
 H                    -2.24023   2.93097   0.54169 
 H                    -1.28551   1.73355   1.44845 
 H                    -0.87512   2.13685  -0.22784 
 H                    -3.82788   2.18795  -1.28026 
 H                    -2.47811   1.47022  -2.14513 
 H                    -3.91604   0.48098  -1.75215 
 C                    -2.54892  -0.52087   2.0082 
 H                    -3.28595   0.03074   2.60514 
 H                    -2.65763  -1.57748   2.2616 
 H                    -1.55582  -0.1966    2.32539 
 C                    -0.85752  -2.26361   0.36615 
 H                    -1.72077  -2.90566   0.54859 
 H                    -0.07235  -2.86354  -0.11518 
 H                    -0.45032  -1.89169   1.30553 
 C                    -1.88876  -1.57756  -1.86623 
 H                    -1.19434  -2.23898  -2.4014 
 H                    -2.79987  -2.14122  -1.65744 
 H                    -2.09945  -0.73215  -2.51857 
 
                    Distance matrix (angstroms):
                    1          2          3          4          5
     1  O    0.000000
     2  C    1.281921   0.000000
     3  C    2.859404   2.200000   0.000000
     4  C    2.700001   2.593616   1.366990   0.000000
     5  C    3.381508   3.287522   2.505250   1.497692   0.000000
     6  Fe   1.922091   2.968693   4.320992   4.135712   5.017815
     7  Cl   3.240973   4.519055   5.551063   4.827728   5.335294
     8  C    2.913114   3.356144   2.513759   1.491057   2.519623
     9  Cl   3.237529   3.843578   5.749549   5.865615   6.603088
    10  Cl   3.329033   3.902582   4.357857   4.465722   5.776394
    11  H    3.476113   2.525543   1.088720   2.091920   2.663660
    12  H    3.951312   4.379794   3.261307   2.130520   2.742202
    13  H    3.137245   3.548772   2.687371   2.175259   3.480713
    14  H    2.506587   3.323982   3.192306   2.122964   2.781061
    15  H    4.327694   4.329218   3.227505   2.127298   1.097550
    16  H    3.101980   3.313049   3.220923   2.145111   1.098152
    17  H    3.834512   3.403334   2.652020   2.170852   1.091944
    18  C    3.605324   3.033793   1.513555   2.536649   3.899678
    19  H    4.534303   4.035525   2.142245   2.904519   4.179687
    20  H    4.086670   3.269800   2.163593   3.424296   4.662611
    21  H    3.355555   3.114938   2.188425   2.852180   4.333935
    22  C    2.399896   1.510138   2.793517   3.666603   4.607113
    23  H    3.312739   2.176695   2.845800   3.982694   4.843602
    24  H    2.718567   2.085533   3.825448   4.561742   5.359836
    25  H    2.666793   2.173131   2.964116   3.809861   5.003079
    26  C    2.363612   1.512931   2.885639   3.162149   3.184698
    27  H    2.738095   2.093446   3.887420   4.175970   4.183723
    28  H    3.282281   2.183918   2.878953   3.456391   3.444191
    29  H    2.569270   2.167971   3.172123   2.997345   2.564125
                    6          7          8          9         10
     6  Fe   0.000000
     7  Cl   2.187140   0.000000
     8  C    3.681263   3.960239   0.000000
     9  Cl   2.191741   3.711779   5.738093   0.000000
    10  Cl   2.208357   3.660315   3.771448   3.652200   0.000000
    11  H    5.132570   6.405149   3.469738   6.308781   5.325656
    12  H    4.658494   4.569481   1.097357   6.763777   4.645620
    13  H    3.487223   4.059426   1.088767   5.554947   2.972290
    14  H    3.069964   2.960748   1.098882   5.147152   3.682841
    15  H    5.798233   5.847706   2.761363   7.534514   6.389335
    16  H    4.658968   4.690392   2.776455   6.169456   5.793176
    17  H    5.647787   6.188024   3.474489   6.986673   6.442623
    18  C    4.530225   5.991756   3.049062   5.932900   3.820574
    19  H    5.413683   6.666930   3.289759   6.956574   4.501127
    20  H    5.001064   6.709477   4.089624   6.051241   4.261004
    21  H    3.825168   5.312092   2.858067   5.328669   2.785482
    22  C    3.353764   5.340588   4.324065   3.719445   3.712814
    23  H    4.432581   6.377653   4.881390   4.726530   4.591557
    24  H    3.369011   5.403636   5.140664   3.063192   4.066774
    25  H    3.080594   5.152249   4.149719   3.674285   2.835518
    26  C    4.183856   5.416625   4.257835   4.718986   5.397265
    27  H    4.281077   5.565945   5.126856   4.299064   5.727754
    28  H    5.093418   6.428816   4.762616   5.588456   6.025622
    29  H    4.427223   5.221880   4.054211   5.196318   5.812379
                   11         12         13         14         15
    11  H    0.000000
    12  H    4.104386   0.000000
    13  H    3.758963   1.779744   0.000000
    14  H    4.092771   1.756798   1.772292   0.000000
    15  H    3.413251   2.528286   3.757123   3.135126   0.000000
    16  H    3.456716   3.067472   3.795446   2.586496   1.756425
    17  H    2.346596   3.751334   4.328100   3.783206   1.773191
    18  C    2.207399   3.763124   2.644226   3.855512   4.448309
    19  H    2.702232   3.709808   2.870415   4.274766   4.477007
    20  H    2.440734   4.843389   3.675171   4.813620   5.300259
    21  H    3.093768   3.664928   2.137194   3.525246   4.883555
    22  C    3.037446   5.378322   4.163155   4.440406   5.599121
    23  H    2.747597   5.859703   4.745684   5.171548   5.807710
    24  H    4.004767   6.221532   5.004990   5.065671   6.401481
    25  H    3.484049   5.200500   3.722946   4.331374   5.893867
    26  C    2.663969   5.123318   4.723812   4.184328   4.275816
    27  H    3.687718   6.040196   5.532682   4.896335   5.271638
    28  H    2.266963   5.556658   5.191690   4.904111   4.465511
    29  H    3.004682   4.775294   4.741246   3.870089   3.612178
                   16         17         18         19         20
    16  H    0.000000
    17  H    1.789043   0.000000
    18  C    4.606473   4.124681   0.000000
    19  H    5.028891   4.425574   1.097187   0.000000
    20  H    5.360963   4.683059   1.092000   1.760450   0.000000
    21  H    4.859469   4.759845   1.091790   1.767291   1.767736
    22  C    4.782710   4.623264   2.931607   4.021740   2.702570
    23  H    5.194032   4.645637   2.916086   3.911731   2.361391
    24  H    5.356284   5.351580   4.016246   5.109224   3.739873
    25  H    5.226983   5.195207   2.603267   3.664082   2.425900
    26  C    3.116736   2.891444   4.069839   4.952962   4.198816
    27  H    3.933426   3.902221   4.922533   5.881480   4.931761
    28  H    3.658395   2.851445   4.015647   4.808658   3.961922
    29  H    2.265663   2.314962   4.553939   5.314337   4.886325
                   21         22         23         24         25
    21  H    0.000000
    22  C    2.932363   0.000000
    23  H    3.243955   1.091201   0.000000
    24  H    3.907631   1.099124   1.777536   0.000000
    25  H    2.266173   1.089295   1.793085   1.762320   0.000000
    26  C    4.425779   2.552968   2.761048   2.831826   3.496829
    27  H    5.161826   2.788078   3.069850   2.622158   3.796770
    28  H    4.603487   2.807602   2.572032   3.215532   3.789698
    29  H    4.903705   3.494202   3.778233   3.798458   4.322956
                   26         27         28         29
    26  C    0.000000
    27  H    1.098227   0.000000
    28  H    1.091528   1.772221   0.000000
    29  H    1.088428   1.761678   1.793778   0.000000
 Framework group  C1[X(C8H16Cl3FeO)]
 Deg. of freedom    81
                         Standard orientation:                         
 ---------------------------------------------------------------------
 Center     Atomic      Atomic             Coordinates (Angstroms)
 Number     Number       Type             X           Y           Z
 ---------------------------------------------------------------------
      1          8           0       -0.277352   -0.234701   -0.776840
      2          6           0       -1.156718   -1.152807   -0.612167
      3          6           0       -2.816054   -0.279101    0.538156
      4          6           0       -2.611951    0.925694   -0.074603
      5          6           0       -3.246622    1.263267   -1.388497
      6         26           0        1.448287    0.141209   -0.018358
      7         17           0        2.006351    2.061466   -0.904224
      8          6           0       -1.705533    1.975126    0.473438
      9         17           0        2.662949   -1.580776   -0.620930
     10         17           0        1.188706    0.253852    2.171795
     11          1           0       -3.570883   -0.925834    0.093992
     12          1           0       -2.240230    2.930967    0.541691
     13          1           0       -1.285512    1.733553    1.448445
     14          1           0       -0.875117    2.136851   -0.227844
     15          1           0       -3.827881    2.187951   -1.280264
     16          1           0       -2.478106    1.470216   -2.145130
     17          1           0       -3.916040    0.480979   -1.752154
     18          6           0       -2.548918   -0.520867    2.008202
     19          1           0       -3.285954    0.030737    2.605136
     20          1           0       -2.657630   -1.577483    2.261595
     21          1           0       -1.555817   -0.196603    2.325389
     22          6           0       -0.857516   -2.263611    0.366153
     23          1           0       -1.720771   -2.905662    0.548585
     24          1           0       -0.072354   -2.863539   -0.115179
     25          1           0       -0.450322   -1.891686    1.305530
     26          6           0       -1.888760   -1.577558   -1.866225
     27          1           0       -1.194339   -2.238977   -2.401395
     28          1           0       -2.799871   -2.141221   -1.657435
     29          1           0       -2.099455   -0.732145   -2.518574
 ---------------------------------------------------------------------
 Rotational constants (GHZ):           0.5782760           0.3332435           0.3132424
   427 basis functions,  1056 primitive gaussians,   461 cartesian basis functions
    77 alpha electrons       72 beta electrons
       nuclear repulsion energy      1640.3265488159 Hartrees.
 NAtoms=   29 NActive=   29 NUniq=   29 SFac= 1.00D+00 NAtFMM=   60 NAOKFM=F Big=F
 ExpMin= 1.40D-02 ExpMax= 4.32D+06 ExpMxC= 4.91D+03 IAcc=3 IRadAn=         5 AccDes= 0.00D+00
 Harris functional with IExCor= 1009 and IRadAn=       5 diagonalized for initial guess.
 HarFok:  IExCor= 1009 AccDes= 0.00D+00 IRadAn=         5 IDoV= 1 UseB2=F ITyADJ=14
 ICtDFT=  3500011 ScaDFX=  1.000000  1.000000  1.000000  1.000000
 FoFCou: FMM=F IPFlag=           0 FMFlag=      100000 FMFlg1=           0
         NFxFlg=           0 DoJE=T BraDBF=F KetDBF=T FulRan=T
         wScrn=  0.000000 ICntrl=       500 IOpCl=  0 I1Cent=   200000004 NGrid=           0
         NMat0=    1 NMatS0=      1 NMatT0=    0 NMatD0=    1 NMtDS0=    0 NMtDT0=    0
 Petite list used in FoFCou.
 Initial guess <Sx>= 0.0000 <Sy>= 0.0000 <Sz>= 2.5000 <S**2>= 8.7500 S= 2.5000
 EnCoef did   100 forward-backward iterations
 SCF Done:  E(UPBE1PBE) =  -3033.11954191     A.U. after   20 cycles
            NFock= 20  Conv=0.84D-08     -V/T= 2.0021
 <Sx>= 0.0000 <Sy>= 0.0000 <Sz>= 2.5000 <S**2>= 8.7625 S= 2.5021
 <L.S>= 0.000000000000E+00
 Annihilation of the first spin contaminant:
 S**2 before annihilation     8.7625,   after     8.7500
 1\1\GINC-HOLY7C04203\SP\UPBE1PBE\Jul-CC-pVDZ\C8H16Cl3Fe1O1(6)\EKWAN\11
 -Feb-2020\0\\#t pop=none jul-cc-pvdz upbe1pbe\\theory_abbreviation pbe
 0\\0,6\O,0,-0.277352,-0.234701,-0.77684\C,0,-1.156718,-1.152807,-0.612
 167\C,0,-2.816054,-0.279101,0.538156\C,0,-2.611951,0.925694,-0.074603\
 C,0,-3.246622,1.263267,-1.388497\Fe,0,1.448287,0.141209,-0.018358\Cl,0
 ,2.006351,2.061466,-0.904224\C,0,-1.705533,1.975126,0.473438\Cl,0,2.66
 2949,-1.580776,-0.62093\Cl,0,1.188706,0.253852,2.171795\H,0,-3.570883,
 -0.925834,0.093992\H,0,-2.24023,2.930967,0.541691\H,0,-1.285512,1.7335
 53,1.448445\H,0,-0.875117,2.136851,-0.227844\H,0,-3.827881,2.187951,-1
 .280264\H,0,-2.478106,1.470216,-2.14513\H,0,-3.91604,0.480979,-1.75215
 4\C,0,-2.548918,-0.520867,2.008202\H,0,-3.285954,0.030737,2.605136\H,0
 ,-2.65763,-1.577483,2.261595\H,0,-1.555817,-0.196603,2.325389\C,0,-0.8
 57516,-2.263611,0.366153\H,0,-1.720771,-2.905662,0.548585\H,0,-0.07235
 4,-2.863539,-0.115179\H,0,-0.450322,-1.891686,1.30553\C,0,-1.88876,-1.
 577558,-1.866225\H,0,-1.194339,-2.238977,-2.401395\H,0,-2.799871,-2.14
 1221,-1.657435\H,0,-2.099455,-0.732145,-2.518574\\Version=ES64L-G16Rev
 A.03\HF=-3033.1195419\S2=8.762489\S2-1=0.\S2A=8.750048\RMSD=8.437e-09\
 PG=C01 [X(C8H16Cl3Fe1O1)]\\@



 WE LOSE BECAUSE WE WIN

 GAMBLERS,

 RECOLLECTING WHICH,

 TOSS THEIR DICE AGAIN....


                          EMILY DICKINSON  BOLTS OF MELODY NO. 533
 Job cpu time:       0 days  1 hours 22 minutes 47.5 seconds.
 Elapsed time:       0 days  0 hours 21 minutes 10.2 seconds.
 File lengths (MBytes):  RWF=    173 Int=      0 D2E=      0 Chk=     13 Scr=      1
 Normal termination of Gaussian 16 at Tue Feb 11 13:57:50 2020.
 Initial command:
 /n/sw/g16_nehalem/g16/l1.exe "/scratch/Gau-1765.inp" -scrdir="/scratch/"
 Entering Link 1 = /n/sw/g16_nehalem/g16/l1.exe PID=      3207.
  
 Copyright (c) 1988,1990,1992,1993,1995,1998,2003,2009,2016,
            Gaussian, Inc.  All Rights Reserved.
  
 This is part of the Gaussian(R) 16 program.  It is based on
 the Gaussian(R) 09 system (copyright 2009, Gaussian, Inc.),
 the Gaussian(R) 03 system (copyright 2003, Gaussian, Inc.),
 the Gaussian(R) 98 system (copyright 1998, Gaussian, Inc.),
 the Gaussian(R) 94 system (copyright 1995, Gaussian, Inc.),
 the Gaussian 92(TM) system (copyright 1992, Gaussian, Inc.),
 the Gaussian 90(TM) system (copyright 1990, Gaussian, Inc.),
 the Gaussian 88(TM) system (copyright 1988, Gaussian, Inc.),
 the Gaussian 86(TM) system (copyright 1986, Carnegie Mellon
 University), and the Gaussian 82(TM) system (copyright 1983,
 Carnegie Mellon University). Gaussian is a federally registered
 trademark of Gaussian, Inc.
  
 This software contains proprietary and confidential information,
 including trade secrets, belonging to Gaussian, Inc.
  
 This software is provided under written license and may be
 used, copied, transmitted, or stored only in accord with that
 written license.
  
 The following legend is applicable only to US Government
 contracts under FAR:
  
                    RESTRICTED RIGHTS LEGEND
  
 Use, reproduction and disclosure by the US Government is
 subject to restrictions as set forth in subparagraphs (a)
 and (c) of the Commercial Computer Software - Restricted
 Rights clause in FAR 52.227-19.
  
 Gaussian, Inc.
 340 Quinnipiac St., Bldg. 40, Wallingford CT 06492
  
  
 ---------------------------------------------------------------
 Warning -- This program may not be used in any manner that
 competes with the business of Gaussian, Inc. or will provide
 assistance to any competitor of Gaussian, Inc.  The licensee
 of this program is prohibited from giving any competitor of
 Gaussian, Inc. access to this program.  By using this program,
 the user acknowledges that Gaussian, Inc. is engaged in the
 business of creating and licensing software in the field of
 computational chemistry and represents and warrants to the
 licensee that it is not a competitor of Gaussian, Inc. and that
 it will not use this program in any manner prohibited above.
 ---------------------------------------------------------------
  

 Cite this work as:
 Gaussian 16, Revision A.03,
 M. J. Frisch, G. W. Trucks, H. B. Schlegel, G. E. Scuseria, 
 M. A. Robb, J. R. Cheeseman, G. Scalmani, V. Barone, 
 G. A. Petersson, H. Nakatsuji, X. Li, M. Caricato, A. V. Marenich, 
 J. Bloino, B. G. Janesko, R. Gomperts, B. Mennucci, H. P. Hratchian, 
 J. V. Ortiz, A. F. Izmaylov, J. L. Sonnenberg, D. Williams-Young, 
 F. Ding, F. Lipparini, F. Egidi, J. Goings, B. Peng, A. Petrone, 
 T. Henderson, D. Ranasinghe, V. G. Zakrzewski, J. Gao, N. Rega, 
 G. Zheng, W. Liang, M. Hada, M. Ehara, K. Toyota, R. Fukuda, 
 J. Hasegawa, M. Ishida, T. Nakajima, Y. Honda, O. Kitao, H. Nakai, 
 T. Vreven, K. Throssell, J. A. Montgomery, Jr., J. E. Peralta, 
 F. Ogliaro, M. J. Bearpark, J. J. Heyd, E. N. Brothers, K. N. Kudin, 
 V. N. Staroverov, T. A. Keith, R. Kobayashi, J. Normand, 
 K. Raghavachari, A. P. Rendell, J. C. Burant, S. S. Iyengar, 
 J. Tomasi, M. Cossi, J. M. Millam, M. Klene, C. Adamo, R. Cammi, 
 J. W. Ochterski, R. L. Martin, K. Morokuma, O. Farkas, 
 J. B. Foresman, and D. J. Fox, Gaussian, Inc., Wallingford CT, 2016.
 
 ******************************************
 Gaussian 16:  ES64L-G16RevA.03 25-Dec-2016
                11-Feb-2020 
 ******************************************
 %chk=checkpoint.chk
 %mem=3GB
 %nprocshared=4
 Will use up to    4 processors via shared memory.
 ---------------------------------------------------------------------
 #t pop=none jul-cc-pvdz guess=read upbe1pbe empiricaldispersion=gd3bj
 ---------------------------------------------------------------------
 -----------------------------
 theory_abbreviation pbe0_d3bj
 -----------------------------
 Symbolic Z-matrix:
 Charge =  0 Multiplicity = 6
 O                    -0.27735  -0.2347   -0.77684 
 C                    -1.15672  -1.15281  -0.61217 
 C                    -2.81605  -0.2791    0.53816 
 C                    -2.61195   0.92569  -0.0746 
 C                    -3.24662   1.26327  -1.3885 
 Fe                    1.44829   0.14121  -0.01836 
 Cl                    2.00635   2.06147  -0.90422 
 C                    -1.70553   1.97513   0.47344 
 Cl                    2.66295  -1.58078  -0.62093 
 Cl                    1.18871   0.25385   2.17179 
 H                    -3.57088  -0.92583   0.09399 
 H                    -2.24023   2.93097   0.54169 
 H                    -1.28551   1.73355   1.44845 
 H                    -0.87512   2.13685  -0.22784 
 H                    -3.82788   2.18795  -1.28026 
 H                    -2.47811   1.47022  -2.14513 
 H                    -3.91604   0.48098  -1.75215 
 C                    -2.54892  -0.52087   2.0082 
 H                    -3.28595   0.03074   2.60514 
 H                    -2.65763  -1.57748   2.2616 
 H                    -1.55582  -0.1966    2.32539 
 C                    -0.85752  -2.26361   0.36615 
 H                    -1.72077  -2.90566   0.54859 
 H                    -0.07235  -2.86354  -0.11518 
 H                    -0.45032  -1.89169   1.30553 
 C                    -1.88876  -1.57756  -1.86623 
 H                    -1.19434  -2.23898  -2.4014 
 H                    -2.79987  -2.14122  -1.65744 
 H                    -2.09945  -0.73215  -2.51857 
 
                    Distance matrix (angstroms):
                    1          2          3          4          5
     1  O    0.000000
     2  C    1.281921   0.000000
     3  C    2.859404   2.200000   0.000000
     4  C    2.700001   2.593616   1.366990   0.000000
     5  C    3.381508   3.287522   2.505250   1.497692   0.000000
     6  Fe   1.922091   2.968693   4.320992   4.135712   5.017815
     7  Cl   3.240973   4.519055   5.551063   4.827728   5.335294
     8  C    2.913114   3.356144   2.513759   1.491057   2.519623
     9  Cl   3.237529   3.843578   5.749549   5.865615   6.603088
    10  Cl   3.329033   3.902582   4.357857   4.465722   5.776394
    11  H    3.476113   2.525543   1.088720   2.091920   2.663660
    12  H    3.951312   4.379794   3.261307   2.130520   2.742202
    13  H    3.137245   3.548772   2.687371   2.175259   3.480713
    14  H    2.506587   3.323982   3.192306   2.122964   2.781061
    15  H    4.327694   4.329218   3.227505   2.127298   1.097550
    16  H    3.101980   3.313049   3.220923   2.145111   1.098152
    17  H    3.834512   3.403334   2.652020   2.170852   1.091944
    18  C    3.605324   3.033793   1.513555   2.536649   3.899678
    19  H    4.534303   4.035525   2.142245   2.904519   4.179687
    20  H    4.086670   3.269800   2.163593   3.424296   4.662611
    21  H    3.355555   3.114938   2.188425   2.852180   4.333935
    22  C    2.399896   1.510138   2.793517   3.666603   4.607113
    23  H    3.312739   2.176695   2.845800   3.982694   4.843602
    24  H    2.718567   2.085533   3.825448   4.561742   5.359836
    25  H    2.666793   2.173131   2.964116   3.809861   5.003079
    26  C    2.363612   1.512931   2.885639   3.162149   3.184698
    27  H    2.738095   2.093446   3.887420   4.175970   4.183723
    28  H    3.282281   2.183918   2.878953   3.456391   3.444191
    29  H    2.569270   2.167971   3.172123   2.997345   2.564125
                    6          7          8          9         10
     6  Fe   0.000000
     7  Cl   2.187140   0.000000
     8  C    3.681263   3.960239   0.000000
     9  Cl   2.191741   3.711779   5.738093   0.000000
    10  Cl   2.208357   3.660315   3.771448   3.652200   0.000000
    11  H    5.132570   6.405149   3.469738   6.308781   5.325656
    12  H    4.658494   4.569481   1.097357   6.763777   4.645620
    13  H    3.487223   4.059426   1.088767   5.554947   2.972290
    14  H    3.069964   2.960748   1.098882   5.147152   3.682841
    15  H    5.798233   5.847706   2.761363   7.534514   6.389335
    16  H    4.658968   4.690392   2.776455   6.169456   5.793176
    17  H    5.647787   6.188024   3.474489   6.986673   6.442623
    18  C    4.530225   5.991756   3.049062   5.932900   3.820574
    19  H    5.413683   6.666930   3.289759   6.956574   4.501127
    20  H    5.001064   6.709477   4.089624   6.051241   4.261004
    21  H    3.825168   5.312092   2.858067   5.328669   2.785482
    22  C    3.353764   5.340588   4.324065   3.719445   3.712814
    23  H    4.432581   6.377653   4.881390   4.726530   4.591557
    24  H    3.369011   5.403636   5.140664   3.063192   4.066774
    25  H    3.080594   5.152249   4.149719   3.674285   2.835518
    26  C    4.183856   5.416625   4.257835   4.718986   5.397265
    27  H    4.281077   5.565945   5.126856   4.299064   5.727754
    28  H    5.093418   6.428816   4.762616   5.588456   6.025622
    29  H    4.427223   5.221880   4.054211   5.196318   5.812379
                   11         12         13         14         15
    11  H    0.000000
    12  H    4.104386   0.000000
    13  H    3.758963   1.779744   0.000000
    14  H    4.092771   1.756798   1.772292   0.000000
    15  H    3.413251   2.528286   3.757123   3.135126   0.000000
    16  H    3.456716   3.067472   3.795446   2.586496   1.756425
    17  H    2.346596   3.751334   4.328100   3.783206   1.773191
    18  C    2.207399   3.763124   2.644226   3.855512   4.448309
    19  H    2.702232   3.709808   2.870415   4.274766   4.477007
    20  H    2.440734   4.843389   3.675171   4.813620   5.300259
    21  H    3.093768   3.664928   2.137194   3.525246   4.883555
    22  C    3.037446   5.378322   4.163155   4.440406   5.599121
    23  H    2.747597   5.859703   4.745684   5.171548   5.807710
    24  H    4.004767   6.221532   5.004990   5.065671   6.401481
    25  H    3.484049   5.200500   3.722946   4.331374   5.893867
    26  C    2.663969   5.123318   4.723812   4.184328   4.275816
    27  H    3.687718   6.040196   5.532682   4.896335   5.271638
    28  H    2.266963   5.556658   5.191690   4.904111   4.465511
    29  H    3.004682   4.775294   4.741246   3.870089   3.612178
                   16         17         18         19         20
    16  H    0.000000
    17  H    1.789043   0.000000
    18  C    4.606473   4.124681   0.000000
    19  H    5.028891   4.425574   1.097187   0.000000
    20  H    5.360963   4.683059   1.092000   1.760450   0.000000
    21  H    4.859469   4.759845   1.091790   1.767291   1.767736
    22  C    4.782710   4.623264   2.931607   4.021740   2.702570
    23  H    5.194032   4.645637   2.916086   3.911731   2.361391
    24  H    5.356284   5.351580   4.016246   5.109224   3.739873
    25  H    5.226983   5.195207   2.603267   3.664082   2.425900
    26  C    3.116736   2.891444   4.069839   4.952962   4.198816
    27  H    3.933426   3.902221   4.922533   5.881480   4.931761
    28  H    3.658395   2.851445   4.015647   4.808658   3.961922
    29  H    2.265663   2.314962   4.553939   5.314337   4.886325
                   21         22         23         24         25
    21  H    0.000000
    22  C    2.932363   0.000000
    23  H    3.243955   1.091201   0.000000
    24  H    3.907631   1.099124   1.777536   0.000000
    25  H    2.266173   1.089295   1.793085   1.762320   0.000000
    26  C    4.425779   2.552968   2.761048   2.831826   3.496829
    27  H    5.161826   2.788078   3.069850   2.622158   3.796770
    28  H    4.603487   2.807602   2.572032   3.215532   3.789698
    29  H    4.903705   3.494202   3.778233   3.798458   4.322956
                   26         27         28         29
    26  C    0.000000
    27  H    1.098227   0.000000
    28  H    1.091528   1.772221   0.000000
    29  H    1.088428   1.761678   1.793778   0.000000
 Framework group  C1[X(C8H16Cl3FeO)]
 Deg. of freedom    81
                         Standard orientation:                         
 ---------------------------------------------------------------------
 Center     Atomic      Atomic             Coordinates (Angstroms)
 Number     Number       Type             X           Y           Z
 ---------------------------------------------------------------------
      1          8           0       -0.277352   -0.234701   -0.776840
      2          6           0       -1.156718   -1.152807   -0.612167
      3          6           0       -2.816054   -0.279101    0.538156
      4          6           0       -2.611951    0.925694   -0.074603
      5          6           0       -3.246622    1.263267   -1.388497
      6         26           0        1.448287    0.141209   -0.018358
      7         17           0        2.006351    2.061466   -0.904224
      8          6           0       -1.705533    1.975126    0.473438
      9         17           0        2.662949   -1.580776   -0.620930
     10         17           0        1.188706    0.253852    2.171795
     11          1           0       -3.570883   -0.925834    0.093992
     12          1           0       -2.240230    2.930967    0.541691
     13          1           0       -1.285512    1.733553    1.448445
     14          1           0       -0.875117    2.136851   -0.227844
     15          1           0       -3.827881    2.187951   -1.280264
     16          1           0       -2.478106    1.470216   -2.145130
     17          1           0       -3.916040    0.480979   -1.752154
     18          6           0       -2.548918   -0.520867    2.008202
     19          1           0       -3.285954    0.030737    2.605136
     20          1           0       -2.657630   -1.577483    2.261595
     21          1           0       -1.555817   -0.196603    2.325389
     22          6           0       -0.857516   -2.263611    0.366153
     23          1           0       -1.720771   -2.905662    0.548585
     24          1           0       -0.072354   -2.863539   -0.115179
     25          1           0       -0.450322   -1.891686    1.305530
     26          6           0       -1.888760   -1.577558   -1.866225
     27          1           0       -1.194339   -2.238977   -2.401395
     28          1           0       -2.799871   -2.141221   -1.657435
     29          1           0       -2.099455   -0.732145   -2.518574
 ---------------------------------------------------------------------
 Rotational constants (GHZ):           0.5782760           0.3332435           0.3132424
   427 basis functions,  1056 primitive gaussians,   461 cartesian basis functions
    77 alpha electrons       72 beta electrons
       nuclear repulsion energy      1640.3265488159 Hartrees.
 NAtoms=   29 NActive=   29 NUniq=   29 SFac= 1.00D+00 NAtFMM=   60 NAOKFM=F Big=F
 Nuclear repulsion after empirical dispersion term =     1640.2890474560 Hartrees.
 Initial guess from the checkpoint file:  "checkpoint.chk"
 B after Tr=     0.000000    0.000000    0.000000
         Rot=    1.000000    0.000000    0.000000    0.000000 Ang=   0.00 deg.
 Initial guess <Sx>= 0.0000 <Sy>= 0.0000 <Sz>= 2.5000 <S**2>= 8.7625 S= 2.5021
 SCF Done:  E(UPBE1PBE) =  -3033.15704327     A.U. after    1 cycles
            NFock=  1  Conv=0.36D-08     -V/T= 2.0021
 <Sx>= 0.0000 <Sy>= 0.0000 <Sz>= 2.5000 <S**2>= 8.7625 S= 2.5021
 <L.S>= 0.000000000000E+00
 Annihilation of the first spin contaminant:
 S**2 before annihilation     8.7625,   after     8.7500
 1\1\GINC-HOLY7C04203\SP\UPBE1PBE\Jul-CC-pVDZ\C8H16Cl3Fe1O1(6)\EKWAN\11
 -Feb-2020\0\\#t pop=none jul-cc-pvdz guess=read upbe1pbe empiricaldisp
 ersion=gd3bj\\theory_abbreviation pbe0_d3bj\\0,6\O,0,-0.277352,-0.2347
 01,-0.77684\C,0,-1.156718,-1.152807,-0.612167\C,0,-2.816054,-0.279101,
 0.538156\C,0,-2.611951,0.925694,-0.074603\C,0,-3.246622,1.263267,-1.38
 8497\Fe,0,1.448287,0.141209,-0.018358\Cl,0,2.006351,2.061466,-0.904224
 \C,0,-1.705533,1.975126,0.473438\Cl,0,2.662949,-1.580776,-0.62093\Cl,0
 ,1.188706,0.253852,2.171795\H,0,-3.570883,-0.925834,0.093992\H,0,-2.24
 023,2.930967,0.541691\H,0,-1.285512,1.733553,1.448445\H,0,-0.875117,2.
 136851,-0.227844\H,0,-3.827881,2.187951,-1.280264\H,0,-2.478106,1.4702
 16,-2.14513\H,0,-3.91604,0.480979,-1.752154\C,0,-2.548918,-0.520867,2.
 008202\H,0,-3.285954,0.030737,2.605136\H,0,-2.65763,-1.577483,2.261595
 \H,0,-1.555817,-0.196603,2.325389\C,0,-0.857516,-2.263611,0.366153\H,0
 ,-1.720771,-2.905662,0.548585\H,0,-0.072354,-2.863539,-0.115179\H,0,-0
 .450322,-1.891686,1.30553\C,0,-1.88876,-1.577558,-1.866225\H,0,-1.1943
 39,-2.238977,-2.401395\H,0,-2.799871,-2.141221,-1.657435\H,0,-2.099455
 ,-0.732145,-2.518574\\Version=ES64L-G16RevA.03\HF=-3033.1570433\S2=8.7
 62489\S2-1=0.\S2A=8.750048\RMSD=3.580e-09\PG=C01 [X(C8H16Cl3Fe1O1)]\\@


     "IF I COULD JUST GET IT ON PAPER"
 LIFE AND INK, THEY RUN OUT AT THE SAME TIME,
 OR SO SAID MY OLD FRIEND THE SQUID.
     -- JIMMY BUFFETT, 1981
 Job cpu time:       0 days  0 hours  5 minutes 10.0 seconds.
 Elapsed time:       0 days  0 hours  1 minutes 53.1 seconds.
 File lengths (MBytes):  RWF=    170 Int=      0 D2E=      0 Chk=     13 Scr=      1
 Normal termination of Gaussian 16 at Tue Feb 11 13:59:44 2020.
 Initial command:
 /n/sw/g16_nehalem/g16/l1.exe "/scratch/Gau-1765.inp" -scrdir="/scratch/"
 Entering Link 1 = /n/sw/g16_nehalem/g16/l1.exe PID=      3555.
  
 Copyright (c) 1988,1990,1992,1993,1995,1998,2003,2009,2016,
            Gaussian, Inc.  All Rights Reserved.
  
 This is part of the Gaussian(R) 16 program.  It is based on
 the Gaussian(R) 09 system (copyright 2009, Gaussian, Inc.),
 the Gaussian(R) 03 system (copyright 2003, Gaussian, Inc.),
 the Gaussian(R) 98 system (copyright 1998, Gaussian, Inc.),
 the Gaussian(R) 94 system (copyright 1995, Gaussian, Inc.),
 the Gaussian 92(TM) system (copyright 1992, Gaussian, Inc.),
 the Gaussian 90(TM) system (copyright 1990, Gaussian, Inc.),
 the Gaussian 88(TM) system (copyright 1988, Gaussian, Inc.),
 the Gaussian 86(TM) system (copyright 1986, Carnegie Mellon
 University), and the Gaussian 82(TM) system (copyright 1983,
 Carnegie Mellon University). Gaussian is a federally registered
 trademark of Gaussian, Inc.
  
 This software contains proprietary and confidential information,
 including trade secrets, belonging to Gaussian, Inc.
  
 This software is provided under written license and may be
 used, copied, transmitted, or stored only in accord with that
 written license.
  
 The following legend is applicable only to US Government
 contracts under FAR:
  
                    RESTRICTED RIGHTS LEGEND
  
 Use, reproduction and disclosure by the US Government is
 subject to restrictions as set forth in subparagraphs (a)
 and (c) of the Commercial Computer Software - Restricted
 Rights clause in FAR 52.227-19.
  
 Gaussian, Inc.
 340 Quinnipiac St., Bldg. 40, Wallingford CT 06492
  
  
 ---------------------------------------------------------------
 Warning -- This program may not be used in any manner that
 competes with the business of Gaussian, Inc. or will provide
 assistance to any competitor of Gaussian, Inc.  The licensee
 of this program is prohibited from giving any competitor of
 Gaussian, Inc. access to this program.  By using this program,
 the user acknowledges that Gaussian, Inc. is engaged in the
 business of creating and licensing software in the field of
 computational chemistry and represents and warrants to the
 licensee that it is not a competitor of Gaussian, Inc. and that
 it will not use this program in any manner prohibited above.
 ---------------------------------------------------------------
  

 Cite this work as:
 Gaussian 16, Revision A.03,
 M. J. Frisch, G. W. Trucks, H. B. Schlegel, G. E. Scuseria, 
 M. A. Robb, J. R. Cheeseman, G. Scalmani, V. Barone, 
 G. A. Petersson, H. Nakatsuji, X. Li, M. Caricato, A. V. Marenich, 
 J. Bloino, B. G. Janesko, R. Gomperts, B. Mennucci, H. P. Hratchian, 
 J. V. Ortiz, A. F. Izmaylov, J. L. Sonnenberg, D. Williams-Young, 
 F. Ding, F. Lipparini, F. Egidi, J. Goings, B. Peng, A. Petrone, 
 T. Henderson, D. Ranasinghe, V. G. Zakrzewski, J. Gao, N. Rega, 
 G. Zheng, W. Liang, M. Hada, M. Ehara, K. Toyota, R. Fukuda, 
 J. Hasegawa, M. Ishida, T. Nakajima, Y. Honda, O. Kitao, H. Nakai, 
 T. Vreven, K. Throssell, J. A. Montgomery, Jr., J. E. Peralta, 
 F. Ogliaro, M. J. Bearpark, J. J. Heyd, E. N. Brothers, K. N. Kudin, 
 V. N. Staroverov, T. A. Keith, R. Kobayashi, J. Normand, 
 K. Raghavachari, A. P. Rendell, J. C. Burant, S. S. Iyengar, 
 J. Tomasi, M. Cossi, J. M. Millam, M. Klene, C. Adamo, R. Cammi, 
 J. W. Ochterski, R. L. Martin, K. Morokuma, O. Farkas, 
 J. B. Foresman, and D. J. Fox, Gaussian, Inc., Wallingford CT, 2016.
 
 ******************************************
 Gaussian 16:  ES64L-G16RevA.03 25-Dec-2016
                11-Feb-2020 
 ******************************************
 %chk=checkpoint.chk
 %mem=3GB
 %nprocshared=4
 Will use up to    4 processors via shared memory.
 -----------------------------------------
 #t pop=none jul-cc-pvdz guess=read ub3lyp
 -----------------------------------------
 -------------------------
 theory_abbreviation b3lyp
 -------------------------
 Symbolic Z-matrix:
 Charge =  0 Multiplicity = 6
 O                    -0.27735  -0.2347   -0.77684 
 C                    -1.15672  -1.15281  -0.61217 
 C                    -2.81605  -0.2791    0.53816 
 C                    -2.61195   0.92569  -0.0746 
 C                    -3.24662   1.26327  -1.3885 
 Fe                    1.44829   0.14121  -0.01836 
 Cl                    2.00635   2.06147  -0.90422 
 C                    -1.70553   1.97513   0.47344 
 Cl                    2.66295  -1.58078  -0.62093 
 Cl                    1.18871   0.25385   2.17179 
 H                    -3.57088  -0.92583   0.09399 
 H                    -2.24023   2.93097   0.54169 
 H                    -1.28551   1.73355   1.44845 
 H                    -0.87512   2.13685  -0.22784 
 H                    -3.82788   2.18795  -1.28026 
 H                    -2.47811   1.47022  -2.14513 
 H                    -3.91604   0.48098  -1.75215 
 C                    -2.54892  -0.52087   2.0082 
 H                    -3.28595   0.03074   2.60514 
 H                    -2.65763  -1.57748   2.2616 
 H                    -1.55582  -0.1966    2.32539 
 C                    -0.85752  -2.26361   0.36615 
 H                    -1.72077  -2.90566   0.54859 
 H                    -0.07235  -2.86354  -0.11518 
 H                    -0.45032  -1.89169   1.30553 
 C                    -1.88876  -1.57756  -1.86623 
 H                    -1.19434  -2.23898  -2.4014 
 H                    -2.79987  -2.14122  -1.65744 
 H                    -2.09945  -0.73215  -2.51857 
 
                    Distance matrix (angstroms):
                    1          2          3          4          5
     1  O    0.000000
     2  C    1.281921   0.000000
     3  C    2.859404   2.200000   0.000000
     4  C    2.700001   2.593616   1.366990   0.000000
     5  C    3.381508   3.287522   2.505250   1.497692   0.000000
     6  Fe   1.922091   2.968693   4.320992   4.135712   5.017815
     7  Cl   3.240973   4.519055   5.551063   4.827728   5.335294
     8  C    2.913114   3.356144   2.513759   1.491057   2.519623
     9  Cl   3.237529   3.843578   5.749549   5.865615   6.603088
    10  Cl   3.329033   3.902582   4.357857   4.465722   5.776394
    11  H    3.476113   2.525543   1.088720   2.091920   2.663660
    12  H    3.951312   4.379794   3.261307   2.130520   2.742202
    13  H    3.137245   3.548772   2.687371   2.175259   3.480713
    14  H    2.506587   3.323982   3.192306   2.122964   2.781061
    15  H    4.327694   4.329218   3.227505   2.127298   1.097550
    16  H    3.101980   3.313049   3.220923   2.145111   1.098152
    17  H    3.834512   3.403334   2.652020   2.170852   1.091944
    18  C    3.605324   3.033793   1.513555   2.536649   3.899678
    19  H    4.534303   4.035525   2.142245   2.904519   4.179687
    20  H    4.086670   3.269800   2.163593   3.424296   4.662611
    21  H    3.355555   3.114938   2.188425   2.852180   4.333935
    22  C    2.399896   1.510138   2.793517   3.666603   4.607113
    23  H    3.312739   2.176695   2.845800   3.982694   4.843602
    24  H    2.718567   2.085533   3.825448   4.561742   5.359836
    25  H    2.666793   2.173131   2.964116   3.809861   5.003079
    26  C    2.363612   1.512931   2.885639   3.162149   3.184698
    27  H    2.738095   2.093446   3.887420   4.175970   4.183723
    28  H    3.282281   2.183918   2.878953   3.456391   3.444191
    29  H    2.569270   2.167971   3.172123   2.997345   2.564125
                    6          7          8          9         10
     6  Fe   0.000000
     7  Cl   2.187140   0.000000
     8  C    3.681263   3.960239   0.000000
     9  Cl   2.191741   3.711779   5.738093   0.000000
    10  Cl   2.208357   3.660315   3.771448   3.652200   0.000000
    11  H    5.132570   6.405149   3.469738   6.308781   5.325656
    12  H    4.658494   4.569481   1.097357   6.763777   4.645620
    13  H    3.487223   4.059426   1.088767   5.554947   2.972290
    14  H    3.069964   2.960748   1.098882   5.147152   3.682841
    15  H    5.798233   5.847706   2.761363   7.534514   6.389335
    16  H    4.658968   4.690392   2.776455   6.169456   5.793176
    17  H    5.647787   6.188024   3.474489   6.986673   6.442623
    18  C    4.530225   5.991756   3.049062   5.932900   3.820574
    19  H    5.413683   6.666930   3.289759   6.956574   4.501127
    20  H    5.001064   6.709477   4.089624   6.051241   4.261004
    21  H    3.825168   5.312092   2.858067   5.328669   2.785482
    22  C    3.353764   5.340588   4.324065   3.719445   3.712814
    23  H    4.432581   6.377653   4.881390   4.726530   4.591557
    24  H    3.369011   5.403636   5.140664   3.063192   4.066774
    25  H    3.080594   5.152249   4.149719   3.674285   2.835518
    26  C    4.183856   5.416625   4.257835   4.718986   5.397265
    27  H    4.281077   5.565945   5.126856   4.299064   5.727754
    28  H    5.093418   6.428816   4.762616   5.588456   6.025622
    29  H    4.427223   5.221880   4.054211   5.196318   5.812379
                   11         12         13         14         15
    11  H    0.000000
    12  H    4.104386   0.000000
    13  H    3.758963   1.779744   0.000000
    14  H    4.092771   1.756798   1.772292   0.000000
    15  H    3.413251   2.528286   3.757123   3.135126   0.000000
    16  H    3.456716   3.067472   3.795446   2.586496   1.756425
    17  H    2.346596   3.751334   4.328100   3.783206   1.773191
    18  C    2.207399   3.763124   2.644226   3.855512   4.448309
    19  H    2.702232   3.709808   2.870415   4.274766   4.477007
    20  H    2.440734   4.843389   3.675171   4.813620   5.300259
    21  H    3.093768   3.664928   2.137194   3.525246   4.883555
    22  C    3.037446   5.378322   4.163155   4.440406   5.599121
    23  H    2.747597   5.859703   4.745684   5.171548   5.807710
    24  H    4.004767   6.221532   5.004990   5.065671   6.401481
    25  H    3.484049   5.200500   3.722946   4.331374   5.893867
    26  C    2.663969   5.123318   4.723812   4.184328   4.275816
    27  H    3.687718   6.040196   5.532682   4.896335   5.271638
    28  H    2.266963   5.556658   5.191690   4.904111   4.465511
    29  H    3.004682   4.775294   4.741246   3.870089   3.612178
                   16         17         18         19         20
    16  H    0.000000
    17  H    1.789043   0.000000
    18  C    4.606473   4.124681   0.000000
    19  H    5.028891   4.425574   1.097187   0.000000
    20  H    5.360963   4.683059   1.092000   1.760450   0.000000
    21  H    4.859469   4.759845   1.091790   1.767291   1.767736
    22  C    4.782710   4.623264   2.931607   4.021740   2.702570
    23  H    5.194032   4.645637   2.916086   3.911731   2.361391
    24  H    5.356284   5.351580   4.016246   5.109224   3.739873
    25  H    5.226983   5.195207   2.603267   3.664082   2.425900
    26  C    3.116736   2.891444   4.069839   4.952962   4.198816
    27  H    3.933426   3.902221   4.922533   5.881480   4.931761
    28  H    3.658395   2.851445   4.015647   4.808658   3.961922
    29  H    2.265663   2.314962   4.553939   5.314337   4.886325
                   21         22         23         24         25
    21  H    0.000000
    22  C    2.932363   0.000000
    23  H    3.243955   1.091201   0.000000
    24  H    3.907631   1.099124   1.777536   0.000000
    25  H    2.266173   1.089295   1.793085   1.762320   0.000000
    26  C    4.425779   2.552968   2.761048   2.831826   3.496829
    27  H    5.161826   2.788078   3.069850   2.622158   3.796770
    28  H    4.603487   2.807602   2.572032   3.215532   3.789698
    29  H    4.903705   3.494202   3.778233   3.798458   4.322956
                   26         27         28         29
    26  C    0.000000
    27  H    1.098227   0.000000
    28  H    1.091528   1.772221   0.000000
    29  H    1.088428   1.761678   1.793778   0.000000
 Framework group  C1[X(C8H16Cl3FeO)]
 Deg. of freedom    81
                         Standard orientation:                         
 ---------------------------------------------------------------------
 Center     Atomic      Atomic             Coordinates (Angstroms)
 Number     Number       Type             X           Y           Z
 ---------------------------------------------------------------------
      1          8           0       -0.277352   -0.234701   -0.776840
      2          6           0       -1.156718   -1.152807   -0.612167
      3          6           0       -2.816054   -0.279101    0.538156
      4          6           0       -2.611951    0.925694   -0.074603
      5          6           0       -3.246622    1.263267   -1.388497
      6         26           0        1.448287    0.141209   -0.018358
      7         17           0        2.006351    2.061466   -0.904224
      8          6           0       -1.705533    1.975126    0.473438
      9         17           0        2.662949   -1.580776   -0.620930
     10         17           0        1.188706    0.253852    2.171795
     11          1           0       -3.570883   -0.925834    0.093992
     12          1           0       -2.240230    2.930967    0.541691
     13          1           0       -1.285512    1.733553    1.448445
     14          1           0       -0.875117    2.136851   -0.227844
     15          1           0       -3.827881    2.187951   -1.280264
     16          1           0       -2.478106    1.470216   -2.145130
     17          1           0       -3.916040    0.480979   -1.752154
     18          6           0       -2.548918   -0.520867    2.008202
     19          1           0       -3.285954    0.030737    2.605136
     20          1           0       -2.657630   -1.577483    2.261595
     21          1           0       -1.555817   -0.196603    2.325389
     22          6           0       -0.857516   -2.263611    0.366153
     23          1           0       -1.720771   -2.905662    0.548585
     24          1           0       -0.072354   -2.863539   -0.115179
     25          1           0       -0.450322   -1.891686    1.305530
     26          6           0       -1.888760   -1.577558   -1.866225
     27          1           0       -1.194339   -2.238977   -2.401395
     28          1           0       -2.799871   -2.141221   -1.657435
     29          1           0       -2.099455   -0.732145   -2.518574
 ---------------------------------------------------------------------
 Rotational constants (GHZ):           0.5782760           0.3332435           0.3132424
   427 basis functions,  1056 primitive gaussians,   461 cartesian basis functions
    77 alpha electrons       72 beta electrons
       nuclear repulsion energy      1640.3265488159 Hartrees.
 NAtoms=   29 NActive=   29 NUniq=   29 SFac= 1.00D+00 NAtFMM=   60 NAOKFM=F Big=F
 Initial guess from the checkpoint file:  "checkpoint.chk"
 B after Tr=     0.000000    0.000000    0.000000
         Rot=    1.000000    0.000000    0.000000    0.000000 Ang=   0.00 deg.
 Initial guess <Sx>= 0.0000 <Sy>= 0.0000 <Sz>= 2.5000 <S**2>= 8.7625 S= 2.5021
 SCF Done:  E(UB3LYP) =  -3034.33495126     A.U. after   13 cycles
            NFock= 13  Conv=0.81D-08     -V/T= 2.0024
 <Sx>= 0.0000 <Sy>= 0.0000 <Sz>= 2.5000 <S**2>= 8.7618 S= 2.5020
 <L.S>= 0.000000000000E+00
 Annihilation of the first spin contaminant:
 S**2 before annihilation     8.7618,   after     8.7500
 1\1\GINC-HOLY7C04203\SP\UB3LYP\Jul-CC-pVDZ\C8H16Cl3Fe1O1(6)\EKWAN\11-F
 eb-2020\0\\#t pop=none jul-cc-pvdz guess=read ub3lyp\\theory_abbreviat
 ion b3lyp\\0,6\O,0,-0.277352,-0.234701,-0.77684\C,0,-1.156718,-1.15280
 7,-0.612167\C,0,-2.816054,-0.279101,0.538156\C,0,-2.611951,0.925694,-0
 .074603\C,0,-3.246622,1.263267,-1.388497\Fe,0,1.448287,0.141209,-0.018
 358\Cl,0,2.006351,2.061466,-0.904224\C,0,-1.705533,1.975126,0.473438\C
 l,0,2.662949,-1.580776,-0.62093\Cl,0,1.188706,0.253852,2.171795\H,0,-3
 .570883,-0.925834,0.093992\H,0,-2.24023,2.930967,0.541691\H,0,-1.28551
 2,1.733553,1.448445\H,0,-0.875117,2.136851,-0.227844\H,0,-3.827881,2.1
 87951,-1.280264\H,0,-2.478106,1.470216,-2.14513\H,0,-3.91604,0.480979,
 -1.752154\C,0,-2.548918,-0.520867,2.008202\H,0,-3.285954,0.030737,2.60
 5136\H,0,-2.65763,-1.577483,2.261595\H,0,-1.555817,-0.196603,2.325389\
 C,0,-0.857516,-2.263611,0.366153\H,0,-1.720771,-2.905662,0.548585\H,0,
 -0.072354,-2.863539,-0.115179\H,0,-0.450322,-1.891686,1.30553\C,0,-1.8
 8876,-1.577558,-1.866225\H,0,-1.194339,-2.238977,-2.401395\H,0,-2.7998
 71,-2.141221,-1.657435\H,0,-2.099455,-0.732145,-2.518574\\Version=ES64
 L-G16RevA.03\HF=-3034.3349513\S2=8.761767\S2-1=0.\S2A=8.750043\RMSD=8.
 079e-09\PG=C01 [X(C8H16Cl3Fe1O1)]\\@


 Experience is what you get when you don't get what you want.
 -- Dan Stanford
 Job cpu time:       0 days  0 hours 52 minutes 59.3 seconds.
 Elapsed time:       0 days  0 hours 13 minutes 21.1 seconds.
 File lengths (MBytes):  RWF=    174 Int=      0 D2E=      0 Chk=     13 Scr=      1
 Normal termination of Gaussian 16 at Tue Feb 11 14:13:05 2020.
 Initial command:
 /n/sw/g16_nehalem/g16/l1.exe "/scratch/Gau-1765.inp" -scrdir="/scratch/"
 Entering Link 1 = /n/sw/g16_nehalem/g16/l1.exe PID=      5420.
  
 Copyright (c) 1988,1990,1992,1993,1995,1998,2003,2009,2016,
            Gaussian, Inc.  All Rights Reserved.
  
 This is part of the Gaussian(R) 16 program.  It is based on
 the Gaussian(R) 09 system (copyright 2009, Gaussian, Inc.),
 the Gaussian(R) 03 system (copyright 2003, Gaussian, Inc.),
 the Gaussian(R) 98 system (copyright 1998, Gaussian, Inc.),
 the Gaussian(R) 94 system (copyright 1995, Gaussian, Inc.),
 the Gaussian 92(TM) system (copyright 1992, Gaussian, Inc.),
 the Gaussian 90(TM) system (copyright 1990, Gaussian, Inc.),
 the Gaussian 88(TM) system (copyright 1988, Gaussian, Inc.),
 the Gaussian 86(TM) system (copyright 1986, Carnegie Mellon
 University), and the Gaussian 82(TM) system (copyright 1983,
 Carnegie Mellon University). Gaussian is a federally registered
 trademark of Gaussian, Inc.
  
 This software contains proprietary and confidential information,
 including trade secrets, belonging to Gaussian, Inc.
  
 This software is provided under written license and may be
 used, copied, transmitted, or stored only in accord with that
 written license.
  
 The following legend is applicable only to US Government
 contracts under FAR:
  
                    RESTRICTED RIGHTS LEGEND
  
 Use, reproduction and disclosure by the US Government is
 subject to restrictions as set forth in subparagraphs (a)
 and (c) of the Commercial Computer Software - Restricted
 Rights clause in FAR 52.227-19.
  
 Gaussian, Inc.
 340 Quinnipiac St., Bldg. 40, Wallingford CT 06492
  
  
 ---------------------------------------------------------------
 Warning -- This program may not be used in any manner that
 competes with the business of Gaussian, Inc. or will provide
 assistance to any competitor of Gaussian, Inc.  The licensee
 of this program is prohibited from giving any competitor of
 Gaussian, Inc. access to this program.  By using this program,
 the user acknowledges that Gaussian, Inc. is engaged in the
 business of creating and licensing software in the field of
 computational chemistry and represents and warrants to the
 licensee that it is not a competitor of Gaussian, Inc. and that
 it will not use this program in any manner prohibited above.
 ---------------------------------------------------------------
  

 Cite this work as:
 Gaussian 16, Revision A.03,
 M. J. Frisch, G. W. Trucks, H. B. Schlegel, G. E. Scuseria, 
 M. A. Robb, J. R. Cheeseman, G. Scalmani, V. Barone, 
 G. A. Petersson, H. Nakatsuji, X. Li, M. Caricato, A. V. Marenich, 
 J. Bloino, B. G. Janesko, R. Gomperts, B. Mennucci, H. P. Hratchian, 
 J. V. Ortiz, A. F. Izmaylov, J. L. Sonnenberg, D. Williams-Young, 
 F. Ding, F. Lipparini, F. Egidi, J. Goings, B. Peng, A. Petrone, 
 T. Henderson, D. Ranasinghe, V. G. Zakrzewski, J. Gao, N. Rega, 
 G. Zheng, W. Liang, M. Hada, M. Ehara, K. Toyota, R. Fukuda, 
 J. Hasegawa, M. Ishida, T. Nakajima, Y. Honda, O. Kitao, H. Nakai, 
 T. Vreven, K. Throssell, J. A. Montgomery, Jr., J. E. Peralta, 
 F. Ogliaro, M. J. Bearpark, J. J. Heyd, E. N. Brothers, K. N. Kudin, 
 V. N. Staroverov, T. A. Keith, R. Kobayashi, J. Normand, 
 K. Raghavachari, A. P. Rendell, J. C. Burant, S. S. Iyengar, 
 J. Tomasi, M. Cossi, J. M. Millam, M. Klene, C. Adamo, R. Cammi, 
 J. W. Ochterski, R. L. Martin, K. Morokuma, O. Farkas, 
 J. B. Foresman, and D. J. Fox, Gaussian, Inc., Wallingford CT, 2016.
 
 ******************************************
 Gaussian 16:  ES64L-G16RevA.03 25-Dec-2016
                11-Feb-2020 
 ******************************************
 %chk=checkpoint.chk
 %mem=3GB
 %nprocshared=4
 Will use up to    4 processors via shared memory.
 -------------------------------------------------------------------
 #t pop=none jul-cc-pvdz guess=read ub3lyp empiricaldispersion=gd3bj
 -------------------------------------------------------------------
 ------------------------------
 theory_abbreviation b3lyp_d3bj
 ------------------------------
 Symbolic Z-matrix:
 Charge =  0 Multiplicity = 6
 O                    -0.27735  -0.2347   -0.77684 
 C                    -1.15672  -1.15281  -0.61217 
 C                    -2.81605  -0.2791    0.53816 
 C                    -2.61195   0.92569  -0.0746 
 C                    -3.24662   1.26327  -1.3885 
 Fe                    1.44829   0.14121  -0.01836 
 Cl                    2.00635   2.06147  -0.90422 
 C                    -1.70553   1.97513   0.47344 
 Cl                    2.66295  -1.58078  -0.62093 
 Cl                    1.18871   0.25385   2.17179 
 H                    -3.57088  -0.92583   0.09399 
 H                    -2.24023   2.93097   0.54169 
 H                    -1.28551   1.73355   1.44845 
 H                    -0.87512   2.13685  -0.22784 
 H                    -3.82788   2.18795  -1.28026 
 H                    -2.47811   1.47022  -2.14513 
 H                    -3.91604   0.48098  -1.75215 
 C                    -2.54892  -0.52087   2.0082 
 H                    -3.28595   0.03074   2.60514 
 H                    -2.65763  -1.57748   2.2616 
 H                    -1.55582  -0.1966    2.32539 
 C                    -0.85752  -2.26361   0.36615 
 H                    -1.72077  -2.90566   0.54859 
 H                    -0.07235  -2.86354  -0.11518 
 H                    -0.45032  -1.89169   1.30553 
 C                    -1.88876  -1.57756  -1.86623 
 H                    -1.19434  -2.23898  -2.4014 
 H                    -2.79987  -2.14122  -1.65744 
 H                    -2.09945  -0.73215  -2.51857 
 
                    Distance matrix (angstroms):
                    1          2          3          4          5
     1  O    0.000000
     2  C    1.281921   0.000000
     3  C    2.859404   2.200000   0.000000
     4  C    2.700001   2.593616   1.366990   0.000000
     5  C    3.381508   3.287522   2.505250   1.497692   0.000000
     6  Fe   1.922091   2.968693   4.320992   4.135712   5.017815
     7  Cl   3.240973   4.519055   5.551063   4.827728   5.335294
     8  C    2.913114   3.356144   2.513759   1.491057   2.519623
     9  Cl   3.237529   3.843578   5.749549   5.865615   6.603088
    10  Cl   3.329033   3.902582   4.357857   4.465722   5.776394
    11  H    3.476113   2.525543   1.088720   2.091920   2.663660
    12  H    3.951312   4.379794   3.261307   2.130520   2.742202
    13  H    3.137245   3.548772   2.687371   2.175259   3.480713
    14  H    2.506587   3.323982   3.192306   2.122964   2.781061
    15  H    4.327694   4.329218   3.227505   2.127298   1.097550
    16  H    3.101980   3.313049   3.220923   2.145111   1.098152
    17  H    3.834512   3.403334   2.652020   2.170852   1.091944
    18  C    3.605324   3.033793   1.513555   2.536649   3.899678
    19  H    4.534303   4.035525   2.142245   2.904519   4.179687
    20  H    4.086670   3.269800   2.163593   3.424296   4.662611
    21  H    3.355555   3.114938   2.188425   2.852180   4.333935
    22  C    2.399896   1.510138   2.793517   3.666603   4.607113
    23  H    3.312739   2.176695   2.845800   3.982694   4.843602
    24  H    2.718567   2.085533   3.825448   4.561742   5.359836
    25  H    2.666793   2.173131   2.964116   3.809861   5.003079
    26  C    2.363612   1.512931   2.885639   3.162149   3.184698
    27  H    2.738095   2.093446   3.887420   4.175970   4.183723
    28  H    3.282281   2.183918   2.878953   3.456391   3.444191
    29  H    2.569270   2.167971   3.172123   2.997345   2.564125
                    6          7          8          9         10
     6  Fe   0.000000
     7  Cl   2.187140   0.000000
     8  C    3.681263   3.960239   0.000000
     9  Cl   2.191741   3.711779   5.738093   0.000000
    10  Cl   2.208357   3.660315   3.771448   3.652200   0.000000
    11  H    5.132570   6.405149   3.469738   6.308781   5.325656
    12  H    4.658494   4.569481   1.097357   6.763777   4.645620
    13  H    3.487223   4.059426   1.088767   5.554947   2.972290
    14  H    3.069964   2.960748   1.098882   5.147152   3.682841
    15  H    5.798233   5.847706   2.761363   7.534514   6.389335
    16  H    4.658968   4.690392   2.776455   6.169456   5.793176
    17  H    5.647787   6.188024   3.474489   6.986673   6.442623
    18  C    4.530225   5.991756   3.049062   5.932900   3.820574
    19  H    5.413683   6.666930   3.289759   6.956574   4.501127
    20  H    5.001064   6.709477   4.089624   6.051241   4.261004
    21  H    3.825168   5.312092   2.858067   5.328669   2.785482
    22  C    3.353764   5.340588   4.324065   3.719445   3.712814
    23  H    4.432581   6.377653   4.881390   4.726530   4.591557
    24  H    3.369011   5.403636   5.140664   3.063192   4.066774
    25  H    3.080594   5.152249   4.149719   3.674285   2.835518
    26  C    4.183856   5.416625   4.257835   4.718986   5.397265
    27  H    4.281077   5.565945   5.126856   4.299064   5.727754
    28  H    5.093418   6.428816   4.762616   5.588456   6.025622
    29  H    4.427223   5.221880   4.054211   5.196318   5.812379
                   11         12         13         14         15
    11  H    0.000000
    12  H    4.104386   0.000000
    13  H    3.758963   1.779744   0.000000
    14  H    4.092771   1.756798   1.772292   0.000000
    15  H    3.413251   2.528286   3.757123   3.135126   0.000000
    16  H    3.456716   3.067472   3.795446   2.586496   1.756425
    17  H    2.346596   3.751334   4.328100   3.783206   1.773191
    18  C    2.207399   3.763124   2.644226   3.855512   4.448309
    19  H    2.702232   3.709808   2.870415   4.274766   4.477007
    20  H    2.440734   4.843389   3.675171   4.813620   5.300259
    21  H    3.093768   3.664928   2.137194   3.525246   4.883555
    22  C    3.037446   5.378322   4.163155   4.440406   5.599121
    23  H    2.747597   5.859703   4.745684   5.171548   5.807710
    24  H    4.004767   6.221532   5.004990   5.065671   6.401481
    25  H    3.484049   5.200500   3.722946   4.331374   5.893867
    26  C    2.663969   5.123318   4.723812   4.184328   4.275816
    27  H    3.687718   6.040196   5.532682   4.896335   5.271638
    28  H    2.266963   5.556658   5.191690   4.904111   4.465511
    29  H    3.004682   4.775294   4.741246   3.870089   3.612178
                   16         17         18         19         20
    16  H    0.000000
    17  H    1.789043   0.000000
    18  C    4.606473   4.124681   0.000000
    19  H    5.028891   4.425574   1.097187   0.000000
    20  H    5.360963   4.683059   1.092000   1.760450   0.000000
    21  H    4.859469   4.759845   1.091790   1.767291   1.767736
    22  C    4.782710   4.623264   2.931607   4.021740   2.702570
    23  H    5.194032   4.645637   2.916086   3.911731   2.361391
    24  H    5.356284   5.351580   4.016246   5.109224   3.739873
    25  H    5.226983   5.195207   2.603267   3.664082   2.425900
    26  C    3.116736   2.891444   4.069839   4.952962   4.198816
    27  H    3.933426   3.902221   4.922533   5.881480   4.931761
    28  H    3.658395   2.851445   4.015647   4.808658   3.961922
    29  H    2.265663   2.314962   4.553939   5.314337   4.886325
                   21         22         23         24         25
    21  H    0.000000
    22  C    2.932363   0.000000
    23  H    3.243955   1.091201   0.000000
    24  H    3.907631   1.099124   1.777536   0.000000
    25  H    2.266173   1.089295   1.793085   1.762320   0.000000
    26  C    4.425779   2.552968   2.761048   2.831826   3.496829
    27  H    5.161826   2.788078   3.069850   2.622158   3.796770
    28  H    4.603487   2.807602   2.572032   3.215532   3.789698
    29  H    4.903705   3.494202   3.778233   3.798458   4.322956
                   26         27         28         29
    26  C    0.000000
    27  H    1.098227   0.000000
    28  H    1.091528   1.772221   0.000000
    29  H    1.088428   1.761678   1.793778   0.000000
 Framework group  C1[X(C8H16Cl3FeO)]
 Deg. of freedom    81
                         Standard orientation:                         
 ---------------------------------------------------------------------
 Center     Atomic      Atomic             Coordinates (Angstroms)
 Number     Number       Type             X           Y           Z
 ---------------------------------------------------------------------
      1          8           0       -0.277352   -0.234701   -0.776840
      2          6           0       -1.156718   -1.152807   -0.612167
      3          6           0       -2.816054   -0.279101    0.538156
      4          6           0       -2.611951    0.925694   -0.074603
      5          6           0       -3.246622    1.263267   -1.388497
      6         26           0        1.448287    0.141209   -0.018358
      7         17           0        2.006351    2.061466   -0.904224
      8          6           0       -1.705533    1.975126    0.473438
      9         17           0        2.662949   -1.580776   -0.620930
     10         17           0        1.188706    0.253852    2.171795
     11          1           0       -3.570883   -0.925834    0.093992
     12          1           0       -2.240230    2.930967    0.541691
     13          1           0       -1.285512    1.733553    1.448445
     14          1           0       -0.875117    2.136851   -0.227844
     15          1           0       -3.827881    2.187951   -1.280264
     16          1           0       -2.478106    1.470216   -2.145130
     17          1           0       -3.916040    0.480979   -1.752154
     18          6           0       -2.548918   -0.520867    2.008202
     19          1           0       -3.285954    0.030737    2.605136
     20          1           0       -2.657630   -1.577483    2.261595
     21          1           0       -1.555817   -0.196603    2.325389
     22          6           0       -0.857516   -2.263611    0.366153
     23          1           0       -1.720771   -2.905662    0.548585
     24          1           0       -0.072354   -2.863539   -0.115179
     25          1           0       -0.450322   -1.891686    1.305530
     26          6           0       -1.888760   -1.577558   -1.866225
     27          1           0       -1.194339   -2.238977   -2.401395
     28          1           0       -2.799871   -2.141221   -1.657435
     29          1           0       -2.099455   -0.732145   -2.518574
 ---------------------------------------------------------------------
 Rotational constants (GHZ):           0.5782760           0.3332435           0.3132424
   427 basis functions,  1056 primitive gaussians,   461 cartesian basis functions
    77 alpha electrons       72 beta electrons
       nuclear repulsion energy      1640.3265488159 Hartrees.
 NAtoms=   29 NActive=   29 NUniq=   29 SFac= 1.00D+00 NAtFMM=   60 NAOKFM=F Big=F
 Nuclear repulsion after empirical dispersion term =     1640.2566918585 Hartrees.
 Initial guess from the checkpoint file:  "checkpoint.chk"
 B after Tr=     0.000000    0.000000    0.000000
         Rot=    1.000000    0.000000    0.000000    0.000000 Ang=   0.00 deg.
 Initial guess <Sx>= 0.0000 <Sy>= 0.0000 <Sz>= 2.5000 <S**2>= 8.7618 S= 2.5020
 SCF Done:  E(UB3LYP) =  -3034.40480821     A.U. after    1 cycles
            NFock=  1  Conv=0.50D-08     -V/T= 2.0024
 <Sx>= 0.0000 <Sy>= 0.0000 <Sz>= 2.5000 <S**2>= 8.7618 S= 2.5020
 <L.S>= 0.000000000000E+00
 Annihilation of the first spin contaminant:
 S**2 before annihilation     8.7618,   after     8.7500
 1\1\GINC-HOLY7C04203\SP\UB3LYP\Jul-CC-pVDZ\C8H16Cl3Fe1O1(6)\EKWAN\11-F
 eb-2020\0\\#t pop=none jul-cc-pvdz guess=read ub3lyp empiricaldispersi
 on=gd3bj\\theory_abbreviation b3lyp_d3bj\\0,6\O,0,-0.277352,-0.234701,
 -0.77684\C,0,-1.156718,-1.152807,-0.612167\C,0,-2.816054,-0.279101,0.5
 38156\C,0,-2.611951,0.925694,-0.074603\C,0,-3.246622,1.263267,-1.38849
 7\Fe,0,1.448287,0.141209,-0.018358\Cl,0,2.006351,2.061466,-0.904224\C,
 0,-1.705533,1.975126,0.473438\Cl,0,2.662949,-1.580776,-0.62093\Cl,0,1.
 188706,0.253852,2.171795\H,0,-3.570883,-0.925834,0.093992\H,0,-2.24023
 ,2.930967,0.541691\H,0,-1.285512,1.733553,1.448445\H,0,-0.875117,2.136
 851,-0.227844\H,0,-3.827881,2.187951,-1.280264\H,0,-2.478106,1.470216,
 -2.14513\H,0,-3.91604,0.480979,-1.752154\C,0,-2.548918,-0.520867,2.008
 202\H,0,-3.285954,0.030737,2.605136\H,0,-2.65763,-1.577483,2.261595\H,
 0,-1.555817,-0.196603,2.325389\C,0,-0.857516,-2.263611,0.366153\H,0,-1
 .720771,-2.905662,0.548585\H,0,-0.072354,-2.863539,-0.115179\H,0,-0.45
 0322,-1.891686,1.30553\C,0,-1.88876,-1.577558,-1.866225\H,0,-1.194339,
 -2.238977,-2.401395\H,0,-2.799871,-2.141221,-1.657435\H,0,-2.099455,-0
 .732145,-2.518574\\Version=ES64L-G16RevA.03\HF=-3034.4048082\S2=8.7617
 67\S2-1=0.\S2A=8.750043\RMSD=4.957e-09\PG=C01 [X(C8H16Cl3Fe1O1)]\\@


 Once you get people laughing, they're
 listening and you can tell them almost anything.
                                 -- Herb Gardner
 Job cpu time:       0 days  0 hours  4 minutes 44.9 seconds.
 Elapsed time:       0 days  0 hours  1 minutes 15.9 seconds.
 File lengths (MBytes):  RWF=    170 Int=      0 D2E=      0 Chk=     13 Scr=      1
 Normal termination of Gaussian 16 at Tue Feb 11 14:14:22 2020.
 Initial command:
 /n/sw/g16_nehalem/g16/l1.exe "/scratch/Gau-1765.inp" -scrdir="/scratch/"
 Entering Link 1 = /n/sw/g16_nehalem/g16/l1.exe PID=      5580.
  
 Copyright (c) 1988,1990,1992,1993,1995,1998,2003,2009,2016,
            Gaussian, Inc.  All Rights Reserved.
  
 This is part of the Gaussian(R) 16 program.  It is based on
 the Gaussian(R) 09 system (copyright 2009, Gaussian, Inc.),
 the Gaussian(R) 03 system (copyright 2003, Gaussian, Inc.),
 the Gaussian(R) 98 system (copyright 1998, Gaussian, Inc.),
 the Gaussian(R) 94 system (copyright 1995, Gaussian, Inc.),
 the Gaussian 92(TM) system (copyright 1992, Gaussian, Inc.),
 the Gaussian 90(TM) system (copyright 1990, Gaussian, Inc.),
 the Gaussian 88(TM) system (copyright 1988, Gaussian, Inc.),
 the Gaussian 86(TM) system (copyright 1986, Carnegie Mellon
 University), and the Gaussian 82(TM) system (copyright 1983,
 Carnegie Mellon University). Gaussian is a federally registered
 trademark of Gaussian, Inc.
  
 This software contains proprietary and confidential information,
 including trade secrets, belonging to Gaussian, Inc.
  
 This software is provided under written license and may be
 used, copied, transmitted, or stored only in accord with that
 written license.
  
 The following legend is applicable only to US Government
 contracts under FAR:
  
                    RESTRICTED RIGHTS LEGEND
  
 Use, reproduction and disclosure by the US Government is
 subject to restrictions as set forth in subparagraphs (a)
 and (c) of the Commercial Computer Software - Restricted
 Rights clause in FAR 52.227-19.
  
 Gaussian, Inc.
 340 Quinnipiac St., Bldg. 40, Wallingford CT 06492
  
  
 ---------------------------------------------------------------
 Warning -- This program may not be used in any manner that
 competes with the business of Gaussian, Inc. or will provide
 assistance to any competitor of Gaussian, Inc.  The licensee
 of this program is prohibited from giving any competitor of
 Gaussian, Inc. access to this program.  By using this program,
 the user acknowledges that Gaussian, Inc. is engaged in the
 business of creating and licensing software in the field of
 computational chemistry and represents and warrants to the
 licensee that it is not a competitor of Gaussian, Inc. and that
 it will not use this program in any manner prohibited above.
 ---------------------------------------------------------------
  

 Cite this work as:
 Gaussian 16, Revision A.03,
 M. J. Frisch, G. W. Trucks, H. B. Schlegel, G. E. Scuseria, 
 M. A. Robb, J. R. Cheeseman, G. Scalmani, V. Barone, 
 G. A. Petersson, H. Nakatsuji, X. Li, M. Caricato, A. V. Marenich, 
 J. Bloino, B. G. Janesko, R. Gomperts, B. Mennucci, H. P. Hratchian, 
 J. V. Ortiz, A. F. Izmaylov, J. L. Sonnenberg, D. Williams-Young, 
 F. Ding, F. Lipparini, F. Egidi, J. Goings, B. Peng, A. Petrone, 
 T. Henderson, D. Ranasinghe, V. G. Zakrzewski, J. Gao, N. Rega, 
 G. Zheng, W. Liang, M. Hada, M. Ehara, K. Toyota, R. Fukuda, 
 J. Hasegawa, M. Ishida, T. Nakajima, Y. Honda, O. Kitao, H. Nakai, 
 T. Vreven, K. Throssell, J. A. Montgomery, Jr., J. E. Peralta, 
 F. Ogliaro, M. J. Bearpark, J. J. Heyd, E. N. Brothers, K. N. Kudin, 
 V. N. Staroverov, T. A. Keith, R. Kobayashi, J. Normand, 
 K. Raghavachari, A. P. Rendell, J. C. Burant, S. S. Iyengar, 
 J. Tomasi, M. Cossi, J. M. Millam, M. Klene, C. Adamo, R. Cammi, 
 J. W. Ochterski, R. L. Martin, K. Morokuma, O. Farkas, 
 J. B. Foresman, and D. J. Fox, Gaussian, Inc., Wallingford CT, 2016.
 
 ******************************************
 Gaussian 16:  ES64L-G16RevA.03 25-Dec-2016
                11-Feb-2020 
 ******************************************
 %chk=checkpoint.chk
 %mem=3GB
 %nprocshared=4
 Will use up to    4 processors via shared memory.
 ----------------------------------------
 #t pop=none jul-cc-pvdz guess=read ub97d
 ----------------------------------------
 ------------------------
 theory_abbreviation b97d
 ------------------------
 Symbolic Z-matrix:
 Charge =  0 Multiplicity = 6
 O                    -0.27735  -0.2347   -0.77684 
 C                    -1.15672  -1.15281  -0.61217 
 C                    -2.81605  -0.2791    0.53816 
 C                    -2.61195   0.92569  -0.0746 
 C                    -3.24662   1.26327  -1.3885 
 Fe                    1.44829   0.14121  -0.01836 
 Cl                    2.00635   2.06147  -0.90422 
 C                    -1.70553   1.97513   0.47344 
 Cl                    2.66295  -1.58078  -0.62093 
 Cl                    1.18871   0.25385   2.17179 
 H                    -3.57088  -0.92583   0.09399 
 H                    -2.24023   2.93097   0.54169 
 H                    -1.28551   1.73355   1.44845 
 H                    -0.87512   2.13685  -0.22784 
 H                    -3.82788   2.18795  -1.28026 
 H                    -2.47811   1.47022  -2.14513 
 H                    -3.91604   0.48098  -1.75215 
 C                    -2.54892  -0.52087   2.0082 
 H                    -3.28595   0.03074   2.60514 
 H                    -2.65763  -1.57748   2.2616 
 H                    -1.55582  -0.1966    2.32539 
 C                    -0.85752  -2.26361   0.36615 
 H                    -1.72077  -2.90566   0.54859 
 H                    -0.07235  -2.86354  -0.11518 
 H                    -0.45032  -1.89169   1.30553 
 C                    -1.88876  -1.57756  -1.86623 
 H                    -1.19434  -2.23898  -2.4014 
 H                    -2.79987  -2.14122  -1.65744 
 H                    -2.09945  -0.73215  -2.51857 
 
                    Distance matrix (angstroms):
                    1          2          3          4          5
     1  O    0.000000
     2  C    1.281921   0.000000
     3  C    2.859404   2.200000   0.000000
     4  C    2.700001   2.593616   1.366990   0.000000
     5  C    3.381508   3.287522   2.505250   1.497692   0.000000
     6  Fe   1.922091   2.968693   4.320992   4.135712   5.017815
     7  Cl   3.240973   4.519055   5.551063   4.827728   5.335294
     8  C    2.913114   3.356144   2.513759   1.491057   2.519623
     9  Cl   3.237529   3.843578   5.749549   5.865615   6.603088
    10  Cl   3.329033   3.902582   4.357857   4.465722   5.776394
    11  H    3.476113   2.525543   1.088720   2.091920   2.663660
    12  H    3.951312   4.379794   3.261307   2.130520   2.742202
    13  H    3.137245   3.548772   2.687371   2.175259   3.480713
    14  H    2.506587   3.323982   3.192306   2.122964   2.781061
    15  H    4.327694   4.329218   3.227505   2.127298   1.097550
    16  H    3.101980   3.313049   3.220923   2.145111   1.098152
    17  H    3.834512   3.403334   2.652020   2.170852   1.091944
    18  C    3.605324   3.033793   1.513555   2.536649   3.899678
    19  H    4.534303   4.035525   2.142245   2.904519   4.179687
    20  H    4.086670   3.269800   2.163593   3.424296   4.662611
    21  H    3.355555   3.114938   2.188425   2.852180   4.333935
    22  C    2.399896   1.510138   2.793517   3.666603   4.607113
    23  H    3.312739   2.176695   2.845800   3.982694   4.843602
    24  H    2.718567   2.085533   3.825448   4.561742   5.359836
    25  H    2.666793   2.173131   2.964116   3.809861   5.003079
    26  C    2.363612   1.512931   2.885639   3.162149   3.184698
    27  H    2.738095   2.093446   3.887420   4.175970   4.183723
    28  H    3.282281   2.183918   2.878953   3.456391   3.444191
    29  H    2.569270   2.167971   3.172123   2.997345   2.564125
                    6          7          8          9         10
     6  Fe   0.000000
     7  Cl   2.187140   0.000000
     8  C    3.681263   3.960239   0.000000
     9  Cl   2.191741   3.711779   5.738093   0.000000
    10  Cl   2.208357   3.660315   3.771448   3.652200   0.000000
    11  H    5.132570   6.405149   3.469738   6.308781   5.325656
    12  H    4.658494   4.569481   1.097357   6.763777   4.645620
    13  H    3.487223   4.059426   1.088767   5.554947   2.972290
    14  H    3.069964   2.960748   1.098882   5.147152   3.682841
    15  H    5.798233   5.847706   2.761363   7.534514   6.389335
    16  H    4.658968   4.690392   2.776455   6.169456   5.793176
    17  H    5.647787   6.188024   3.474489   6.986673   6.442623
    18  C    4.530225   5.991756   3.049062   5.932900   3.820574
    19  H    5.413683   6.666930   3.289759   6.956574   4.501127
    20  H    5.001064   6.709477   4.089624   6.051241   4.261004
    21  H    3.825168   5.312092   2.858067   5.328669   2.785482
    22  C    3.353764   5.340588   4.324065   3.719445   3.712814
    23  H    4.432581   6.377653   4.881390   4.726530   4.591557
    24  H    3.369011   5.403636   5.140664   3.063192   4.066774
    25  H    3.080594   5.152249   4.149719   3.674285   2.835518
    26  C    4.183856   5.416625   4.257835   4.718986   5.397265
    27  H    4.281077   5.565945   5.126856   4.299064   5.727754
    28  H    5.093418   6.428816   4.762616   5.588456   6.025622
    29  H    4.427223   5.221880   4.054211   5.196318   5.812379
                   11         12         13         14         15
    11  H    0.000000
    12  H    4.104386   0.000000
    13  H    3.758963   1.779744   0.000000
    14  H    4.092771   1.756798   1.772292   0.000000
    15  H    3.413251   2.528286   3.757123   3.135126   0.000000
    16  H    3.456716   3.067472   3.795446   2.586496   1.756425
    17  H    2.346596   3.751334   4.328100   3.783206   1.773191
    18  C    2.207399   3.763124   2.644226   3.855512   4.448309
    19  H    2.702232   3.709808   2.870415   4.274766   4.477007
    20  H    2.440734   4.843389   3.675171   4.813620   5.300259
    21  H    3.093768   3.664928   2.137194   3.525246   4.883555
    22  C    3.037446   5.378322   4.163155   4.440406   5.599121
    23  H    2.747597   5.859703   4.745684   5.171548   5.807710
    24  H    4.004767   6.221532   5.004990   5.065671   6.401481
    25  H    3.484049   5.200500   3.722946   4.331374   5.893867
    26  C    2.663969   5.123318   4.723812   4.184328   4.275816
    27  H    3.687718   6.040196   5.532682   4.896335   5.271638
    28  H    2.266963   5.556658   5.191690   4.904111   4.465511
    29  H    3.004682   4.775294   4.741246   3.870089   3.612178
                   16         17         18         19         20
    16  H    0.000000
    17  H    1.789043   0.000000
    18  C    4.606473   4.124681   0.000000
    19  H    5.028891   4.425574   1.097187   0.000000
    20  H    5.360963   4.683059   1.092000   1.760450   0.000000
    21  H    4.859469   4.759845   1.091790   1.767291   1.767736
    22  C    4.782710   4.623264   2.931607   4.021740   2.702570
    23  H    5.194032   4.645637   2.916086   3.911731   2.361391
    24  H    5.356284   5.351580   4.016246   5.109224   3.739873
    25  H    5.226983   5.195207   2.603267   3.664082   2.425900
    26  C    3.116736   2.891444   4.069839   4.952962   4.198816
[...]
 ---------------------------------------------------------------------
 Rotational constants (GHZ):           0.5782760           0.3332435           0.3132424
   427 basis functions,  1056 primitive gaussians,   461 cartesian basis functions
    77 alpha electrons       72 beta electrons
       nuclear repulsion energy      1640.3265488159 Hartrees.
 NAtoms=   29 NActive=   29 NUniq=   29 SFac= 1.00D+00 NAtFMM=   60 NAOKFM=F Big=F
 Nuclear repulsion after empirical dispersion term =     1640.3241003124 Hartrees.
 Initial guess from the checkpoint file:  "checkpoint.chk"
 B after Tr=     0.000000    0.000000    0.000000
         Rot=    1.000000    0.000000    0.000000    0.000000 Ang=   0.00 deg.
 Initial guess <Sx>= 0.0000 <Sy>= 0.0000 <Sz>= 2.5000 <S**2>= 8.7615 S= 2.5019
 SCF Done:  E(UM06L) =  -3034.20264559     A.U. after   18 cycles
            NFock= 18  Conv=0.23D-08     -V/T= 2.0020
 <Sx>= 0.0000 <Sy>= 0.0000 <Sz>= 2.5000 <S**2>= 8.7615 S= 2.5019
 <L.S>= 0.000000000000E+00
 Annihilation of the first spin contaminant:
 S**2 before annihilation     8.7615,   after     8.7500
 1\1\GINC-HOLY7C04203\SP\UM06L\Jul-CC-pVDZ\C8H16Cl3Fe1O1(6)\EKWAN\11-Fe
 b-2020\0\\#t pop=none jul-cc-pvdz guess=read um06l empiricaldispersion
 =gd3\\theory_abbreviation m06l_d3\\0,6\O,0,-0.277352,-0.234701,-0.7768
 4\C,0,-1.156718,-1.152807,-0.612167\C,0,-2.816054,-0.279101,0.538156\C
 ,0,-2.611951,0.925694,-0.074603\C,0,-3.246622,1.263267,-1.388497\Fe,0,
 1.448287,0.141209,-0.018358\Cl,0,2.006351,2.061466,-0.904224\C,0,-1.70
 5533,1.975126,0.473438\Cl,0,2.662949,-1.580776,-0.62093\Cl,0,1.188706,
 0.253852,2.171795\H,0,-3.570883,-0.925834,0.093992\H,0,-2.24023,2.9309
 67,0.541691\H,0,-1.285512,1.733553,1.448445\H,0,-0.875117,2.136851,-0.
 227844\H,0,-3.827881,2.187951,-1.280264\H,0,-2.478106,1.470216,-2.1451
 3\H,0,-3.91604,0.480979,-1.752154\C,0,-2.548918,-0.520867,2.008202\H,0
 ,-3.285954,0.030737,2.605136\H,0,-2.65763,-1.577483,2.261595\H,0,-1.55
 5817,-0.196603,2.325389\C,0,-0.857516,-2.263611,0.366153\H,0,-1.720771
 ,-2.905662,0.548585\H,0,-0.072354,-2.863539,-0.115179\H,0,-0.450322,-1
 .891686,1.30553\C,0,-1.88876,-1.577558,-1.866225\H,0,-1.194339,-2.2389
 77,-2.401395\H,0,-2.799871,-2.141221,-1.657435\H,0,-2.099455,-0.732145
 ,-2.518574\\Version=ES64L-G16RevA.03\HF=-3034.2026456\S2=8.761541\S2-1
 =0.\S2A=8.750043\RMSD=2.344e-09\PG=C01 [X(C8H16Cl3Fe1O1)]\\@


 HAPPINESS IS NOT HAVING WHAT YOU WANT --
 HAPPINESS IS WANTING WHAT YOU HAVE!

              -- FROM MRS. SEVERN'S DESK
 Job cpu time:       0 days  1 hours 17 minutes 53.2 seconds.
 Elapsed time:       0 days  0 hours 19 minutes 39.3 seconds.
 File lengths (MBytes):  RWF=    174 Int=      0 D2E=      0 Chk=     13 Scr=      1
 Normal termination of Gaussian 16 at Tue Feb 11 23:42:20 2020.
 Initial command:
 /n/sw/g16_nehalem/g16/l1.exe "/scratch/Gau-1765.inp" -scrdir="/scratch/"
 Entering Link 1 = /n/sw/g16_nehalem/g16/l1.exe PID=     64358.
  
 Copyright (c) 1988,1990,1992,1993,1995,1998,2003,2009,2016,
            Gaussian, Inc.  All Rights Reserved.
  
 This is part of the Gaussian(R) 16 program.  It is based on
 the Gaussian(R) 09 system (copyright 2009, Gaussian, Inc.),
 the Gaussian(R) 03 system (copyright 2003, Gaussian, Inc.),
 the Gaussian(R) 98 system (copyright 1998, Gaussian, Inc.),
 the Gaussian(R) 94 system (copyright 1995, Gaussian, Inc.),
 the Gaussian 92(TM) system (copyright 1992, Gaussian, Inc.),
 the Gaussian 90(TM) system (copyright 1990, Gaussian, Inc.),
 the Gaussian 88(TM) system (copyright 1988, Gaussian, Inc.),
 the Gaussian 86(TM) system (copyright 1986, Carnegie Mellon
 University), and the Gaussian 82(TM) system (copyright 1983,
 Carnegie Mellon University). Gaussian is a federally registered
 trademark of Gaussian, Inc.
  
 This software contains proprietary and confidential information,
 including trade secrets, belonging to Gaussian, Inc.
  
 This software is provided under written license and may be
 used, copied, transmitted, or stored only in accord with that
 written license.
  
 The following legend is applicable only to US Government
 contracts under FAR:
  
                    RESTRICTED RIGHTS LEGEND
  
 Use, reproduction and disclosure by the US Government is
 subject to restrictions as set forth in subparagraphs (a)
 and (c) of the Commercial Computer Software - Restricted
 Rights clause in FAR 52.227-19.
  
 Gaussian, Inc.
 340 Quinnipiac St., Bldg. 40, Wallingford CT 06492
  
  
 ---------------------------------------------------------------
 Warning -- This program may not be used in any manner that
 competes with the business of Gaussian, Inc. or will provide
 assistance to any competitor of Gaussian, Inc.  The licensee
 of this program is prohibited from giving any competitor of
 Gaussian, Inc. access to this program.  By using this program,
 the user acknowledges that Gaussian, Inc. is engaged in the
 business of creating and licensing software in the field of
 computational chemistry and represents and warrants to the
 licensee that it is not a competitor of Gaussian, Inc. and that
 it will not use this program in any manner prohibited above.
 ---------------------------------------------------------------
  

 Cite this work as:
 Gaussian 16, Revision A.03,
 M. J. Frisch, G. W. Trucks, H. B. Schlegel, G. E. Scuseria, 
 M. A. Robb, J. R. Cheeseman, G. Scalmani, V. Barone, 
 G. A. Petersson, H. Nakatsuji, X. Li, M. Caricato, A. V. Marenich, 
 J. Bloino, B. G. Janesko, R. Gomperts, B. Mennucci, H. P. Hratchian, 
 J. V. Ortiz, A. F. Izmaylov, J. L. Sonnenberg, D. Williams-Young, 
 F. Ding, F. Lipparini, F. Egidi, J. Goings, B. Peng, A. Petrone, 
 T. Henderson, D. Ranasinghe, V. G. Zakrzewski, J. Gao, N. Rega, 
 G. Zheng, W. Liang, M. Hada, M. Ehara, K. Toyota, R. Fukuda, 
 J. Hasegawa, M. Ishida, T. Nakajima, Y. Honda, O. Kitao, H. Nakai, 
 T. Vreven, K. Throssell, J. A. Montgomery, Jr., J. E. Peralta, 
 F. Ogliaro, M. J. Bearpark, J. J. Heyd, E. N. Brothers, K. N. Kudin, 
 V. N. Staroverov, T. A. Keith, R. Kobayashi, J. Normand, 
 K. Raghavachari, A. P. Rendell, J. C. Burant, S. S. Iyengar, 
 J. Tomasi, M. Cossi, J. M. Millam, M. Klene, C. Adamo, R. Cammi, 
 J. W. Ochterski, R. L. Martin, K. Morokuma, O. Farkas, 
 J. B. Foresman, and D. J. Fox, Gaussian, Inc., Wallingford CT, 2016.
 
 ******************************************
 Gaussian 16:  ES64L-G16RevA.03 25-Dec-2016
                11-Feb-2020 
 ******************************************
 %chk=checkpoint.chk
 %mem=3GB
 %nprocshared=4
 Will use up to    4 processors via shared memory.
 -------------------------------------------------------------------
 #t pop=none jul-cc-pvdz guess=read ub97d3 empiricaldispersion=gd3bj
 -------------------------------------------------------------------
 ------------------------------
 theory_abbreviation b97d3_d3bj
 ------------------------------
 Symbolic Z-matrix:
 Charge =  0 Multiplicity = 6
 O                    -0.27735  -0.2347   -0.77684 
 C                    -1.15672  -1.15281  -0.61217 
 C                    -2.81605  -0.2791    0.53816 
 C                    -2.61195   0.92569  -0.0746 
 C                    -3.24662   1.26327  -1.3885 
 Fe                    1.44829   0.14121  -0.01836 
 Cl                    2.00635   2.06147  -0.90422 
 C                    -1.70553   1.97513   0.47344 
 Cl                    2.66295  -1.58078  -0.62093 
 Cl                    1.18871   0.25385   2.17179 
 H                    -3.57088  -0.92583   0.09399 
 H                    -2.24023   2.93097   0.54169 
 H                    -1.28551   1.73355   1.44845 
 H                    -0.87512   2.13685  -0.22784 
 H                    -3.82788   2.18795  -1.28026 
 H                    -2.47811   1.47022  -2.14513 
 H                    -3.91604   0.48098  -1.75215 
 C                    -2.54892  -0.52087   2.0082 
 H                    -3.28595   0.03074   2.60514 
 H                    -2.65763  -1.57748   2.2616 
 H                    -1.55582  -0.1966    2.32539 
 C                    -0.85752  -2.26361   0.36615 
 H                    -1.72077  -2.90566   0.54859 
 H                    -0.07235  -2.86354  -0.11518 
 H                    -0.45032  -1.89169   1.30553 
 C                    -1.88876  -1.57756  -1.86623 
 H                    -1.19434  -2.23898  -2.4014 
 H                    -2.79987  -2.14122  -1.65744 
 H                    -2.09945  -0.73215  -2.51857 
 
                    Distance matrix (angstroms):
                    1          2          3          4          5
     1  O    0.000000
     2  C    1.281921   0.000000
     3  C    2.859404   2.200000   0.000000
     4  C    2.700001   2.593616   1.366990   0.000000
     5  C    3.381508   3.287522   2.505250   1.497692   0.000000
     6  Fe   1.922091   2.968693   4.320992   4.135712   5.017815
     7  Cl   3.240973   4.519055   5.551063   4.827728   5.335294
     8  C    2.913114   3.356144   2.513759   1.491057   2.519623
     9  Cl   3.237529   3.843578   5.749549   5.865615   6.603088
    10  Cl   3.329033   3.902582   4.357857   4.465722   5.776394
    11  H    3.476113   2.525543   1.088720   2.091920   2.663660
    12  H    3.951312   4.379794   3.261307   2.130520   2.742202
    13  H    3.137245   3.548772   2.687371   2.175259   3.480713
    14  H    2.506587   3.323982   3.192306   2.122964   2.781061
    15  H    4.327694   4.329218   3.227505   2.127298   1.097550
    16  H    3.101980   3.313049   3.220923   2.145111   1.098152
    17  H    3.834512   3.403334   2.652020   2.170852   1.091944
    18  C    3.605324   3.033793   1.513555   2.536649   3.899678
    19  H    4.534303   4.035525   2.142245   2.904519   4.179687
    20  H    4.086670   3.269800   2.163593   3.424296   4.662611
    21  H    3.355555   3.114938   2.188425   2.852180   4.333935
    22  C    2.399896   1.510138   2.793517   3.666603   4.607113
    23  H    3.312739   2.176695   2.845800   3.982694   4.843602
    24  H    2.718567   2.085533   3.825448   4.561742   5.359836
    25  H    2.666793   2.173131   2.964116   3.809861   5.003079
    26  C    2.363612   1.512931   2.885639   3.162149   3.184698
    27  H    2.738095   2.093446   3.887420   4.175970   4.183723
    28  H    3.282281   2.183918   2.878953   3.456391   3.444191
    29  H    2.569270   2.167971   3.172123   2.997345   2.564125
                    6          7          8          9         10
     6  Fe   0.000000
     7  Cl   2.187140   0.000000
     8  C    3.681263   3.960239   0.000000
     9  Cl   2.191741   3.711779   5.738093   0.000000
    10  Cl   2.208357   3.660315   3.771448   3.652200   0.000000
    11  H    5.132570   6.405149   3.469738   6.308781   5.325656
    12  H    4.658494   4.569481   1.097357   6.763777   4.645620
    13  H    3.487223   4.059426   1.088767   5.554947   2.972290
    14  H    3.069964   2.960748   1.098882   5.147152   3.682841
    15  H    5.798233   5.847706   2.761363   7.534514   6.389335
    16  H    4.658968   4.690392   2.776455   6.169456   5.793176
    17  H    5.647787   6.188024   3.474489   6.986673   6.442623
    18  C    4.530225   5.991756   3.049062   5.932900   3.820574
    19  H    5.413683   6.666930   3.289759   6.956574   4.501127
    20  H    5.001064   6.709477   4.089624   6.051241   4.261004
    21  H    3.825168   5.312092   2.858067   5.328669   2.785482
    22  C    3.353764   5.340588   4.324065   3.719445   3.712814
    23  H    4.432581   6.377653   4.881390   4.726530   4.591557
    24  H    3.369011   5.403636   5.140664   3.063192   4.066774
    25  H    3.080594   5.152249   4.149719   3.674285   2.835518
    26  C    4.183856   5.416625   4.257835   4.718986   5.397265
    27  H    4.281077   5.565945   5.126856   4.299064   5.727754
    28  H    5.093418   6.428816   4.762616   5.588456   6.025622
    29  H    4.427223   5.221880   4.054211   5.196318   5.812379
                   11         12         13         14         15
    11  H    0.000000
    12  H    4.104386   0.000000
    13  H    3.758963   1.779744   0.000000
    14  H    4.092771   1.756798   1.772292   0.000000
    15  H    3.413251   2.528286   3.757123   3.135126   0.000000
    16  H    3.456716   3.067472   3.795446   2.586496   1.756425
    17  H    2.346596   3.751334   4.328100   3.783206   1.773191
    18  C    2.207399   3.763124   2.644226   3.855512   4.448309
    19  H    2.702232   3.709808   2.870415   4.274766   4.477007
    20  H    2.440734   4.843389   3.675171   4.813620   5.300259
    21  H    3.093768   3.664928   2.137194   3.525246   4.883555
    22  C    3.037446   5.378322   4.163155   4.440406   5.599121
    23  H    2.747597   5.859703   4.745684   5.171548   5.807710
    24  H    4.004767   6.221532   5.004990   5.065671   6.401481
    25  H    3.484049   5.200500   3.722946   4.331374   5.893867
    26  C    2.663969   5.123318   4.723812   4.184328   4.275816
    27  H    3.687718   6.040196   5.532682   4.896335   5.271638
    28  H    2.266963   5.556658   5.191690   4.904111   4.465511
    29  H    3.004682   4.775294   4.741246   3.870089   3.612178
                   16         17         18         19         20
    16  H    0.000000
    17  H    1.789043   0.000000
    18  C    4.606473   4.124681   0.000000
    19  H    5.028891   4.425574   1.097187   0.000000
    20  H    5.360963   4.683059   1.092000   1.760450   0.000000
    21  H    4.859469   4.759845   1.091790   1.767291   1.767736
    22  C    4.782710   4.623264   2.931607   4.021740   2.702570
    23  H    5.194032   4.645637   2.916086   3.911731   2.361391
    24  H    5.356284   5.351580   4.016246   5.109224   3.739873
    25  H    5.226983   5.195207   2.603267   3.664082   2.425900
    26  C    3.116736   2.891444   4.069839   4.952962   4.198816
    27  H    3.933426   3.902221   4.922533   5.881480   4.931761
    28  H    3.658395   2.851445   4.015647   4.808658   3.961922
    29  H    2.265663   2.314962   4.553939   5.314337   4.886325
                   21         22         23         24         25
    21  H    0.000000
    22  C    2.932363   0.000000
    23  H    3.243955   1.091201   0.000000
    24  H    3.907631   1.099124   1.777536   0.000000
    25  H    2.266173   1.089295   1.793085   1.762320   0.000000
    26  C    4.425779   2.552968   2.761048   2.831826   3.496829
    27  H    5.161826   2.788078   3.069850   2.622158   3.796770
    28  H    4.603487   2.807602   2.572032   3.215532   3.789698
    29  H    4.903705   3.494202   3.778233   3.798458   4.322956
                   26         27         28         29
    26  C    0.000000
    27  H    1.098227   0.000000
    28  H    1.091528   1.772221   0.000000
    29  H    1.088428   1.761678   1.793778   0.000000
 Framework group  C1[X(C8H16Cl3FeO)]
 Deg. of freedom    81
                         Standard orientation:                         
 ---------------------------------------------------------------------
 Center     Atomic      Atomic             Coordinates (Angstroms)
 Number     Number       Type             X           Y           Z
 ---------------------------------------------------------------------
      1          8           0       -0.277352   -0.234701   -0.776840
      2          6           0       -1.156718   -1.152807   -0.612167
      3          6           0       -2.816054   -0.279101    0.538156
      4          6           0       -2.611951    0.925694   -0.074603
      5          6           0       -3.246622    1.263267   -1.388497
      6         26           0        1.448287    0.141209   -0.018358
      7         17           0        2.006351    2.061466   -0.904224
      8          6           0       -1.705533    1.975126    0.473438
      9         17           0        2.662949   -1.580776   -0.620930
     10         17           0        1.188706    0.253852    2.171795
     11          1           0       -3.570883   -0.925834    0.093992
     12          1           0       -2.240230    2.930967    0.541691
     13          1           0       -1.285512    1.733553    1.448445
     14          1           0       -0.875117    2.136851   -0.227844
     15          1           0       -3.827881    2.187951   -1.280264
     16          1           0       -2.478106    1.470216   -2.145130
     17          1           0       -3.916040    0.480979   -1.752154
     18          6           0       -2.548918   -0.520867    2.008202
     19          1           0       -3.285954    0.030737    2.605136
     20          1           0       -2.657630   -1.577483    2.261595
     21          1           0       -1.555817   -0.196603    2.325389
     22          6           0       -0.857516   -2.263611    0.366153
     23          1           0       -1.720771   -2.905662    0.548585
     24          1           0       -0.072354   -2.863539   -0.115179
     25          1           0       -0.450322   -1.891686    1.305530
     26          6           0       -1.888760   -1.577558   -1.866225
     27          1           0       -1.194339   -2.238977   -2.401395
     28          1           0       -2.799871   -2.141221   -1.657435
     29          1           0       -2.099455   -0.732145   -2.518574
 ---------------------------------------------------------------------
 Rotational constants (GHZ):           0.5782760           0.3332435           0.3132424
   427 basis functions,  1056 primitive gaussians,   461 cartesian basis functions
    77 alpha electrons       72 beta electrons
       nuclear repulsion energy      1640.3265488159 Hartrees.
 NAtoms=   29 NActive=   29 NUniq=   29 SFac= 1.00D+00 NAtFMM=   60 NAOKFM=F Big=F
 Nuclear repulsion after empirical dispersion term =     1640.2237373319 Hartrees.
 Initial guess from the checkpoint file:  "checkpoint.chk"
 B after Tr=     0.000000    0.000000    0.000000
         Rot=    1.000000    0.000000    0.000000    0.000000 Ang=   0.00 deg.
 Initial guess <Sx>= 0.0000 <Sy>= 0.0000 <Sz>= 2.5000 <S**2>= 8.7615 S= 2.5019
 EnCoef did   100 forward-backward iterations
 SCF Done:  E(UB97D3) =  -3034.62525165     A.U. after   15 cycles
            NFock= 15  Conv=0.72D-08     -V/T= 2.0019
 <Sx>= 0.0000 <Sy>= 0.0000 <Sz>= 2.5000 <S**2>= 8.7596 S= 2.5016
 <L.S>= 0.000000000000E+00
 Annihilation of the first spin contaminant:
 S**2 before annihilation     8.7596,   after     8.7500
 1\1\GINC-HOLY7C04203\SP\UB97D3\Jul-CC-pVDZ\C8H16Cl3Fe1O1(6)\EKWAN\11-F
 eb-2020\0\\#t pop=none jul-cc-pvdz guess=read ub97d3 empiricaldispersi
 on=gd3bj\\theory_abbreviation b97d3_d3bj\\0,6\O,0,-0.277352,-0.234701,
 -0.77684\C,0,-1.156718,-1.152807,-0.612167\C,0,-2.816054,-0.279101,0.5
 38156\C,0,-2.611951,0.925694,-0.074603\C,0,-3.246622,1.263267,-1.38849
 7\Fe,0,1.448287,0.141209,-0.018358\Cl,0,2.006351,2.061466,-0.904224\C,
 0,-1.705533,1.975126,0.473438\Cl,0,2.662949,-1.580776,-0.62093\Cl,0,1.
 188706,0.253852,2.171795\H,0,-3.570883,-0.925834,0.093992\H,0,-2.24023
 ,2.930967,0.541691\H,0,-1.285512,1.733553,1.448445\H,0,-0.875117,2.136
 851,-0.227844\H,0,-3.827881,2.187951,-1.280264\H,0,-2.478106,1.470216,
 -2.14513\H,0,-3.91604,0.480979,-1.752154\C,0,-2.548918,-0.520867,2.008
 202\H,0,-3.285954,0.030737,2.605136\H,0,-2.65763,-1.577483,2.261595\H,
 0,-1.555817,-0.196603,2.325389\C,0,-0.857516,-2.263611,0.366153\H,0,-1
 .720771,-2.905662,0.548585\H,0,-0.072354,-2.863539,-0.115179\H,0,-0.45
 0322,-1.891686,1.30553\C,0,-1.88876,-1.577558,-1.866225\H,0,-1.194339,
 -2.238977,-2.401395\H,0,-2.799871,-2.141221,-1.657435\H,0,-2.099455,-0
 .732145,-2.518574\\Version=ES64L-G16RevA.03\HF=-3034.6252516\S2=8.7595
 81\S2-1=0.\S2A=8.750029\RMSD=7.210e-09\PG=C01 [X(C8H16Cl3Fe1O1)]\\@


 I HAVE NOT FAILED, I HAVE ONLY DISCOVERED 10,000
 WAYS THAT DIDN'T WORK.  -- THOMAS A. EDISON
 Job cpu time:       0 days  0 hours 47 minutes 23.5 seconds.
 Elapsed time:       0 days  0 hours 12 minutes 16.9 seconds.
 File lengths (MBytes):  RWF=    174 Int=      0 D2E=      0 Chk=     13 Scr=      1
 Normal termination of Gaussian 16 at Tue Feb 11 23:54:38 2020.
