 Entering Gaussian System, Link 0=g16
 Input=simple-grid-185-220-b3lyp_d3bj-631gd-gas-singlepoint-DFT-juldz2-gas.gjf
 Output=simple-grid-185-220-b3lyp_d3bj-631gd-gas-singlepoint-DFT-juldz2-gas.out
 Initial command:
 /n/sw/g16_nehalem/g16/l1.exe "/scratch/Gau-132040.inp" -scrdir="/scratch/"
 Entering Link 1 = /n/sw/g16_nehalem/g16/l1.exe PID=    132048.
  
 Copyright (c) 1988,1990,1992,1993,1995,1998,2003,2009,2016,
            Gaussian, Inc.  All Rights Reserved.
  
 This is part of the Gaussian(R) 16 program.  It is based on
 the Gaussian(R) 09 system (copyright 2009, Gaussian, Inc.),
 the Gaussian(R) 03 system (copyright 2003, Gaussian, Inc.),
 the Gaussian(R) 98 system (copyright 1998, Gaussian, Inc.),
 the Gaussian(R) 94 system (copyright 1995, Gaussian, Inc.),
 the Gaussian 92(TM) system (copyright 1992, Gaussian, Inc.),
 the Gaussian 90(TM) system (copyright 1990, Gaussian, Inc.),
 the Gaussian 88(TM) system (copyright 1988, Gaussian, Inc.),
 the Gaussian 86(TM) system (copyright 1986, Carnegie Mellon
 University), and the Gaussian 82(TM) system (copyright 1983,
 Carnegie Mellon University). Gaussian is a federally registered
 trademark of Gaussian, Inc.
  
 This software contains proprietary and confidential information,
 including trade secrets, belonging to Gaussian, Inc.
  
 This software is provided under written license and may be
 used, copied, transmitted, or stored only in accord with that
 written license.
  
 The following legend is applicable only to US Government
 contracts under FAR:
  
                    RESTRICTED RIGHTS LEGEND
  
 Use, reproduction and disclosure by the US Government is
 subject to restrictions as set forth in subparagraphs (a)
 and (c) of the Commercial Computer Software - Restricted
 Rights clause in FAR 52.227-19.
  
 Gaussian, Inc.
 340 Quinnipiac St., Bldg. 40, Wallingford CT 06492
  
  
 ---------------------------------------------------------------
 Warning -- This program may not be used in any manner that
 competes with the business of Gaussian, Inc. or will provide
 assistance to any competitor of Gaussian, Inc.  The licensee
 of this program is prohibited from giving any competitor of
 Gaussian, Inc. access to this program.  By using this program,
 the user acknowledges that Gaussian, Inc. is engaged in the
 business of creating and licensing software in the field of
 computational chemistry and represents and warrants to the
 licensee that it is not a competitor of Gaussian, Inc. and that
 it will not use this program in any manner prohibited above.
 ---------------------------------------------------------------
  

 Cite this work as:
 Gaussian 16, Revision A.03,
 M. J. Frisch, G. W. Trucks, H. B. Schlegel, G. E. Scuseria, 
 M. A. Robb, J. R. Cheeseman, G. Scalmani, V. Barone, 
 G. A. Petersson, H. Nakatsuji, X. Li, M. Caricato, A. V. Marenich, 
 J. Bloino, B. G. Janesko, R. Gomperts, B. Mennucci, H. P. Hratchian, 
 J. V. Ortiz, A. F. Izmaylov, J. L. Sonnenberg, D. Williams-Young, 
 F. Ding, F. Lipparini, F. Egidi, J. Goings, B. Peng, A. Petrone, 
 T. Henderson, D. Ranasinghe, V. G. Zakrzewski, J. Gao, N. Rega, 
 G. Zheng, W. Liang, M. Hada, M. Ehara, K. Toyota, R. Fukuda, 
 J. Hasegawa, M. Ishida, T. Nakajima, Y. Honda, O. Kitao, H. Nakai, 
 T. Vreven, K. Throssell, J. A. Montgomery, Jr., J. E. Peralta, 
 F. Ogliaro, M. J. Bearpark, J. J. Heyd, E. N. Brothers, K. N. Kudin, 
 V. N. Staroverov, T. A. Keith, R. Kobayashi, J. Normand, 
 K. Raghavachari, A. P. Rendell, J. C. Burant, S. S. Iyengar, 
 J. Tomasi, M. Cossi, J. M. Millam, M. Klene, C. Adamo, R. Cammi, 
 J. W. Ochterski, R. L. Martin, K. Morokuma, O. Farkas, 
 J. B. Foresman, and D. J. Fox, Gaussian, Inc., Wallingford CT, 2016.
 
 ******************************************
 Gaussian 16:  ES64L-G16RevA.03 25-Dec-2016
                11-Feb-2020 
 ******************************************
 %chk=checkpoint.chk
 %mem=3GB
 %nprocshared=4
 Will use up to    4 processors via shared memory.
 --------------------------------
 #t pop=none jul-cc-pvdz upbe1pbe
 --------------------------------
 ------------------------
 theory_abbreviation pbe0
 ------------------------
 Symbolic Z-matrix:
 Charge =  0 Multiplicity = 6
 O                    -0.35093  -0.2093   -0.56639 
 C                    -1.36295  -1.16112  -0.43498 
 C                    -2.85689  -0.11398  -0.12814 
 C                    -2.08301   1.10981  -0.25039 
 C                    -1.94942   1.78945  -1.5586 
 Fe                    1.38793   0.04342   0.03444 
 Cl                    1.80687   2.06426  -0.78829 
 C                    -1.57453   1.82331   0.94155 
 Cl                    2.59895  -1.62891  -0.71718 
 Cl                    1.2952    0.09722   2.25717 
 H                    -3.48598  -0.28322  -1.00308 
 H                    -2.41996   2.4155    1.33097 
 H                    -1.25901   1.14622   1.73703 
 H                    -0.75679   2.50167   0.69195 
 H                    -2.63539   2.65282  -1.53488 
 H                    -0.93452   2.17727  -1.68863 
 H                    -2.23179   1.15156  -2.39696 
 C                    -3.57963  -0.41103   1.17386 
 H                    -4.41404   0.2848    1.32411 
 H                    -3.99723  -1.42113   1.14545 
 H                    -2.92571  -0.34549   2.04596 
 C                    -1.15856  -2.09332   0.73678 
 H                    -1.99064  -2.79264   0.85515 
 H                    -0.24887  -2.67271   0.53052 
 H                    -0.98974  -1.55043   1.66799 
 C                    -1.60142  -1.87598  -1.74883 
 H                    -0.69044  -2.43782  -1.98944 
 H                    -2.44347  -2.57246  -1.68592 
 H                    -1.77402  -1.16496  -2.56094 
 
                    Distance matrix (angstroms):
                    1          2          3          4          5
     1  O    0.000000
     2  C    1.395495   0.000000
     3  C    2.545777   1.849999   0.000000
     4  C    2.200002   2.389495   1.453108   0.000000
     5  C    2.744938   3.211281   2.548093   1.480257   0.000000
     6  Fe   1.857017   3.039514   4.250853   3.642217   4.089540
     7  Cl   3.142364   4.536043   5.189533   4.041222   3.844299
     8  C    2.811148   3.293386   2.557692   1.479304   2.528324
     9  Cl   3.277164   3.999390   5.692816   5.444189   5.751593
    10  Cl   3.282705   3.987084   4.793137   4.327294   5.286898
    11  H    3.166179   2.366574   1.090829   2.115521   2.639243
    12  H    3.843237   4.126509   2.952663   2.078239   2.993825
    13  H    2.822721   3.170525   2.760471   2.151775   3.428058
    14  H    3.016205   3.879873   3.453205   2.141058   2.644733
    15  H    3.787943   4.168336   3.111781   2.082285   1.102964
    16  H    2.701064   3.591662   3.373498   2.127678   1.094230
    17  H    2.956453   3.154796   2.672058   2.152126   1.090639
    18  C    3.673366   2.839832   1.518483   2.565409   3.868594
    19  H    4.508541   3.807123   2.166278   2.931454   4.080239
    20  H    4.206469   3.082981   2.151983   3.466742   4.670463
    21  H    3.670478   3.043443   2.187479   2.846280   4.301627
    22  C    2.428998   1.511227   2.747764   3.476952   4.579320
    23  H    3.373874   2.172623   2.982027   4.057084   5.179138
    24  H    2.698518   2.111466   3.712508   4.275675   5.212217
    25  H    2.683114   2.171020   2.962385   3.457210   4.742009
    26  C    2.395766   1.514626   2.703235   3.375234   3.686824
    27  H    2.665828   2.120985   3.682140   4.189182   4.431760
    28  H    3.349115   2.173533   2.939674   3.968601   4.391643
    29  H    2.629959   2.165334   2.862803   3.257095   3.124736
                    6          7          8          9         10
     6  Fe   0.000000
     7  Cl   2.221755   0.000000
     8  C    3.573095   3.805821   0.000000
     9  Cl   2.197313   3.777821   5.664546   0.000000
    10  Cl   2.225309   3.661407   3.597996   3.677777   0.000000
    11  H    4.993812   5.794057   3.445678   6.238503   5.799448
    12  H    4.669885   4.741394   1.103226   6.763259   4.476013
    13  H    3.334854   4.076724   1.091235   5.348673   2.809789
    14  H    3.327929   2.992458   1.091407   5.505295   3.527309
    15  H    5.045681   4.542855   2.818902   6.811767   6.029948
    16  H    3.593894   2.887663   2.729966   5.283569   4.986738
    17  H    4.499126   4.442035   3.468269   5.821404   5.933991
    18  C    5.116780   6.244315   3.011088   6.575261   5.019540
    19  H    5.948476   6.806503   3.252108   7.550570   5.788019
    20  H    5.690274   7.040945   4.054312   6.857267   5.617037
    21  H    4.775458   6.019740   2.783725   6.309041   4.249315
    22  C    3.397583   5.329646   3.943976   4.055680   3.623667
    23  H    4.486819   6.380555   4.635476   4.989065   4.594962
    24  H    3.209765   5.329563   4.705372   3.279686   3.610814
    25  H    3.295773   5.188476   3.500254   4.309737   2.877982
    26  C    3.974967   5.297598   4.574229   4.332250   5.322772
    27  H    3.817368   5.286593   5.246857   3.618431   5.329432
    28  H    4.947941   6.353762   5.194361   5.220605   6.054152
    29  H    4.265455   5.137402   4.608351   4.768387   5.850410
                   11         12         13         14         15
    11  H    0.000000
    12  H    3.723886   0.000000
    13  H    3.809317   1.767421   0.000000
    14  H    4.251735   1.783796   1.783718   0.000000
    15  H    3.102689   2.883720   3.856120   2.917326   0.000000
    16  H    3.610259   3.373617   3.592141   2.409145   1.772784
    17  H    2.361037   3.940872   4.246907   3.679652   1.777603
    18  C    2.182698   3.059211   2.850867   4.084661   4.197144
    19  H    2.568997   2.918270   3.296479   4.323152   4.116424
    20  H    2.484426   4.152342   3.799883   5.108275   5.063184
    21  H    3.100716   2.896562   2.257994   3.826733   4.679379
    22  C    3.423514   4.719501   3.391931   4.612738   5.465104
    23  H    3.462115   5.247431   4.102150   5.438635   5.981725
    24  H    4.305863   5.589661   4.130409   5.201754   6.190532
    25  H    3.869319   4.229387   2.710934   4.174489   5.534784
    26  C    2.577709   5.345280   4.626243   5.082775   4.650260
    27  H    3.664726   6.129530   5.201457   5.620748   5.468467
    28  H    2.606467   5.829402   5.191153   5.852000   5.230982
    29  H    2.476927   5.327653   4.907062   5.006014   4.046011
                   16         17         18         19         20
    16  H    0.000000
    17  H    1.799098   0.000000
    18  C    4.678646   4.124210   0.000000
    19  H    4.976456   4.399983   1.096807   0.000000
    20  H    5.510053   4.720610   1.093393   1.765171   0.000000
    21  H    4.927104   4.739438   1.091999   1.770155   1.765243
    22  C    4.916378   4.636965   2.980389   4.074130   2.945658
    23  H    5.682098   5.117726   2.880724   3.945053   2.447805
    24  H    5.377460   5.208378   4.077138   5.169649   3.999351
    25  H    5.016537   5.036592   2.872269   3.900275   3.055290
    26  C    4.108189   3.159658   3.821194   4.692839   3.784660
    27  H    4.631324   3.927533   4.739382   5.679560   4.668619
    28  H    4.983659   3.797193   3.760449   4.594268   3.428755
    29  H    3.554741   2.367002   4.216316   4.915795   4.329613
                   21         22         23         24         25
    21  H    0.000000
    22  C    2.809217   0.000000
    23  H    2.877669   1.093350   0.000000
    24  H    3.857205   1.098078   1.775815   0.000000
    25  H    2.311437   1.091046   1.790426   1.761320   0.000000
    26  C    4.300769   2.534094   2.787913   2.767599   3.486372
    27  H    5.065446   2.787487   3.147705   2.569111   3.775421
    28  H    4.372516   2.783893   2.590476   3.120727   3.795603
    29  H    4.818862   3.480745   3.790236   3.762511   4.318272
                   26         27         28         29
    26  C    0.000000
    27  H    1.097012   0.000000
    28  H    1.094575   1.784197   0.000000
    29  H    1.093094   1.766618   1.787418   0.000000
 Framework group  C1[X(C8H16Cl3FeO)]
 Deg. of freedom    81
                         Standard orientation:                         
 ---------------------------------------------------------------------
 Center     Atomic      Atomic             Coordinates (Angstroms)
 Number     Number       Type             X           Y           Z
 ---------------------------------------------------------------------
      1          8           0       -0.350932   -0.209304   -0.566385
      2          6           0       -1.362954   -1.161118   -0.434981
      3          6           0       -2.856893   -0.113982   -0.128143
      4          6           0       -2.083007    1.109815   -0.250393
      5          6           0       -1.949420    1.789452   -1.558601
      6         26           0        1.387932    0.043420    0.034444
      7         17           0        1.806874    2.064258   -0.788293
      8          6           0       -1.574528    1.823309    0.941545
      9         17           0        2.598946   -1.628911   -0.717181
     10         17           0        1.295196    0.097218    2.257169
     11          1           0       -3.485979   -0.283224   -1.003081
     12          1           0       -2.419963    2.415503    1.330973
     13          1           0       -1.259009    1.146219    1.737027
     14          1           0       -0.756786    2.501667    0.691952
     15          1           0       -2.635392    2.652823   -1.534880
     16          1           0       -0.934517    2.177272   -1.688628
     17          1           0       -2.231794    1.151560   -2.396964
     18          6           0       -3.579628   -0.411026    1.173859
     19          1           0       -4.414040    0.284796    1.324107
     20          1           0       -3.997232   -1.421129    1.145445
     21          1           0       -2.925714   -0.345489    2.045962
     22          6           0       -1.158561   -2.093321    0.736782
     23          1           0       -1.990638   -2.792644    0.855145
     24          1           0       -0.248871   -2.672713    0.530519
     25          1           0       -0.989737   -1.550425    1.667988
     26          6           0       -1.601417   -1.875978   -1.748831
     27          1           0       -0.690442   -2.437823   -1.989436
     28          1           0       -2.443472   -2.572455   -1.685922
     29          1           0       -1.774020   -1.164958   -2.560935
 ---------------------------------------------------------------------
 Rotational constants (GHZ):           0.5759670           0.3557837           0.3234669
   427 basis functions,  1056 primitive gaussians,   461 cartesian basis functions
    77 alpha electrons       72 beta electrons
       nuclear repulsion energy      1657.5499350109 Hartrees.
 NAtoms=   29 NActive=   29 NUniq=   29 SFac= 1.00D+00 NAtFMM=   60 NAOKFM=F Big=F
 ExpMin= 1.40D-02 ExpMax= 4.32D+06 ExpMxC= 4.91D+03 IAcc=3 IRadAn=         5 AccDes= 0.00D+00
 Harris functional with IExCor= 1009 and IRadAn=       5 diagonalized for initial guess.
 HarFok:  IExCor= 1009 AccDes= 0.00D+00 IRadAn=         5 IDoV= 1 UseB2=F ITyADJ=14
 ICtDFT=  3500011 ScaDFX=  1.000000  1.000000  1.000000  1.000000
 FoFCou: FMM=F IPFlag=           0 FMFlag=      100000 FMFlg1=           0
         NFxFlg=           0 DoJE=T BraDBF=F KetDBF=T FulRan=T
         wScrn=  0.000000 ICntrl=       500 IOpCl=  0 I1Cent=   200000004 NGrid=           0
         NMat0=    1 NMatS0=      1 NMatT0=    0 NMatD0=    1 NMtDS0=    0 NMtDT0=    0
 Petite list used in FoFCou.
 Initial guess <Sx>= 0.0000 <Sy>= 0.0000 <Sz>= 2.5000 <S**2>= 8.7500 S= 2.5000
 EnCoef did   100 forward-backward iterations
 Restarting incremental Fock formation.
 SCF Done:  E(UPBE1PBE) =  -3033.10225696     A.U. after   21 cycles
            NFock= 21  Conv=0.44D-08     -V/T= 2.0022
 <Sx>= 0.0000 <Sy>= 0.0000 <Sz>= 2.5000 <S**2>= 8.7624 S= 2.5021
 <L.S>= 0.000000000000E+00
 Annihilation of the first spin contaminant:
 S**2 before annihilation     8.7624,   after     8.7500
 1\1\GINC-HOLY7C04306\SP\UPBE1PBE\Jul-CC-pVDZ\C8H16Cl3Fe1O1(6)\EKWAN\11
 -Feb-2020\0\\#t pop=none jul-cc-pvdz upbe1pbe\\theory_abbreviation pbe
 0\\0,6\O,0,-0.350932,-0.209304,-0.566385\C,0,-1.362954,-1.161118,-0.43
 4981\C,0,-2.856893,-0.113982,-0.128143\C,0,-2.083007,1.109815,-0.25039
 3\C,0,-1.94942,1.789452,-1.558601\Fe,0,1.387932,0.04342,0.034444\Cl,0,
 1.806874,2.064258,-0.788293\C,0,-1.574528,1.823309,0.941545\Cl,0,2.598
 946,-1.628911,-0.717181\Cl,0,1.295196,0.097218,2.257169\H,0,-3.485979,
 -0.283224,-1.003081\H,0,-2.419963,2.415503,1.330973\H,0,-1.259009,1.14
 6219,1.737027\H,0,-0.756786,2.501667,0.691952\H,0,-2.635392,2.652823,-
 1.53488\H,0,-0.934517,2.177272,-1.688628\H,0,-2.231794,1.15156,-2.3969
 64\C,0,-3.579628,-0.411026,1.173859\H,0,-4.41404,0.284796,1.324107\H,0
 ,-3.997232,-1.421129,1.145445\H,0,-2.925714,-0.345489,2.045962\C,0,-1.
 158561,-2.093321,0.736782\H,0,-1.990638,-2.792644,0.855145\H,0,-0.2488
 71,-2.672713,0.530519\H,0,-0.989737,-1.550425,1.667988\C,0,-1.601417,-
 1.875978,-1.748831\H,0,-0.690442,-2.437823,-1.989436\H,0,-2.443472,-2.
 572455,-1.685922\H,0,-1.77402,-1.164958,-2.560935\\Version=ES64L-G16Re
 vA.03\HF=-3033.102257\S2=8.762395\S2-1=0.\S2A=8.750048\RMSD=4.377e-09\
 PG=C01 [X(C8H16Cl3Fe1O1)]\\@


 TO ERR IS HUMAN - AND TO BLAME IT ON A COMPUTER IS EVEN MORE SO.
 Job cpu time:       0 days  1 hours 34 minutes 34.5 seconds.
 Elapsed time:       0 days  0 hours 23 minutes 42.9 seconds.
 File lengths (MBytes):  RWF=    173 Int=      0 D2E=      0 Chk=     13 Scr=      1
 Normal termination of Gaussian 16 at Tue Feb 11 13:59:34 2020.
 Initial command:
 /n/sw/g16_nehalem/g16/l1.exe "/scratch/Gau-132040.inp" -scrdir="/scratch/"
 Entering Link 1 = /n/sw/g16_nehalem/g16/l1.exe PID=    135303.
  
 Copyright (c) 1988,1990,1992,1993,1995,1998,2003,2009,2016,
            Gaussian, Inc.  All Rights Reserved.
  
 This is part of the Gaussian(R) 16 program.  It is based on
 the Gaussian(R) 09 system (copyright 2009, Gaussian, Inc.),
 the Gaussian(R) 03 system (copyright 2003, Gaussian, Inc.),
 the Gaussian(R) 98 system (copyright 1998, Gaussian, Inc.),
 the Gaussian(R) 94 system (copyright 1995, Gaussian, Inc.),
 the Gaussian 92(TM) system (copyright 1992, Gaussian, Inc.),
 the Gaussian 90(TM) system (copyright 1990, Gaussian, Inc.),
 the Gaussian 88(TM) system (copyright 1988, Gaussian, Inc.),
 the Gaussian 86(TM) system (copyright 1986, Carnegie Mellon
 University), and the Gaussian 82(TM) system (copyright 1983,
 Carnegie Mellon University). Gaussian is a federally registered
 trademark of Gaussian, Inc.
  
 This software contains proprietary and confidential information,
 including trade secrets, belonging to Gaussian, Inc.
  
 This software is provided under written license and may be
 used, copied, transmitted, or stored only in accord with that
 written license.
  
 The following legend is applicable only to US Government
 contracts under FAR:
  
                    RESTRICTED RIGHTS LEGEND
  
 Use, reproduction and disclosure by the US Government is
 subject to restrictions as set forth in subparagraphs (a)
 and (c) of the Commercial Computer Software - Restricted
 Rights clause in FAR 52.227-19.
  
 Gaussian, Inc.
 340 Quinnipiac St., Bldg. 40, Wallingford CT 06492
  
  
 ---------------------------------------------------------------
 Warning -- This program may not be used in any manner that
 competes with the business of Gaussian, Inc. or will provide
 assistance to any competitor of Gaussian, Inc.  The licensee
 of this program is prohibited from giving any competitor of
 Gaussian, Inc. access to this program.  By using this program,
 the user acknowledges that Gaussian, Inc. is engaged in the
 business of creating and licensing software in the field of
 computational chemistry and represents and warrants to the
 licensee that it is not a competitor of Gaussian, Inc. and that
 it will not use this program in any manner prohibited above.
 ---------------------------------------------------------------
  

 Cite this work as:
 Gaussian 16, Revision A.03,
 M. J. Frisch, G. W. Trucks, H. B. Schlegel, G. E. Scuseria, 
 M. A. Robb, J. R. Cheeseman, G. Scalmani, V. Barone, 
 G. A. Petersson, H. Nakatsuji, X. Li, M. Caricato, A. V. Marenich, 
 J. Bloino, B. G. Janesko, R. Gomperts, B. Mennucci, H. P. Hratchian, 
 J. V. Ortiz, A. F. Izmaylov, J. L. Sonnenberg, D. Williams-Young, 
 F. Ding, F. Lipparini, F. Egidi, J. Goings, B. Peng, A. Petrone, 
 T. Henderson, D. Ranasinghe, V. G. Zakrzewski, J. Gao, N. Rega, 
 G. Zheng, W. Liang, M. Hada, M. Ehara, K. Toyota, R. Fukuda, 
 J. Hasegawa, M. Ishida, T. Nakajima, Y. Honda, O. Kitao, H. Nakai, 
 T. Vreven, K. Throssell, J. A. Montgomery, Jr., J. E. Peralta, 
 F. Ogliaro, M. J. Bearpark, J. J. Heyd, E. N. Brothers, K. N. Kudin, 
 V. N. Staroverov, T. A. Keith, R. Kobayashi, J. Normand, 
 K. Raghavachari, A. P. Rendell, J. C. Burant, S. S. Iyengar, 
 J. Tomasi, M. Cossi, J. M. Millam, M. Klene, C. Adamo, R. Cammi, 
 J. W. Ochterski, R. L. Martin, K. Morokuma, O. Farkas, 
 J. B. Foresman, and D. J. Fox, Gaussian, Inc., Wallingford CT, 2016.
 
 ******************************************
 Gaussian 16:  ES64L-G16RevA.03 25-Dec-2016
                11-Feb-2020 
 ******************************************
 %chk=checkpoint.chk
 %mem=3GB
 %nprocshared=4
 Will use up to    4 processors via shared memory.
 ---------------------------------------------------------------------
 #t pop=none jul-cc-pvdz guess=read upbe1pbe empiricaldispersion=gd3bj
 ---------------------------------------------------------------------
 -----------------------------
 theory_abbreviation pbe0_d3bj
 -----------------------------
 Symbolic Z-matrix:
 Charge =  0 Multiplicity = 6
 O                    -0.35093  -0.2093   -0.56639 
 C                    -1.36295  -1.16112  -0.43498 
 C                    -2.85689  -0.11398  -0.12814 
 C                    -2.08301   1.10981  -0.25039 
 C                    -1.94942   1.78945  -1.5586 
 Fe                    1.38793   0.04342   0.03444 
 Cl                    1.80687   2.06426  -0.78829 
 C                    -1.57453   1.82331   0.94155 
 Cl                    2.59895  -1.62891  -0.71718 
 Cl                    1.2952    0.09722   2.25717 
 H                    -3.48598  -0.28322  -1.00308 
 H                    -2.41996   2.4155    1.33097 
 H                    -1.25901   1.14622   1.73703 
 H                    -0.75679   2.50167   0.69195 
 H                    -2.63539   2.65282  -1.53488 
 H                    -0.93452   2.17727  -1.68863 
 H                    -2.23179   1.15156  -2.39696 
 C                    -3.57963  -0.41103   1.17386 
 H                    -4.41404   0.2848    1.32411 
 H                    -3.99723  -1.42113   1.14545 
 H                    -2.92571  -0.34549   2.04596 
 C                    -1.15856  -2.09332   0.73678 
 H                    -1.99064  -2.79264   0.85515 
 H                    -0.24887  -2.67271   0.53052 
 H                    -0.98974  -1.55043   1.66799 
 C                    -1.60142  -1.87598  -1.74883 
 H                    -0.69044  -2.43782  -1.98944 
 H                    -2.44347  -2.57246  -1.68592 
 H                    -1.77402  -1.16496  -2.56094 
 
                    Distance matrix (angstroms):
                    1          2          3          4          5
     1  O    0.000000
     2  C    1.395495   0.000000
     3  C    2.545777   1.849999   0.000000
     4  C    2.200002   2.389495   1.453108   0.000000
     5  C    2.744938   3.211281   2.548093   1.480257   0.000000
     6  Fe   1.857017   3.039514   4.250853   3.642217   4.089540
     7  Cl   3.142364   4.536043   5.189533   4.041222   3.844299
     8  C    2.811148   3.293386   2.557692   1.479304   2.528324
     9  Cl   3.277164   3.999390   5.692816   5.444189   5.751593
    10  Cl   3.282705   3.987084   4.793137   4.327294   5.286898
    11  H    3.166179   2.366574   1.090829   2.115521   2.639243
    12  H    3.843237   4.126509   2.952663   2.078239   2.993825
    13  H    2.822721   3.170525   2.760471   2.151775   3.428058
    14  H    3.016205   3.879873   3.453205   2.141058   2.644733
    15  H    3.787943   4.168336   3.111781   2.082285   1.102964
    16  H    2.701064   3.591662   3.373498   2.127678   1.094230
    17  H    2.956453   3.154796   2.672058   2.152126   1.090639
    18  C    3.673366   2.839832   1.518483   2.565409   3.868594
    19  H    4.508541   3.807123   2.166278   2.931454   4.080239
    20  H    4.206469   3.082981   2.151983   3.466742   4.670463
    21  H    3.670478   3.043443   2.187479   2.846280   4.301627
    22  C    2.428998   1.511227   2.747764   3.476952   4.579320
    23  H    3.373874   2.172623   2.982027   4.057084   5.179138
    24  H    2.698518   2.111466   3.712508   4.275675   5.212217
    25  H    2.683114   2.171020   2.962385   3.457210   4.742009
    26  C    2.395766   1.514626   2.703235   3.375234   3.686824
    27  H    2.665828   2.120985   3.682140   4.189182   4.431760
    28  H    3.349115   2.173533   2.939674   3.968601   4.391643
    29  H    2.629959   2.165334   2.862803   3.257095   3.124736
                    6          7          8          9         10
     6  Fe   0.000000
     7  Cl   2.221755   0.000000
     8  C    3.573095   3.805821   0.000000
     9  Cl   2.197313   3.777821   5.664546   0.000000
    10  Cl   2.225309   3.661407   3.597996   3.677777   0.000000
    11  H    4.993812   5.794057   3.445678   6.238503   5.799448
    12  H    4.669885   4.741394   1.103226   6.763259   4.476013
    13  H    3.334854   4.076724   1.091235   5.348673   2.809789
    14  H    3.327929   2.992458   1.091407   5.505295   3.527309
    15  H    5.045681   4.542855   2.818902   6.811767   6.029948
    16  H    3.593894   2.887663   2.729966   5.283569   4.986738
    17  H    4.499126   4.442035   3.468269   5.821404   5.933991
    18  C    5.116780   6.244315   3.011088   6.575261   5.019540
    19  H    5.948476   6.806503   3.252108   7.550570   5.788019
    20  H    5.690274   7.040945   4.054312   6.857267   5.617037
    21  H    4.775458   6.019740   2.783725   6.309041   4.249315
    22  C    3.397583   5.329646   3.943976   4.055680   3.623667
    23  H    4.486819   6.380555   4.635476   4.989065   4.594962
    24  H    3.209765   5.329563   4.705372   3.279686   3.610814
    25  H    3.295773   5.188476   3.500254   4.309737   2.877982
    26  C    3.974967   5.297598   4.574229   4.332250   5.322772
    27  H    3.817368   5.286593   5.246857   3.618431   5.329432
    28  H    4.947941   6.353762   5.194361   5.220605   6.054152
    29  H    4.265455   5.137402   4.608351   4.768387   5.850410
                   11         12         13         14         15
    11  H    0.000000
    12  H    3.723886   0.000000
    13  H    3.809317   1.767421   0.000000
    14  H    4.251735   1.783796   1.783718   0.000000
    15  H    3.102689   2.883720   3.856120   2.917326   0.000000
    16  H    3.610259   3.373617   3.592141   2.409145   1.772784
    17  H    2.361037   3.940872   4.246907   3.679652   1.777603
    18  C    2.182698   3.059211   2.850867   4.084661   4.197144
    19  H    2.568997   2.918270   3.296479   4.323152   4.116424
    20  H    2.484426   4.152342   3.799883   5.108275   5.063184
    21  H    3.100716   2.896562   2.257994   3.826733   4.679379
    22  C    3.423514   4.719501   3.391931   4.612738   5.465104
    23  H    3.462115   5.247431   4.102150   5.438635   5.981725
    24  H    4.305863   5.589661   4.130409   5.201754   6.190532
    25  H    3.869319   4.229387   2.710934   4.174489   5.534784
    26  C    2.577709   5.345280   4.626243   5.082775   4.650260
    27  H    3.664726   6.129530   5.201457   5.620748   5.468467
    28  H    2.606467   5.829402   5.191153   5.852000   5.230982
    29  H    2.476927   5.327653   4.907062   5.006014   4.046011
                   16         17         18         19         20
    16  H    0.000000
    17  H    1.799098   0.000000
    18  C    4.678646   4.124210   0.000000
    19  H    4.976456   4.399983   1.096807   0.000000
    20  H    5.510053   4.720610   1.093393   1.765171   0.000000
    21  H    4.927104   4.739438   1.091999   1.770155   1.765243
    22  C    4.916378   4.636965   2.980389   4.074130   2.945658
    23  H    5.682098   5.117726   2.880724   3.945053   2.447805
    24  H    5.377460   5.208378   4.077138   5.169649   3.999351
    25  H    5.016537   5.036592   2.872269   3.900275   3.055290
    26  C    4.108189   3.159658   3.821194   4.692839   3.784660
    27  H    4.631324   3.927533   4.739382   5.679560   4.668619
    28  H    4.983659   3.797193   3.760449   4.594268   3.428755
    29  H    3.554741   2.367002   4.216316   4.915795   4.329613
                   21         22         23         24         25
    21  H    0.000000
    22  C    2.809217   0.000000
    23  H    2.877669   1.093350   0.000000
    24  H    3.857205   1.098078   1.775815   0.000000
    25  H    2.311437   1.091046   1.790426   1.761320   0.000000
    26  C    4.300769   2.534094   2.787913   2.767599   3.486372
    27  H    5.065446   2.787487   3.147705   2.569111   3.775421
    28  H    4.372516   2.783893   2.590476   3.120727   3.795603
    29  H    4.818862   3.480745   3.790236   3.762511   4.318272
                   26         27         28         29
    26  C    0.000000
    27  H    1.097012   0.000000
    28  H    1.094575   1.784197   0.000000
    29  H    1.093094   1.766618   1.787418   0.000000
 Framework group  C1[X(C8H16Cl3FeO)]
 Deg. of freedom    81
                         Standard orientation:                         
 ---------------------------------------------------------------------
 Center     Atomic      Atomic             Coordinates (Angstroms)
 Number     Number       Type             X           Y           Z
 ---------------------------------------------------------------------
      1          8           0       -0.350932   -0.209304   -0.566385
      2          6           0       -1.362954   -1.161118   -0.434981
      3          6           0       -2.856893   -0.113982   -0.128143
      4          6           0       -2.083007    1.109815   -0.250393
      5          6           0       -1.949420    1.789452   -1.558601
      6         26           0        1.387932    0.043420    0.034444
      7         17           0        1.806874    2.064258   -0.788293
      8          6           0       -1.574528    1.823309    0.941545
      9         17           0        2.598946   -1.628911   -0.717181
     10         17           0        1.295196    0.097218    2.257169
     11          1           0       -3.485979   -0.283224   -1.003081
     12          1           0       -2.419963    2.415503    1.330973
     13          1           0       -1.259009    1.146219    1.737027
     14          1           0       -0.756786    2.501667    0.691952
     15          1           0       -2.635392    2.652823   -1.534880
     16          1           0       -0.934517    2.177272   -1.688628
     17          1           0       -2.231794    1.151560   -2.396964
     18          6           0       -3.579628   -0.411026    1.173859
     19          1           0       -4.414040    0.284796    1.324107
     20          1           0       -3.997232   -1.421129    1.145445
     21          1           0       -2.925714   -0.345489    2.045962
     22          6           0       -1.158561   -2.093321    0.736782
     23          1           0       -1.990638   -2.792644    0.855145
     24          1           0       -0.248871   -2.672713    0.530519
     25          1           0       -0.989737   -1.550425    1.667988
     26          6           0       -1.601417   -1.875978   -1.748831
     27          1           0       -0.690442   -2.437823   -1.989436
     28          1           0       -2.443472   -2.572455   -1.685922
     29          1           0       -1.774020   -1.164958   -2.560935
 ---------------------------------------------------------------------
 Rotational constants (GHZ):           0.5759670           0.3557837           0.3234669
   427 basis functions,  1056 primitive gaussians,   461 cartesian basis functions
    77 alpha electrons       72 beta electrons
       nuclear repulsion energy      1657.5499350109 Hartrees.
 NAtoms=   29 NActive=   29 NUniq=   29 SFac= 1.00D+00 NAtFMM=   60 NAOKFM=F Big=F
 Nuclear repulsion after empirical dispersion term =     1657.5129114487 Hartrees.
 Initial guess from the checkpoint file:  "checkpoint.chk"
 B after Tr=     0.000000    0.000000    0.000000
         Rot=    1.000000    0.000000    0.000000    0.000000 Ang=   0.00 deg.
 Initial guess <Sx>= 0.0000 <Sy>= 0.0000 <Sz>= 2.5000 <S**2>= 8.7624 S= 2.5021
 SCF Done:  E(UPBE1PBE) =  -3033.13928052     A.U. after    1 cycles
            NFock=  1  Conv=0.23D-08     -V/T= 2.0022
 <Sx>= 0.0000 <Sy>= 0.0000 <Sz>= 2.5000 <S**2>= 8.7624 S= 2.5021
 <L.S>= 0.000000000000E+00
 Annihilation of the first spin contaminant:
 S**2 before annihilation     8.7624,   after     8.7500
 1\1\GINC-HOLY7C04306\SP\UPBE1PBE\Jul-CC-pVDZ\C8H16Cl3Fe1O1(6)\EKWAN\11
 -Feb-2020\0\\#t pop=none jul-cc-pvdz guess=read upbe1pbe empiricaldisp
 ersion=gd3bj\\theory_abbreviation pbe0_d3bj\\0,6\O,0,-0.350932,-0.2093
 04,-0.566385\C,0,-1.362954,-1.161118,-0.434981\C,0,-2.856893,-0.113982
 ,-0.128143\C,0,-2.083007,1.109815,-0.250393\C,0,-1.94942,1.789452,-1.5
 58601\Fe,0,1.387932,0.04342,0.034444\Cl,0,1.806874,2.064258,-0.788293\
 C,0,-1.574528,1.823309,0.941545\Cl,0,2.598946,-1.628911,-0.717181\Cl,0
 ,1.295196,0.097218,2.257169\H,0,-3.485979,-0.283224,-1.003081\H,0,-2.4
 19963,2.415503,1.330973\H,0,-1.259009,1.146219,1.737027\H,0,-0.756786,
 2.501667,0.691952\H,0,-2.635392,2.652823,-1.53488\H,0,-0.934517,2.1772
 72,-1.688628\H,0,-2.231794,1.15156,-2.396964\C,0,-3.579628,-0.411026,1
 .173859\H,0,-4.41404,0.284796,1.324107\H,0,-3.997232,-1.421129,1.14544
 5\H,0,-2.925714,-0.345489,2.045962\C,0,-1.158561,-2.093321,0.736782\H,
 0,-1.990638,-2.792644,0.855145\H,0,-0.248871,-2.672713,0.530519\H,0,-0
 .989737,-1.550425,1.667988\C,0,-1.601417,-1.875978,-1.748831\H,0,-0.69
 0442,-2.437823,-1.989436\H,0,-2.443472,-2.572455,-1.685922\H,0,-1.7740
 2,-1.164958,-2.560935\\Version=ES64L-G16RevA.03\HF=-3033.1392805\S2=8.
 762395\S2-1=0.\S2A=8.750048\RMSD=2.324e-09\PG=C01 [X(C8H16Cl3Fe1O1)]\\
 @


 ... A MOLECULAR SYSTEM ... (PASSES) ... FROM ONE STATE OF EQUILIBRIUM 
 TO ANOTHER ... BY MEANS OF ALL POSSIBLE INTERMEDIATE PATHS, 
 BUT THE PATH MOST ECONOMICAL OF ENERGY WILL BE THE MORE OFTEN TRAVELED.

                      -- HENRY EYRING, 1945
 Job cpu time:       0 days  0 hours  4 minutes 47.4 seconds.
 Elapsed time:       0 days  0 hours  1 minutes 12.3 seconds.
 File lengths (MBytes):  RWF=    170 Int=      0 D2E=      0 Chk=     13 Scr=      1
 Normal termination of Gaussian 16 at Tue Feb 11 14:00:47 2020.
 Initial command:
 /n/sw/g16_nehalem/g16/l1.exe "/scratch/Gau-132040.inp" -scrdir="/scratch/"
 Entering Link 1 = /n/sw/g16_nehalem/g16/l1.exe PID=    135594.
  
 Copyright (c) 1988,1990,1992,1993,1995,1998,2003,2009,2016,
            Gaussian, Inc.  All Rights Reserved.
  
 This is part of the Gaussian(R) 16 program.  It is based on
 the Gaussian(R) 09 system (copyright 2009, Gaussian, Inc.),
 the Gaussian(R) 03 system (copyright 2003, Gaussian, Inc.),
 the Gaussian(R) 98 system (copyright 1998, Gaussian, Inc.),
 the Gaussian(R) 94 system (copyright 1995, Gaussian, Inc.),
 the Gaussian 92(TM) system (copyright 1992, Gaussian, Inc.),
 the Gaussian 90(TM) system (copyright 1990, Gaussian, Inc.),
 the Gaussian 88(TM) system (copyright 1988, Gaussian, Inc.),
 the Gaussian 86(TM) system (copyright 1986, Carnegie Mellon
 University), and the Gaussian 82(TM) system (copyright 1983,
 Carnegie Mellon University). Gaussian is a federally registered
 trademark of Gaussian, Inc.
  
 This software contains proprietary and confidential information,
 including trade secrets, belonging to Gaussian, Inc.
  
 This software is provided under written license and may be
 used, copied, transmitted, or stored only in accord with that
 written license.
  
 The following legend is applicable only to US Government
 contracts under FAR:
  
                    RESTRICTED RIGHTS LEGEND
  
 Use, reproduction and disclosure by the US Government is
 subject to restrictions as set forth in subparagraphs (a)
 and (c) of the Commercial Computer Software - Restricted
 Rights clause in FAR 52.227-19.
  
 Gaussian, Inc.
 340 Quinnipiac St., Bldg. 40, Wallingford CT 06492
  
  
 ---------------------------------------------------------------
 Warning -- This program may not be used in any manner that
 competes with the business of Gaussian, Inc. or will provide
 assistance to any competitor of Gaussian, Inc.  The licensee
 of this program is prohibited from giving any competitor of
 Gaussian, Inc. access to this program.  By using this program,
 the user acknowledges that Gaussian, Inc. is engaged in the
 business of creating and licensing software in the field of
 computational chemistry and represents and warrants to the
 licensee that it is not a competitor of Gaussian, Inc. and that
 it will not use this program in any manner prohibited above.
 ---------------------------------------------------------------
  

 Cite this work as:
 Gaussian 16, Revision A.03,
 M. J. Frisch, G. W. Trucks, H. B. Schlegel, G. E. Scuseria, 
 M. A. Robb, J. R. Cheeseman, G. Scalmani, V. Barone, 
 G. A. Petersson, H. Nakatsuji, X. Li, M. Caricato, A. V. Marenich, 
 J. Bloino, B. G. Janesko, R. Gomperts, B. Mennucci, H. P. Hratchian, 
 J. V. Ortiz, A. F. Izmaylov, J. L. Sonnenberg, D. Williams-Young, 
 F. Ding, F. Lipparini, F. Egidi, J. Goings, B. Peng, A. Petrone, 
 T. Henderson, D. Ranasinghe, V. G. Zakrzewski, J. Gao, N. Rega, 
 G. Zheng, W. Liang, M. Hada, M. Ehara, K. Toyota, R. Fukuda, 
 J. Hasegawa, M. Ishida, T. Nakajima, Y. Honda, O. Kitao, H. Nakai, 
 T. Vreven, K. Throssell, J. A. Montgomery, Jr., J. E. Peralta, 
 F. Ogliaro, M. J. Bearpark, J. J. Heyd, E. N. Brothers, K. N. Kudin, 
 V. N. Staroverov, T. A. Keith, R. Kobayashi, J. Normand, 
 K. Raghavachari, A. P. Rendell, J. C. Burant, S. S. Iyengar, 
 J. Tomasi, M. Cossi, J. M. Millam, M. Klene, C. Adamo, R. Cammi, 
 J. W. Ochterski, R. L. Martin, K. Morokuma, O. Farkas, 
 J. B. Foresman, and D. J. Fox, Gaussian, Inc., Wallingford CT, 2016.
 
 ******************************************
 Gaussian 16:  ES64L-G16RevA.03 25-Dec-2016
                11-Feb-2020 
 ******************************************
 %chk=checkpoint.chk
 %mem=3GB
 %nprocshared=4
 Will use up to    4 processors via shared memory.
 -----------------------------------------
 #t pop=none jul-cc-pvdz guess=read ub3lyp
 -----------------------------------------
 -------------------------
 theory_abbreviation b3lyp
 -------------------------
 Symbolic Z-matrix:
 Charge =  0 Multiplicity = 6
 O                    -0.35093  -0.2093   -0.56639 
 C                    -1.36295  -1.16112  -0.43498 
 C                    -2.85689  -0.11398  -0.12814 
 C                    -2.08301   1.10981  -0.25039 
 C                    -1.94942   1.78945  -1.5586 
 Fe                    1.38793   0.04342   0.03444 
 Cl                    1.80687   2.06426  -0.78829 
 C                    -1.57453   1.82331   0.94155 
 Cl                    2.59895  -1.62891  -0.71718 
 Cl                    1.2952    0.09722   2.25717 
 H                    -3.48598  -0.28322  -1.00308 
 H                    -2.41996   2.4155    1.33097 
 H                    -1.25901   1.14622   1.73703 
 H                    -0.75679   2.50167   0.69195 
 H                    -2.63539   2.65282  -1.53488 
 H                    -0.93452   2.17727  -1.68863 
 H                    -2.23179   1.15156  -2.39696 
 C                    -3.57963  -0.41103   1.17386 
 H                    -4.41404   0.2848    1.32411 
 H                    -3.99723  -1.42113   1.14545 
 H                    -2.92571  -0.34549   2.04596 
 C                    -1.15856  -2.09332   0.73678 
 H                    -1.99064  -2.79264   0.85515 
 H                    -0.24887  -2.67271   0.53052 
 H                    -0.98974  -1.55043   1.66799 
 C                    -1.60142  -1.87598  -1.74883 
 H                    -0.69044  -2.43782  -1.98944 
 H                    -2.44347  -2.57246  -1.68592 
 H                    -1.77402  -1.16496  -2.56094 
 
                    Distance matrix (angstroms):
                    1          2          3          4          5
     1  O    0.000000
     2  C    1.395495   0.000000
     3  C    2.545777   1.849999   0.000000
     4  C    2.200002   2.389495   1.453108   0.000000
     5  C    2.744938   3.211281   2.548093   1.480257   0.000000
     6  Fe   1.857017   3.039514   4.250853   3.642217   4.089540
     7  Cl   3.142364   4.536043   5.189533   4.041222   3.844299
     8  C    2.811148   3.293386   2.557692   1.479304   2.528324
     9  Cl   3.277164   3.999390   5.692816   5.444189   5.751593
    10  Cl   3.282705   3.987084   4.793137   4.327294   5.286898
    11  H    3.166179   2.366574   1.090829   2.115521   2.639243
    12  H    3.843237   4.126509   2.952663   2.078239   2.993825
    13  H    2.822721   3.170525   2.760471   2.151775   3.428058
    14  H    3.016205   3.879873   3.453205   2.141058   2.644733
    15  H    3.787943   4.168336   3.111781   2.082285   1.102964
    16  H    2.701064   3.591662   3.373498   2.127678   1.094230
    17  H    2.956453   3.154796   2.672058   2.152126   1.090639
    18  C    3.673366   2.839832   1.518483   2.565409   3.868594
    19  H    4.508541   3.807123   2.166278   2.931454   4.080239
    20  H    4.206469   3.082981   2.151983   3.466742   4.670463
    21  H    3.670478   3.043443   2.187479   2.846280   4.301627
    22  C    2.428998   1.511227   2.747764   3.476952   4.579320
    23  H    3.373874   2.172623   2.982027   4.057084   5.179138
    24  H    2.698518   2.111466   3.712508   4.275675   5.212217
    25  H    2.683114   2.171020   2.962385   3.457210   4.742009
    26  C    2.395766   1.514626   2.703235   3.375234   3.686824
    27  H    2.665828   2.120985   3.682140   4.189182   4.431760
    28  H    3.349115   2.173533   2.939674   3.968601   4.391643
    29  H    2.629959   2.165334   2.862803   3.257095   3.124736
                    6          7          8          9         10
     6  Fe   0.000000
     7  Cl   2.221755   0.000000
     8  C    3.573095   3.805821   0.000000
     9  Cl   2.197313   3.777821   5.664546   0.000000
    10  Cl   2.225309   3.661407   3.597996   3.677777   0.000000
    11  H    4.993812   5.794057   3.445678   6.238503   5.799448
    12  H    4.669885   4.741394   1.103226   6.763259   4.476013
    13  H    3.334854   4.076724   1.091235   5.348673   2.809789
    14  H    3.327929   2.992458   1.091407   5.505295   3.527309
    15  H    5.045681   4.542855   2.818902   6.811767   6.029948
    16  H    3.593894   2.887663   2.729966   5.283569   4.986738
    17  H    4.499126   4.442035   3.468269   5.821404   5.933991
    18  C    5.116780   6.244315   3.011088   6.575261   5.019540
    19  H    5.948476   6.806503   3.252108   7.550570   5.788019
    20  H    5.690274   7.040945   4.054312   6.857267   5.617037
    21  H    4.775458   6.019740   2.783725   6.309041   4.249315
    22  C    3.397583   5.329646   3.943976   4.055680   3.623667
    23  H    4.486819   6.380555   4.635476   4.989065   4.594962
    24  H    3.209765   5.329563   4.705372   3.279686   3.610814
    25  H    3.295773   5.188476   3.500254   4.309737   2.877982
    26  C    3.974967   5.297598   4.574229   4.332250   5.322772
    27  H    3.817368   5.286593   5.246857   3.618431   5.329432
    28  H    4.947941   6.353762   5.194361   5.220605   6.054152
    29  H    4.265455   5.137402   4.608351   4.768387   5.850410
                   11         12         13         14         15
    11  H    0.000000
    12  H    3.723886   0.000000
    13  H    3.809317   1.767421   0.000000
    14  H    4.251735   1.783796   1.783718   0.000000
    15  H    3.102689   2.883720   3.856120   2.917326   0.000000
    16  H    3.610259   3.373617   3.592141   2.409145   1.772784
    17  H    2.361037   3.940872   4.246907   3.679652   1.777603
    18  C    2.182698   3.059211   2.850867   4.084661   4.197144
    19  H    2.568997   2.918270   3.296479   4.323152   4.116424
    20  H    2.484426   4.152342   3.799883   5.108275   5.063184
    21  H    3.100716   2.896562   2.257994   3.826733   4.679379
    22  C    3.423514   4.719501   3.391931   4.612738   5.465104
    23  H    3.462115   5.247431   4.102150   5.438635   5.981725
    24  H    4.305863   5.589661   4.130409   5.201754   6.190532
    25  H    3.869319   4.229387   2.710934   4.174489   5.534784
    26  C    2.577709   5.345280   4.626243   5.082775   4.650260
    27  H    3.664726   6.129530   5.201457   5.620748   5.468467
    28  H    2.606467   5.829402   5.191153   5.852000   5.230982
    29  H    2.476927   5.327653   4.907062   5.006014   4.046011
                   16         17         18         19         20
    16  H    0.000000
    17  H    1.799098   0.000000
    18  C    4.678646   4.124210   0.000000
    19  H    4.976456   4.399983   1.096807   0.000000
    20  H    5.510053   4.720610   1.093393   1.765171   0.000000
    21  H    4.927104   4.739438   1.091999   1.770155   1.765243
    22  C    4.916378   4.636965   2.980389   4.074130   2.945658
    23  H    5.682098   5.117726   2.880724   3.945053   2.447805
    24  H    5.377460   5.208378   4.077138   5.169649   3.999351
    25  H    5.016537   5.036592   2.872269   3.900275   3.055290
    26  C    4.108189   3.159658   3.821194   4.692839   3.784660
    27  H    4.631324   3.927533   4.739382   5.679560   4.668619
    28  H    4.983659   3.797193   3.760449   4.594268   3.428755
    29  H    3.554741   2.367002   4.216316   4.915795   4.329613
                   21         22         23         24         25
    21  H    0.000000
    22  C    2.809217   0.000000
    23  H    2.877669   1.093350   0.000000
    24  H    3.857205   1.098078   1.775815   0.000000
    25  H    2.311437   1.091046   1.790426   1.761320   0.000000
    26  C    4.300769   2.534094   2.787913   2.767599   3.486372
    27  H    5.065446   2.787487   3.147705   2.569111   3.775421
    28  H    4.372516   2.783893   2.590476   3.120727   3.795603
    29  H    4.818862   3.480745   3.790236   3.762511   4.318272
                   26         27         28         29
    26  C    0.000000
    27  H    1.097012   0.000000
    28  H    1.094575   1.784197   0.000000
    29  H    1.093094   1.766618   1.787418   0.000000
 Framework group  C1[X(C8H16Cl3FeO)]
 Deg. of freedom    81
                         Standard orientation:                         
 ---------------------------------------------------------------------
 Center     Atomic      Atomic             Coordinates (Angstroms)
 Number     Number       Type             X           Y           Z
 ---------------------------------------------------------------------
      1          8           0       -0.350932   -0.209304   -0.566385
      2          6           0       -1.362954   -1.161118   -0.434981
      3          6           0       -2.856893   -0.113982   -0.128143
      4          6           0       -2.083007    1.109815   -0.250393
      5          6           0       -1.949420    1.789452   -1.558601
      6         26           0        1.387932    0.043420    0.034444
      7         17           0        1.806874    2.064258   -0.788293
      8          6           0       -1.574528    1.823309    0.941545
      9         17           0        2.598946   -1.628911   -0.717181
     10         17           0        1.295196    0.097218    2.257169
     11          1           0       -3.485979   -0.283224   -1.003081
     12          1           0       -2.419963    2.415503    1.330973
     13          1           0       -1.259009    1.146219    1.737027
     14          1           0       -0.756786    2.501667    0.691952
     15          1           0       -2.635392    2.652823   -1.534880
     16          1           0       -0.934517    2.177272   -1.688628
     17          1           0       -2.231794    1.151560   -2.396964
     18          6           0       -3.579628   -0.411026    1.173859
     19          1           0       -4.414040    0.284796    1.324107
     20          1           0       -3.997232   -1.421129    1.145445
     21          1           0       -2.925714   -0.345489    2.045962
     22          6           0       -1.158561   -2.093321    0.736782
     23          1           0       -1.990638   -2.792644    0.855145
     24          1           0       -0.248871   -2.672713    0.530519
     25          1           0       -0.989737   -1.550425    1.667988
     26          6           0       -1.601417   -1.875978   -1.748831
     27          1           0       -0.690442   -2.437823   -1.989436
     28          1           0       -2.443472   -2.572455   -1.685922
     29          1           0       -1.774020   -1.164958   -2.560935
 ---------------------------------------------------------------------
 Rotational constants (GHZ):           0.5759670           0.3557837           0.3234669
   427 basis functions,  1056 primitive gaussians,   461 cartesian basis functions
    77 alpha electrons       72 beta electrons
       nuclear repulsion energy      1657.5499350109 Hartrees.
 NAtoms=   29 NActive=   29 NUniq=   29 SFac= 1.00D+00 NAtFMM=   60 NAOKFM=F Big=F
 Initial guess from the checkpoint file:  "checkpoint.chk"
 B after Tr=     0.000000    0.000000    0.000000
         Rot=    1.000000    0.000000    0.000000    0.000000 Ang=   0.00 deg.
 Initial guess <Sx>= 0.0000 <Sy>= 0.0000 <Sz>= 2.5000 <S**2>= 8.7624 S= 2.5021
 SCF Done:  E(UB3LYP) =  -3034.31539768     A.U. after   14 cycles
            NFock= 14  Conv=0.49D-08     -V/T= 2.0025
 <Sx>= 0.0000 <Sy>= 0.0000 <Sz>= 2.5000 <S**2>= 8.7617 S= 2.5019
 <L.S>= 0.000000000000E+00
 Annihilation of the first spin contaminant:
 S**2 before annihilation     8.7617,   after     8.7500
 1\1\GINC-HOLY7C04306\SP\UB3LYP\Jul-CC-pVDZ\C8H16Cl3Fe1O1(6)\EKWAN\11-F
 eb-2020\0\\#t pop=none jul-cc-pvdz guess=read ub3lyp\\theory_abbreviat
 ion b3lyp\\0,6\O,0,-0.350932,-0.209304,-0.566385\C,0,-1.362954,-1.1611
 18,-0.434981\C,0,-2.856893,-0.113982,-0.128143\C,0,-2.083007,1.109815,
 -0.250393\C,0,-1.94942,1.789452,-1.558601\Fe,0,1.387932,0.04342,0.0344
 44\Cl,0,1.806874,2.064258,-0.788293\C,0,-1.574528,1.823309,0.941545\Cl
 ,0,2.598946,-1.628911,-0.717181\Cl,0,1.295196,0.097218,2.257169\H,0,-3
 .485979,-0.283224,-1.003081\H,0,-2.419963,2.415503,1.330973\H,0,-1.259
 009,1.146219,1.737027\H,0,-0.756786,2.501667,0.691952\H,0,-2.635392,2.
 652823,-1.53488\H,0,-0.934517,2.177272,-1.688628\H,0,-2.231794,1.15156
 ,-2.396964\C,0,-3.579628,-0.411026,1.173859\H,0,-4.41404,0.284796,1.32
 4107\H,0,-3.997232,-1.421129,1.145445\H,0,-2.925714,-0.345489,2.045962
 \C,0,-1.158561,-2.093321,0.736782\H,0,-1.990638,-2.792644,0.855145\H,0
 ,-0.248871,-2.672713,0.530519\H,0,-0.989737,-1.550425,1.667988\C,0,-1.
 601417,-1.875978,-1.748831\H,0,-0.690442,-2.437823,-1.989436\H,0,-2.44
 3472,-2.572455,-1.685922\H,0,-1.77402,-1.164958,-2.560935\\Version=ES6
 4L-G16RevA.03\HF=-3034.3153977\S2=8.761676\S2-1=0.\S2A=8.750043\RMSD=4
 .852e-09\PG=C01 [X(C8H16Cl3Fe1O1)]\\@


 THERE ARE PEOPLE SO ADDICTED TO EXAGERATING THEY
 CAN'T TELL THE TRUTH WITHOUT LYING. -- FORTUNE COOKIE
 Job cpu time:       0 days  1 hours  1 minutes 21.6 seconds.
 Elapsed time:       0 days  0 hours 15 minutes 24.9 seconds.
 File lengths (MBytes):  RWF=    174 Int=      0 D2E=      0 Chk=     13 Scr=      1
 Normal termination of Gaussian 16 at Tue Feb 11 14:16:12 2020.
 Initial command:
 /n/sw/g16_nehalem/g16/l1.exe "/scratch/Gau-132040.inp" -scrdir="/scratch/"
 Entering Link 1 = /n/sw/g16_nehalem/g16/l1.exe PID=    137152.
  
 Copyright (c) 1988,1990,1992,1993,1995,1998,2003,2009,2016,
            Gaussian, Inc.  All Rights Reserved.
  
 This is part of the Gaussian(R) 16 program.  It is based on
 the Gaussian(R) 09 system (copyright 2009, Gaussian, Inc.),
 the Gaussian(R) 03 system (copyright 2003, Gaussian, Inc.),
 the Gaussian(R) 98 system (copyright 1998, Gaussian, Inc.),
 the Gaussian(R) 94 system (copyright 1995, Gaussian, Inc.),
 the Gaussian 92(TM) system (copyright 1992, Gaussian, Inc.),
 the Gaussian 90(TM) system (copyright 1990, Gaussian, Inc.),
 the Gaussian 88(TM) system (copyright 1988, Gaussian, Inc.),
 the Gaussian 86(TM) system (copyright 1986, Carnegie Mellon
 University), and the Gaussian 82(TM) system (copyright 1983,
 Carnegie Mellon University). Gaussian is a federally registered
 trademark of Gaussian, Inc.
  
 This software contains proprietary and confidential information,
 including trade secrets, belonging to Gaussian, Inc.
  
 This software is provided under written license and may be
 used, copied, transmitted, or stored only in accord with that
 written license.
  
 The following legend is applicable only to US Government
 contracts under FAR:
  
                    RESTRICTED RIGHTS LEGEND
  
 Use, reproduction and disclosure by the US Government is
 subject to restrictions as set forth in subparagraphs (a)
 and (c) of the Commercial Computer Software - Restricted
 Rights clause in FAR 52.227-19.
  
 Gaussian, Inc.
 340 Quinnipiac St., Bldg. 40, Wallingford CT 06492
  
  
 ---------------------------------------------------------------
 Warning -- This program may not be used in any manner that
 competes with the business of Gaussian, Inc. or will provide
 assistance to any competitor of Gaussian, Inc.  The licensee
 of this program is prohibited from giving any competitor of
 Gaussian, Inc. access to this program.  By using this program,
 the user acknowledges that Gaussian, Inc. is engaged in the
 business of creating and licensing software in the field of
 computational chemistry and represents and warrants to the
 licensee that it is not a competitor of Gaussian, Inc. and that
 it will not use this program in any manner prohibited above.
 ---------------------------------------------------------------
  

 Cite this work as:
 Gaussian 16, Revision A.03,
 M. J. Frisch, G. W. Trucks, H. B. Schlegel, G. E. Scuseria, 
 M. A. Robb, J. R. Cheeseman, G. Scalmani, V. Barone, 
 G. A. Petersson, H. Nakatsuji, X. Li, M. Caricato, A. V. Marenich, 
 J. Bloino, B. G. Janesko, R. Gomperts, B. Mennucci, H. P. Hratchian, 
 J. V. Ortiz, A. F. Izmaylov, J. L. Sonnenberg, D. Williams-Young, 
 F. Ding, F. Lipparini, F. Egidi, J. Goings, B. Peng, A. Petrone, 
 T. Henderson, D. Ranasinghe, V. G. Zakrzewski, J. Gao, N. Rega, 
 G. Zheng, W. Liang, M. Hada, M. Ehara, K. Toyota, R. Fukuda, 
 J. Hasegawa, M. Ishida, T. Nakajima, Y. Honda, O. Kitao, H. Nakai, 
 T. Vreven, K. Throssell, J. A. Montgomery, Jr., J. E. Peralta, 
 F. Ogliaro, M. J. Bearpark, J. J. Heyd, E. N. Brothers, K. N. Kudin, 
 V. N. Staroverov, T. A. Keith, R. Kobayashi, J. Normand, 
 K. Raghavachari, A. P. Rendell, J. C. Burant, S. S. Iyengar, 
 J. Tomasi, M. Cossi, J. M. Millam, M. Klene, C. Adamo, R. Cammi, 
 J. W. Ochterski, R. L. Martin, K. Morokuma, O. Farkas, 
 J. B. Foresman, and D. J. Fox, Gaussian, Inc., Wallingford CT, 2016.
 
 ******************************************
 Gaussian 16:  ES64L-G16RevA.03 25-Dec-2016
                11-Feb-2020 
 ******************************************
 %chk=checkpoint.chk
 %mem=3GB
 %nprocshared=4
 Will use up to    4 processors via shared memory.
 -------------------------------------------------------------------
 #t pop=none jul-cc-pvdz guess=read ub3lyp empiricaldispersion=gd3bj
 -------------------------------------------------------------------
 ------------------------------
 theory_abbreviation b3lyp_d3bj
 ------------------------------
 Symbolic Z-matrix:
 Charge =  0 Multiplicity = 6
 O                    -0.35093  -0.2093   -0.56639 
 C                    -1.36295  -1.16112  -0.43498 
 C                    -2.85689  -0.11398  -0.12814 
 C                    -2.08301   1.10981  -0.25039 
 C                    -1.94942   1.78945  -1.5586 
 Fe                    1.38793   0.04342   0.03444 
 Cl                    1.80687   2.06426  -0.78829 
 C                    -1.57453   1.82331   0.94155 
 Cl                    2.59895  -1.62891  -0.71718 
 Cl                    1.2952    0.09722   2.25717 
 H                    -3.48598  -0.28322  -1.00308 
 H                    -2.41996   2.4155    1.33097 
 H                    -1.25901   1.14622   1.73703 
 H                    -0.75679   2.50167   0.69195 
 H                    -2.63539   2.65282  -1.53488 
 H                    -0.93452   2.17727  -1.68863 
 H                    -2.23179   1.15156  -2.39696 
 C                    -3.57963  -0.41103   1.17386 
 H                    -4.41404   0.2848    1.32411 
 H                    -3.99723  -1.42113   1.14545 
 H                    -2.92571  -0.34549   2.04596 
 C                    -1.15856  -2.09332   0.73678 
 H                    -1.99064  -2.79264   0.85515 
 H                    -0.24887  -2.67271   0.53052 
 H                    -0.98974  -1.55043   1.66799 
 C                    -1.60142  -1.87598  -1.74883 
 H                    -0.69044  -2.43782  -1.98944 
 H                    -2.44347  -2.57246  -1.68592 
 H                    -1.77402  -1.16496  -2.56094 
 
                    Distance matrix (angstroms):
                    1          2          3          4          5
     1  O    0.000000
     2  C    1.395495   0.000000
     3  C    2.545777   1.849999   0.000000
     4  C    2.200002   2.389495   1.453108   0.000000
     5  C    2.744938   3.211281   2.548093   1.480257   0.000000
     6  Fe   1.857017   3.039514   4.250853   3.642217   4.089540
     7  Cl   3.142364   4.536043   5.189533   4.041222   3.844299
     8  C    2.811148   3.293386   2.557692   1.479304   2.528324
     9  Cl   3.277164   3.999390   5.692816   5.444189   5.751593
    10  Cl   3.282705   3.987084   4.793137   4.327294   5.286898
    11  H    3.166179   2.366574   1.090829   2.115521   2.639243
    12  H    3.843237   4.126509   2.952663   2.078239   2.993825
    13  H    2.822721   3.170525   2.760471   2.151775   3.428058
    14  H    3.016205   3.879873   3.453205   2.141058   2.644733
    15  H    3.787943   4.168336   3.111781   2.082285   1.102964
    16  H    2.701064   3.591662   3.373498   2.127678   1.094230
    17  H    2.956453   3.154796   2.672058   2.152126   1.090639
    18  C    3.673366   2.839832   1.518483   2.565409   3.868594
    19  H    4.508541   3.807123   2.166278   2.931454   4.080239
    20  H    4.206469   3.082981   2.151983   3.466742   4.670463
    21  H    3.670478   3.043443   2.187479   2.846280   4.301627
    22  C    2.428998   1.511227   2.747764   3.476952   4.579320
    23  H    3.373874   2.172623   2.982027   4.057084   5.179138
    24  H    2.698518   2.111466   3.712508   4.275675   5.212217
    25  H    2.683114   2.171020   2.962385   3.457210   4.742009
    26  C    2.395766   1.514626   2.703235   3.375234   3.686824
    27  H    2.665828   2.120985   3.682140   4.189182   4.431760
    28  H    3.349115   2.173533   2.939674   3.968601   4.391643
    29  H    2.629959   2.165334   2.862803   3.257095   3.124736
                    6          7          8          9         10
     6  Fe   0.000000
     7  Cl   2.221755   0.000000
     8  C    3.573095   3.805821   0.000000
     9  Cl   2.197313   3.777821   5.664546   0.000000
    10  Cl   2.225309   3.661407   3.597996   3.677777   0.000000
    11  H    4.993812   5.794057   3.445678   6.238503   5.799448
    12  H    4.669885   4.741394   1.103226   6.763259   4.476013
    13  H    3.334854   4.076724   1.091235   5.348673   2.809789
    14  H    3.327929   2.992458   1.091407   5.505295   3.527309
    15  H    5.045681   4.542855   2.818902   6.811767   6.029948
    16  H    3.593894   2.887663   2.729966   5.283569   4.986738
    17  H    4.499126   4.442035   3.468269   5.821404   5.933991
    18  C    5.116780   6.244315   3.011088   6.575261   5.019540
    19  H    5.948476   6.806503   3.252108   7.550570   5.788019
    20  H    5.690274   7.040945   4.054312   6.857267   5.617037
    21  H    4.775458   6.019740   2.783725   6.309041   4.249315
    22  C    3.397583   5.329646   3.943976   4.055680   3.623667
    23  H    4.486819   6.380555   4.635476   4.989065   4.594962
    24  H    3.209765   5.329563   4.705372   3.279686   3.610814
    25  H    3.295773   5.188476   3.500254   4.309737   2.877982
    26  C    3.974967   5.297598   4.574229   4.332250   5.322772
    27  H    3.817368   5.286593   5.246857   3.618431   5.329432
    28  H    4.947941   6.353762   5.194361   5.220605   6.054152
    29  H    4.265455   5.137402   4.608351   4.768387   5.850410
                   11         12         13         14         15
    11  H    0.000000
    12  H    3.723886   0.000000
    13  H    3.809317   1.767421   0.000000
    14  H    4.251735   1.783796   1.783718   0.000000
    15  H    3.102689   2.883720   3.856120   2.917326   0.000000
    16  H    3.610259   3.373617   3.592141   2.409145   1.772784
    17  H    2.361037   3.940872   4.246907   3.679652   1.777603
    18  C    2.182698   3.059211   2.850867   4.084661   4.197144
    19  H    2.568997   2.918270   3.296479   4.323152   4.116424
    20  H    2.484426   4.152342   3.799883   5.108275   5.063184
    21  H    3.100716   2.896562   2.257994   3.826733   4.679379
    22  C    3.423514   4.719501   3.391931   4.612738   5.465104
    23  H    3.462115   5.247431   4.102150   5.438635   5.981725
    24  H    4.305863   5.589661   4.130409   5.201754   6.190532
    25  H    3.869319   4.229387   2.710934   4.174489   5.534784
    26  C    2.577709   5.345280   4.626243   5.082775   4.650260
    27  H    3.664726   6.129530   5.201457   5.620748   5.468467
    28  H    2.606467   5.829402   5.191153   5.852000   5.230982
    29  H    2.476927   5.327653   4.907062   5.006014   4.046011
                   16         17         18         19         20
    16  H    0.000000
    17  H    1.799098   0.000000
    18  C    4.678646   4.124210   0.000000
    19  H    4.976456   4.399983   1.096807   0.000000
    20  H    5.510053   4.720610   1.093393   1.765171   0.000000
    21  H    4.927104   4.739438   1.091999   1.770155   1.765243
    22  C    4.916378   4.636965   2.980389   4.074130   2.945658
    23  H    5.682098   5.117726   2.880724   3.945053   2.447805
    24  H    5.377460   5.208378   4.077138   5.169649   3.999351
    25  H    5.016537   5.036592   2.872269   3.900275   3.055290
    26  C    4.108189   3.159658   3.821194   4.692839   3.784660
    27  H    4.631324   3.927533   4.739382   5.679560   4.668619
    28  H    4.983659   3.797193   3.760449   4.594268   3.428755
    29  H    3.554741   2.367002   4.216316   4.915795   4.329613
                   21         22         23         24         25
    21  H    0.000000
    22  C    2.809217   0.000000
    23  H    2.877669   1.093350   0.000000
    24  H    3.857205   1.098078   1.775815   0.000000
    25  H    2.311437   1.091046   1.790426   1.761320   0.000000
    26  C    4.300769   2.534094   2.787913   2.767599   3.486372
    27  H    5.065446   2.787487   3.147705   2.569111   3.775421
    28  H    4.372516   2.783893   2.590476   3.120727   3.795603
    29  H    4.818862   3.480745   3.790236   3.762511   4.318272
                   26         27         28         29
    26  C    0.000000
    27  H    1.097012   0.000000
    28  H    1.094575   1.784197   0.000000
    29  H    1.093094   1.766618   1.787418   0.000000
 Framework group  C1[X(C8H16Cl3FeO)]
 Deg. of freedom    81
                         Standard orientation:                         
 ---------------------------------------------------------------------
 Center     Atomic      Atomic             Coordinates (Angstroms)
 Number     Number       Type             X           Y           Z
 ---------------------------------------------------------------------
      1          8           0       -0.350932   -0.209304   -0.566385
      2          6           0       -1.362954   -1.161118   -0.434981
      3          6           0       -2.856893   -0.113982   -0.128143
      4          6           0       -2.083007    1.109815   -0.250393
      5          6           0       -1.949420    1.789452   -1.558601
      6         26           0        1.387932    0.043420    0.034444
      7         17           0        1.806874    2.064258   -0.788293
      8          6           0       -1.574528    1.823309    0.941545
      9         17           0        2.598946   -1.628911   -0.717181
     10         17           0        1.295196    0.097218    2.257169
     11          1           0       -3.485979   -0.283224   -1.003081
     12          1           0       -2.419963    2.415503    1.330973
     13          1           0       -1.259009    1.146219    1.737027
     14          1           0       -0.756786    2.501667    0.691952
     15          1           0       -2.635392    2.652823   -1.534880
     16          1           0       -0.934517    2.177272   -1.688628
     17          1           0       -2.231794    1.151560   -2.396964
     18          6           0       -3.579628   -0.411026    1.173859
     19          1           0       -4.414040    0.284796    1.324107
     20          1           0       -3.997232   -1.421129    1.145445
     21          1           0       -2.925714   -0.345489    2.045962
     22          6           0       -1.158561   -2.093321    0.736782
     23          1           0       -1.990638   -2.792644    0.855145
     24          1           0       -0.248871   -2.672713    0.530519
     25          1           0       -0.989737   -1.550425    1.667988
     26          6           0       -1.601417   -1.875978   -1.748831
     27          1           0       -0.690442   -2.437823   -1.989436
     28          1           0       -2.443472   -2.572455   -1.685922
     29          1           0       -1.774020   -1.164958   -2.560935
 ---------------------------------------------------------------------
 Rotational constants (GHZ):           0.5759670           0.3557837           0.3234669
   427 basis functions,  1056 primitive gaussians,   461 cartesian basis functions
    77 alpha electrons       72 beta electrons
       nuclear repulsion energy      1657.5499350109 Hartrees.
 NAtoms=   29 NActive=   29 NUniq=   29 SFac= 1.00D+00 NAtFMM=   60 NAOKFM=F Big=F
 Nuclear repulsion after empirical dispersion term =     1657.4810343426 Hartrees.
 Initial guess from the checkpoint file:  "checkpoint.chk"
 B after Tr=     0.000000    0.000000    0.000000
         Rot=    1.000000    0.000000    0.000000    0.000000 Ang=   0.00 deg.
 Initial guess <Sx>= 0.0000 <Sy>= 0.0000 <Sz>= 2.5000 <S**2>= 8.7617 S= 2.5019
 SCF Done:  E(UB3LYP) =  -3034.38429835     A.U. after    1 cycles
            NFock=  1  Conv=0.30D-08     -V/T= 2.0025
 <Sx>= 0.0000 <Sy>= 0.0000 <Sz>= 2.5000 <S**2>= 8.7617 S= 2.5019
 <L.S>= 0.000000000000E+00
 Annihilation of the first spin contaminant:
 S**2 before annihilation     8.7617,   after     8.7500
 1\1\GINC-HOLY7C04306\SP\UB3LYP\Jul-CC-pVDZ\C8H16Cl3Fe1O1(6)\EKWAN\11-F
 eb-2020\0\\#t pop=none jul-cc-pvdz guess=read ub3lyp empiricaldispersi
 on=gd3bj\\theory_abbreviation b3lyp_d3bj\\0,6\O,0,-0.350932,-0.209304,
 -0.566385\C,0,-1.362954,-1.161118,-0.434981\C,0,-2.856893,-0.113982,-0
 .128143\C,0,-2.083007,1.109815,-0.250393\C,0,-1.94942,1.789452,-1.5586
 01\Fe,0,1.387932,0.04342,0.034444\Cl,0,1.806874,2.064258,-0.788293\C,0
 ,-1.574528,1.823309,0.941545\Cl,0,2.598946,-1.628911,-0.717181\Cl,0,1.
 295196,0.097218,2.257169\H,0,-3.485979,-0.283224,-1.003081\H,0,-2.4199
 63,2.415503,1.330973\H,0,-1.259009,1.146219,1.737027\H,0,-0.756786,2.5
 01667,0.691952\H,0,-2.635392,2.652823,-1.53488\H,0,-0.934517,2.177272,
 -1.688628\H,0,-2.231794,1.15156,-2.396964\C,0,-3.579628,-0.411026,1.17
 3859\H,0,-4.41404,0.284796,1.324107\H,0,-3.997232,-1.421129,1.145445\H
 ,0,-2.925714,-0.345489,2.045962\C,0,-1.158561,-2.093321,0.736782\H,0,-
 1.990638,-2.792644,0.855145\H,0,-0.248871,-2.672713,0.530519\H,0,-0.98
 9737,-1.550425,1.667988\C,0,-1.601417,-1.875978,-1.748831\H,0,-0.69044
 2,-2.437823,-1.989436\H,0,-2.443472,-2.572455,-1.685922\H,0,-1.77402,-
 1.164958,-2.560935\\Version=ES64L-G16RevA.03\HF=-3034.3842983\S2=8.761
 676\S2-1=0.\S2A=8.750043\RMSD=2.990e-09\PG=C01 [X(C8H16Cl3Fe1O1)]\\@


 IF IT HAPPENS, IT MUST BE POSSIBLE.

 -- THE UNNAMED LAW FROM PAUL DICKSON'S 
    "THE OFFICIAL RULES"
 Job cpu time:       0 days  0 hours  4 minutes 46.8 seconds.
 Elapsed time:       0 days  0 hours  1 minutes 12.3 seconds.
 File lengths (MBytes):  RWF=    170 Int=      0 D2E=      0 Chk=     13 Scr=      1
 Normal termination of Gaussian 16 at Tue Feb 11 14:17:25 2020.
 Initial command:
 /n/sw/g16_nehalem/g16/l1.exe "/scratch/Gau-132040.inp" -scrdir="/scratch/"
 Entering Link 1 = /n/sw/g16_nehalem/g16/l1.exe PID=    137435.
  
 Copyright (c) 1988,1990,1992,1993,1995,1998,2003,2009,2016,
            Gaussian, Inc.  All Rights Reserved.
  
 This is part of the Gaussian(R) 16 program.  It is based on
 the Gaussian(R) 09 system (copyright 2009, Gaussian, Inc.),
 the Gaussian(R) 03 system (copyright 2003, Gaussian, Inc.),
 the Gaussian(R) 98 system (copyright 1998, Gaussian, Inc.),
 the Gaussian(R) 94 system (copyright 1995, Gaussian, Inc.),
 the Gaussian 92(TM) system (copyright 1992, Gaussian, Inc.),
 the Gaussian 90(TM) system (copyright 1990, Gaussian, Inc.),
 the Gaussian 88(TM) system (copyright 1988, Gaussian, Inc.),
 the Gaussian 86(TM) system (copyright 1986, Carnegie Mellon
 University), and the Gaussian 82(TM) system (copyright 1983,
 Carnegie Mellon University). Gaussian is a federally registered
 trademark of Gaussian, Inc.
  
 This software contains proprietary and confidential information,
 including trade secrets, belonging to Gaussian, Inc.
  
 This software is provided under written license and may be
 used, copied, transmitted, or stored only in accord with that
 written license.
  
 The following legend is applicable only to US Government
 contracts under FAR:
  
                    RESTRICTED RIGHTS LEGEND
  
 Use, reproduction and disclosure by the US Government is
 subject to restrictions as set forth in subparagraphs (a)
 and (c) of the Commercial Computer Software - Restricted
 Rights clause in FAR 52.227-19.
  
 Gaussian, Inc.
 340 Quinnipiac St., Bldg. 40, Wallingford CT 06492
  
  
 ---------------------------------------------------------------
 Warning -- This program may not be used in any manner that
 competes with the business of Gaussian, Inc. or will provide
 assistance to any competitor of Gaussian, Inc.  The licensee
 of this program is prohibited from giving any competitor of
 Gaussian, Inc. access to this program.  By using this program,
 the user acknowledges that Gaussian, Inc. is engaged in the
 business of creating and licensing software in the field of
 computational chemistry and represents and warrants to the
 licensee that it is not a competitor of Gaussian, Inc. and that
 it will not use this program in any manner prohibited above.
 ---------------------------------------------------------------
  

 Cite this work as:
 Gaussian 16, Revision A.03,
 M. J. Frisch, G. W. Trucks, H. B. Schlegel, G. E. Scuseria, 
 M. A. Robb, J. R. Cheeseman, G. Scalmani, V. Barone, 
 G. A. Petersson, H. Nakatsuji, X. Li, M. Caricato, A. V. Marenich, 
 J. Bloino, B. G. Janesko, R. Gomperts, B. Mennucci, H. P. Hratchian, 
 J. V. Ortiz, A. F. Izmaylov, J. L. Sonnenberg, D. Williams-Young, 
 F. Ding, F. Lipparini, F. Egidi, J. Goings, B. Peng, A. Petrone, 
 T. Henderson, D. Ranasinghe, V. G. Zakrzewski, J. Gao, N. Rega, 
 G. Zheng, W. Liang, M. Hada, M. Ehara, K. Toyota, R. Fukuda, 
 J. Hasegawa, M. Ishida, T. Nakajima, Y. Honda, O. Kitao, H. Nakai, 
 T. Vreven, K. Throssell, J. A. Montgomery, Jr., J. E. Peralta, 
 F. Ogliaro, M. J. Bearpark, J. J. Heyd, E. N. Brothers, K. N. Kudin, 
 V. N. Staroverov, T. A. Keith, R. Kobayashi, J. Normand, 
 K. Raghavachari, A. P. Rendell, J. C. Burant, S. S. Iyengar, 
 J. Tomasi, M. Cossi, J. M. Millam, M. Klene, C. Adamo, R. Cammi, 
 J. W. Ochterski, R. L. Martin, K. Morokuma, O. Farkas, 
 J. B. Foresman, and D. J. Fox, Gaussian, Inc., Wallingford CT, 2016.
 
 ******************************************
 Gaussian 16:  ES64L-G16RevA.03 25-Dec-2016
                11-Feb-2020 
 ******************************************
 %chk=checkpoint.chk
 %mem=3GB
 %nprocshared=4
 Will use up to    4 processors via shared memory.
 ----------------------------------------
 #t pop=none jul-cc-pvdz guess=read ub97d
 ----------------------------------------
 ------------------------
 theory_abbreviation b97d
 ------------------------
 Symbolic Z-matrix:
 Charge =  0 Multiplicity = 6
 O                    -0.35093  -0.2093   -0.56639 
 C                    -1.36295  -1.16112  -0.43498 
 C                    -2.85689  -0.11398  -0.12814 
 C                    -2.08301   1.10981  -0.25039 
 C                    -1.94942   1.78945  -1.5586 
 Fe                    1.38793   0.04342   0.03444 
 Cl                    1.80687   2.06426  -0.78829 
 C                    -1.57453   1.82331   0.94155 
 Cl                    2.59895  -1.62891  -0.71718 
 Cl                    1.2952    0.09722   2.25717 
 H                    -3.48598  -0.28322  -1.00308 
 H                    -2.41996   2.4155    1.33097 
 H                    -1.25901   1.14622   1.73703 
 H                    -0.75679   2.50167   0.69195 
 H                    -2.63539   2.65282  -1.53488 
 H                    -0.93452   2.17727  -1.68863 
 H                    -2.23179   1.15156  -2.39696 
 C                    -3.57963  -0.41103   1.17386 
 H                    -4.41404   0.2848    1.32411 
 H                    -3.99723  -1.42113   1.14545 
 H                    -2.92571  -0.34549   2.04596 
 C                    -1.15856  -2.09332   0.73678 
 H                    -1.99064  -2.79264   0.85515 
 H                    -0.24887  -2.67271   0.53052 
 H                    -0.98974  -1.55043   1.66799 
 C                    -1.60142  -1.87598  -1.74883 
 H                    -0.69044  -2.43782  -1.98944 
 H                    -2.44347  -2.57246  -1.68592 
 H                    -1.77402  -1.16496  -2.56094 
 
                    Distance matrix (angstroms):
                    1          2          3          4          5
     1  O    0.000000
     2  C    1.395495   0.000000
     3  C    2.545777   1.849999   0.000000
     4  C    2.200002   2.389495   1.453108   0.000000
     5  C    2.744938   3.211281   2.548093   1.480257   0.000000
     6  Fe   1.857017   3.039514   4.250853   3.642217   4.089540
     7  Cl   3.142364   4.536043   5.189533   4.041222   3.844299
     8  C    2.811148   3.293386   2.557692   1.479304   2.528324
     9  Cl   3.277164   3.999390   5.692816   5.444189   5.751593
    10  Cl   3.282705   3.987084   4.793137   4.327294   5.286898
    11  H    3.166179   2.366574   1.090829   2.115521   2.639243
    12  H    3.843237   4.126509   2.952663   2.078239   2.993825
    13  H    2.822721   3.170525   2.760471   2.151775   3.428058
    14  H    3.016205   3.879873   3.453205   2.141058   2.644733
    15  H    3.787943   4.168336   3.111781   2.082285   1.102964
    16  H    2.701064   3.591662   3.373498   2.127678   1.094230
    17  H    2.956453   3.154796   2.672058   2.152126   1.090639
    18  C    3.673366   2.839832   1.518483   2.565409   3.868594
    19  H    4.508541   3.807123   2.166278   2.931454   4.080239
    20  H    4.206469   3.082981   2.151983   3.466742   4.670463
    21  H    3.670478   3.043443   2.187479   2.846280   4.301627
    22  C    2.428998   1.511227   2.747764   3.476952   4.579320
    23  H    3.373874   2.172623   2.982027   4.057084   5.179138
    24  H    2.698518   2.111466   3.712508   4.275675   5.212217
    25  H    2.683114   2.171020   2.962385   3.457210   4.742009
    26  C    2.395766   1.514626   2.703235   3.375234   3.686824
    27  H    2.665828   2.120985   3.682140   4.189182   4.431760
    28  H    3.349115   2.173533   2.939674   3.968601   4.391643
    29  H    2.629959   2.165334   2.862803   3.257095   3.124736
                    6          7          8          9         10
     6  Fe   0.000000
     7  Cl   2.221755   0.000000
     8  C    3.573095   3.805821   0.000000
     9  Cl   2.197313   3.777821   5.664546   0.000000
    10  Cl   2.225309   3.661407   3.597996   3.677777   0.000000
    11  H    4.993812   5.794057   3.445678   6.238503   5.799448
    12  H    4.669885   4.741394   1.103226   6.763259   4.476013
    13  H    3.334854   4.076724   1.091235   5.348673   2.809789
    14  H    3.327929   2.992458   1.091407   5.505295   3.527309
    15  H    5.045681   4.542855   2.818902   6.811767   6.029948
    16  H    3.593894   2.887663   2.729966   5.283569   4.986738
    17  H    4.499126   4.442035   3.468269   5.821404   5.933991
    18  C    5.116780   6.244315   3.011088   6.575261   5.019540
    19  H    5.948476   6.806503   3.252108   7.550570   5.788019
    20  H    5.690274   7.040945   4.054312   6.857267   5.617037
    21  H    4.775458   6.019740   2.783725   6.309041   4.249315
    22  C    3.397583   5.329646   3.943976   4.055680   3.623667
    23  H    4.486819   6.380555   4.635476   4.989065   4.594962
    24  H    3.209765   5.329563   4.705372   3.279686   3.610814
    25  H    3.295773   5.188476   3.500254   4.309737   2.877982
    26  C    3.974967   5.297598   4.574229   4.332250   5.322772
    27  H    3.817368   5.286593   5.246857   3.618431   5.329432
    28  H    4.947941   6.353762   5.194361   5.220605   6.054152
    29  H    4.265455   5.137402   4.608351   4.768387   5.850410
                   11         12         13         14         15
    11  H    0.000000
    12  H    3.723886   0.000000
    13  H    3.809317   1.767421   0.000000
    14  H    4.251735   1.783796   1.783718   0.000000
    15  H    3.102689   2.883720   3.856120   2.917326   0.000000
    16  H    3.610259   3.373617   3.592141   2.409145   1.772784
    17  H    2.361037   3.940872   4.246907   3.679652   1.777603
    18  C    2.182698   3.059211   2.850867   4.084661   4.197144
    19  H    2.568997   2.918270   3.296479   4.323152   4.116424
    20  H    2.484426   4.152342   3.799883   5.108275   5.063184
    21  H    3.100716   2.896562   2.257994   3.826733   4.679379
    22  C    3.423514   4.719501   3.391931   4.612738   5.465104
    23  H    3.462115   5.247431   4.102150   5.438635   5.981725
    24  H    4.305863   5.589661   4.130409   5.201754   6.190532
    25  H    3.869319   4.229387   2.710934   4.174489   5.534784
    26  C    2.577709   5.345280   4.626243   5.082775   4.650260
    27  H    3.664726   6.129530   5.201457   5.620748   5.468467
    28  H    2.606467   5.829402   5.191153   5.852000   5.230982
    29  H    2.476927   5.327653   4.907062   5.006014   4.046011
                   16         17         18         19         20
    16  H    0.000000
    17  H    1.799098   0.000000
    18  C    4.678646   4.124210   0.000000
    19  H    4.976456   4.399983   1.096807   0.000000
    20  H    5.510053   4.720610   1.093393   1.765171   0.000000
    21  H    4.927104   4.739438   1.091999   1.770155   1.765243
    22  C    4.916378   4.636965   2.980389   4.074130   2.945658
    23  H    5.682098   5.117726   2.880724   3.945053   2.447805
    24  H    5.377460   5.208378   4.077138   5.169649   3.999351
[...]
       nuclear repulsion energy      1657.5499350109 Hartrees.
 NAtoms=   29 NActive=   29 NUniq=   29 SFac= 1.00D+00 NAtFMM=   60 NAOKFM=F Big=F
 Nuclear repulsion after empirical dispersion term =     1657.5475162321 Hartrees.
 Initial guess from the checkpoint file:  "checkpoint.chk"
 B after Tr=     0.000000    0.000000    0.000000
         Rot=    1.000000    0.000000    0.000000    0.000000 Ang=   0.00 deg.
 Initial guess <Sx>= 0.0000 <Sy>= 0.0000 <Sz>= 2.5000 <S**2>= 8.7614 S= 2.5019
 SCF Done:  E(UM06L) =  -3034.18012716     A.U. after   18 cycles
            NFock= 18  Conv=0.33D-08     -V/T= 2.0021
 <Sx>= 0.0000 <Sy>= 0.0000 <Sz>= 2.5000 <S**2>= 8.7618 S= 2.5020
 <L.S>= 0.000000000000E+00
 Annihilation of the first spin contaminant:
 S**2 before annihilation     8.7618,   after     8.7500
 1\1\GINC-HOLY7C04306\SP\UM06L\Jul-CC-pVDZ\C8H16Cl3Fe1O1(6)\EKWAN\11-Fe
 b-2020\0\\#t pop=none jul-cc-pvdz guess=read um06l empiricaldispersion
 =gd3\\theory_abbreviation m06l_d3\\0,6\O,0,-0.350932,-0.209304,-0.5663
 85\C,0,-1.362954,-1.161118,-0.434981\C,0,-2.856893,-0.113982,-0.128143
 \C,0,-2.083007,1.109815,-0.250393\C,0,-1.94942,1.789452,-1.558601\Fe,0
 ,1.387932,0.04342,0.034444\Cl,0,1.806874,2.064258,-0.788293\C,0,-1.574
 528,1.823309,0.941545\Cl,0,2.598946,-1.628911,-0.717181\Cl,0,1.295196,
 0.097218,2.257169\H,0,-3.485979,-0.283224,-1.003081\H,0,-2.419963,2.41
 5503,1.330973\H,0,-1.259009,1.146219,1.737027\H,0,-0.756786,2.501667,0
 .691952\H,0,-2.635392,2.652823,-1.53488\H,0,-0.934517,2.177272,-1.6886
 28\H,0,-2.231794,1.15156,-2.396964\C,0,-3.579628,-0.411026,1.173859\H,
 0,-4.41404,0.284796,1.324107\H,0,-3.997232,-1.421129,1.145445\H,0,-2.9
 25714,-0.345489,2.045962\C,0,-1.158561,-2.093321,0.736782\H,0,-1.99063
 8,-2.792644,0.855145\H,0,-0.248871,-2.672713,0.530519\H,0,-0.989737,-1
 .550425,1.667988\C,0,-1.601417,-1.875978,-1.748831\H,0,-0.690442,-2.43
 7823,-1.989436\H,0,-2.443472,-2.572455,-1.685922\H,0,-1.77402,-1.16495
 8,-2.560935\\Version=ES64L-G16RevA.03\HF=-3034.1801272\S2=8.76177\S2-1
 =0.\S2A=8.750045\RMSD=3.327e-09\PG=C01 [X(C8H16Cl3Fe1O1)]\\@


 KEEP CLOSE TO NATURES HEART, YOURSELF;
 AND BREAK CLEAR AWAY, ONCE IN A WHILE, AND
 CLIMB A MOUNTAIN OR SPEND A WEEK IN THE
 WOODS.  WASH YOUR SPIRIT CLEAN...
                                         -- JOHN MUIR
 Job cpu time:       0 days  1 hours 23 minutes 21.6 seconds.
 Elapsed time:       0 days  0 hours 20 minutes 54.0 seconds.
 File lengths (MBytes):  RWF=    174 Int=      0 D2E=      0 Chk=     13 Scr=      1
 Normal termination of Gaussian 16 at Tue Feb 11 23:21:49 2020.
 Initial command:
 /n/sw/g16_nehalem/g16/l1.exe "/scratch/Gau-132040.inp" -scrdir="/scratch/"
 Entering Link 1 = /n/sw/g16_nehalem/g16/l1.exe PID=    198421.
  
 Copyright (c) 1988,1990,1992,1993,1995,1998,2003,2009,2016,
            Gaussian, Inc.  All Rights Reserved.
  
 This is part of the Gaussian(R) 16 program.  It is based on
 the Gaussian(R) 09 system (copyright 2009, Gaussian, Inc.),
 the Gaussian(R) 03 system (copyright 2003, Gaussian, Inc.),
 the Gaussian(R) 98 system (copyright 1998, Gaussian, Inc.),
 the Gaussian(R) 94 system (copyright 1995, Gaussian, Inc.),
 the Gaussian 92(TM) system (copyright 1992, Gaussian, Inc.),
 the Gaussian 90(TM) system (copyright 1990, Gaussian, Inc.),
 the Gaussian 88(TM) system (copyright 1988, Gaussian, Inc.),
 the Gaussian 86(TM) system (copyright 1986, Carnegie Mellon
 University), and the Gaussian 82(TM) system (copyright 1983,
 Carnegie Mellon University). Gaussian is a federally registered
 trademark of Gaussian, Inc.
  
 This software contains proprietary and confidential information,
 including trade secrets, belonging to Gaussian, Inc.
  
 This software is provided under written license and may be
 used, copied, transmitted, or stored only in accord with that
 written license.
  
 The following legend is applicable only to US Government
 contracts under FAR:
  
                    RESTRICTED RIGHTS LEGEND
  
 Use, reproduction and disclosure by the US Government is
 subject to restrictions as set forth in subparagraphs (a)
 and (c) of the Commercial Computer Software - Restricted
 Rights clause in FAR 52.227-19.
  
 Gaussian, Inc.
 340 Quinnipiac St., Bldg. 40, Wallingford CT 06492
  
  
 ---------------------------------------------------------------
 Warning -- This program may not be used in any manner that
 competes with the business of Gaussian, Inc. or will provide
 assistance to any competitor of Gaussian, Inc.  The licensee
 of this program is prohibited from giving any competitor of
 Gaussian, Inc. access to this program.  By using this program,
 the user acknowledges that Gaussian, Inc. is engaged in the
 business of creating and licensing software in the field of
 computational chemistry and represents and warrants to the
 licensee that it is not a competitor of Gaussian, Inc. and that
 it will not use this program in any manner prohibited above.
 ---------------------------------------------------------------
  

 Cite this work as:
 Gaussian 16, Revision A.03,
 M. J. Frisch, G. W. Trucks, H. B. Schlegel, G. E. Scuseria, 
 M. A. Robb, J. R. Cheeseman, G. Scalmani, V. Barone, 
 G. A. Petersson, H. Nakatsuji, X. Li, M. Caricato, A. V. Marenich, 
 J. Bloino, B. G. Janesko, R. Gomperts, B. Mennucci, H. P. Hratchian, 
 J. V. Ortiz, A. F. Izmaylov, J. L. Sonnenberg, D. Williams-Young, 
 F. Ding, F. Lipparini, F. Egidi, J. Goings, B. Peng, A. Petrone, 
 T. Henderson, D. Ranasinghe, V. G. Zakrzewski, J. Gao, N. Rega, 
 G. Zheng, W. Liang, M. Hada, M. Ehara, K. Toyota, R. Fukuda, 
 J. Hasegawa, M. Ishida, T. Nakajima, Y. Honda, O. Kitao, H. Nakai, 
 T. Vreven, K. Throssell, J. A. Montgomery, Jr., J. E. Peralta, 
 F. Ogliaro, M. J. Bearpark, J. J. Heyd, E. N. Brothers, K. N. Kudin, 
 V. N. Staroverov, T. A. Keith, R. Kobayashi, J. Normand, 
 K. Raghavachari, A. P. Rendell, J. C. Burant, S. S. Iyengar, 
 J. Tomasi, M. Cossi, J. M. Millam, M. Klene, C. Adamo, R. Cammi, 
 J. W. Ochterski, R. L. Martin, K. Morokuma, O. Farkas, 
 J. B. Foresman, and D. J. Fox, Gaussian, Inc., Wallingford CT, 2016.
 
 ******************************************
 Gaussian 16:  ES64L-G16RevA.03 25-Dec-2016
                11-Feb-2020 
 ******************************************
 %chk=checkpoint.chk
 %mem=3GB
 %nprocshared=4
 Will use up to    4 processors via shared memory.
 -------------------------------------------------------------------
 #t pop=none jul-cc-pvdz guess=read ub97d3 empiricaldispersion=gd3bj
 -------------------------------------------------------------------
 ------------------------------
 theory_abbreviation b97d3_d3bj
 ------------------------------
 Symbolic Z-matrix:
 Charge =  0 Multiplicity = 6
 O                    -0.35093  -0.2093   -0.56639 
 C                    -1.36295  -1.16112  -0.43498 
 C                    -2.85689  -0.11398  -0.12814 
 C                    -2.08301   1.10981  -0.25039 
 C                    -1.94942   1.78945  -1.5586 
 Fe                    1.38793   0.04342   0.03444 
 Cl                    1.80687   2.06426  -0.78829 
 C                    -1.57453   1.82331   0.94155 
 Cl                    2.59895  -1.62891  -0.71718 
 Cl                    1.2952    0.09722   2.25717 
 H                    -3.48598  -0.28322  -1.00308 
 H                    -2.41996   2.4155    1.33097 
 H                    -1.25901   1.14622   1.73703 
 H                    -0.75679   2.50167   0.69195 
 H                    -2.63539   2.65282  -1.53488 
 H                    -0.93452   2.17727  -1.68863 
 H                    -2.23179   1.15156  -2.39696 
 C                    -3.57963  -0.41103   1.17386 
 H                    -4.41404   0.2848    1.32411 
 H                    -3.99723  -1.42113   1.14545 
 H                    -2.92571  -0.34549   2.04596 
 C                    -1.15856  -2.09332   0.73678 
 H                    -1.99064  -2.79264   0.85515 
 H                    -0.24887  -2.67271   0.53052 
 H                    -0.98974  -1.55043   1.66799 
 C                    -1.60142  -1.87598  -1.74883 
 H                    -0.69044  -2.43782  -1.98944 
 H                    -2.44347  -2.57246  -1.68592 
 H                    -1.77402  -1.16496  -2.56094 
 
                    Distance matrix (angstroms):
                    1          2          3          4          5
     1  O    0.000000
     2  C    1.395495   0.000000
     3  C    2.545777   1.849999   0.000000
     4  C    2.200002   2.389495   1.453108   0.000000
     5  C    2.744938   3.211281   2.548093   1.480257   0.000000
     6  Fe   1.857017   3.039514   4.250853   3.642217   4.089540
     7  Cl   3.142364   4.536043   5.189533   4.041222   3.844299
     8  C    2.811148   3.293386   2.557692   1.479304   2.528324
     9  Cl   3.277164   3.999390   5.692816   5.444189   5.751593
    10  Cl   3.282705   3.987084   4.793137   4.327294   5.286898
    11  H    3.166179   2.366574   1.090829   2.115521   2.639243
    12  H    3.843237   4.126509   2.952663   2.078239   2.993825
    13  H    2.822721   3.170525   2.760471   2.151775   3.428058
    14  H    3.016205   3.879873   3.453205   2.141058   2.644733
    15  H    3.787943   4.168336   3.111781   2.082285   1.102964
    16  H    2.701064   3.591662   3.373498   2.127678   1.094230
    17  H    2.956453   3.154796   2.672058   2.152126   1.090639
    18  C    3.673366   2.839832   1.518483   2.565409   3.868594
    19  H    4.508541   3.807123   2.166278   2.931454   4.080239
    20  H    4.206469   3.082981   2.151983   3.466742   4.670463
    21  H    3.670478   3.043443   2.187479   2.846280   4.301627
    22  C    2.428998   1.511227   2.747764   3.476952   4.579320
    23  H    3.373874   2.172623   2.982027   4.057084   5.179138
    24  H    2.698518   2.111466   3.712508   4.275675   5.212217
    25  H    2.683114   2.171020   2.962385   3.457210   4.742009
    26  C    2.395766   1.514626   2.703235   3.375234   3.686824
    27  H    2.665828   2.120985   3.682140   4.189182   4.431760
    28  H    3.349115   2.173533   2.939674   3.968601   4.391643
    29  H    2.629959   2.165334   2.862803   3.257095   3.124736
                    6          7          8          9         10
     6  Fe   0.000000
     7  Cl   2.221755   0.000000
     8  C    3.573095   3.805821   0.000000
     9  Cl   2.197313   3.777821   5.664546   0.000000
    10  Cl   2.225309   3.661407   3.597996   3.677777   0.000000
    11  H    4.993812   5.794057   3.445678   6.238503   5.799448
    12  H    4.669885   4.741394   1.103226   6.763259   4.476013
    13  H    3.334854   4.076724   1.091235   5.348673   2.809789
    14  H    3.327929   2.992458   1.091407   5.505295   3.527309
    15  H    5.045681   4.542855   2.818902   6.811767   6.029948
    16  H    3.593894   2.887663   2.729966   5.283569   4.986738
    17  H    4.499126   4.442035   3.468269   5.821404   5.933991
    18  C    5.116780   6.244315   3.011088   6.575261   5.019540
    19  H    5.948476   6.806503   3.252108   7.550570   5.788019
    20  H    5.690274   7.040945   4.054312   6.857267   5.617037
    21  H    4.775458   6.019740   2.783725   6.309041   4.249315
    22  C    3.397583   5.329646   3.943976   4.055680   3.623667
    23  H    4.486819   6.380555   4.635476   4.989065   4.594962
    24  H    3.209765   5.329563   4.705372   3.279686   3.610814
    25  H    3.295773   5.188476   3.500254   4.309737   2.877982
    26  C    3.974967   5.297598   4.574229   4.332250   5.322772
    27  H    3.817368   5.286593   5.246857   3.618431   5.329432
    28  H    4.947941   6.353762   5.194361   5.220605   6.054152
    29  H    4.265455   5.137402   4.608351   4.768387   5.850410
                   11         12         13         14         15
    11  H    0.000000
    12  H    3.723886   0.000000
    13  H    3.809317   1.767421   0.000000
    14  H    4.251735   1.783796   1.783718   0.000000
    15  H    3.102689   2.883720   3.856120   2.917326   0.000000
    16  H    3.610259   3.373617   3.592141   2.409145   1.772784
    17  H    2.361037   3.940872   4.246907   3.679652   1.777603
    18  C    2.182698   3.059211   2.850867   4.084661   4.197144
    19  H    2.568997   2.918270   3.296479   4.323152   4.116424
    20  H    2.484426   4.152342   3.799883   5.108275   5.063184
    21  H    3.100716   2.896562   2.257994   3.826733   4.679379
    22  C    3.423514   4.719501   3.391931   4.612738   5.465104
    23  H    3.462115   5.247431   4.102150   5.438635   5.981725
    24  H    4.305863   5.589661   4.130409   5.201754   6.190532
    25  H    3.869319   4.229387   2.710934   4.174489   5.534784
    26  C    2.577709   5.345280   4.626243   5.082775   4.650260
    27  H    3.664726   6.129530   5.201457   5.620748   5.468467
    28  H    2.606467   5.829402   5.191153   5.852000   5.230982
    29  H    2.476927   5.327653   4.907062   5.006014   4.046011
                   16         17         18         19         20
    16  H    0.000000
    17  H    1.799098   0.000000
    18  C    4.678646   4.124210   0.000000
    19  H    4.976456   4.399983   1.096807   0.000000
    20  H    5.510053   4.720610   1.093393   1.765171   0.000000
    21  H    4.927104   4.739438   1.091999   1.770155   1.765243
    22  C    4.916378   4.636965   2.980389   4.074130   2.945658
    23  H    5.682098   5.117726   2.880724   3.945053   2.447805
    24  H    5.377460   5.208378   4.077138   5.169649   3.999351
    25  H    5.016537   5.036592   2.872269   3.900275   3.055290
    26  C    4.108189   3.159658   3.821194   4.692839   3.784660
    27  H    4.631324   3.927533   4.739382   5.679560   4.668619
    28  H    4.983659   3.797193   3.760449   4.594268   3.428755
    29  H    3.554741   2.367002   4.216316   4.915795   4.329613
                   21         22         23         24         25
    21  H    0.000000
    22  C    2.809217   0.000000
    23  H    2.877669   1.093350   0.000000
    24  H    3.857205   1.098078   1.775815   0.000000
    25  H    2.311437   1.091046   1.790426   1.761320   0.000000
    26  C    4.300769   2.534094   2.787913   2.767599   3.486372
    27  H    5.065446   2.787487   3.147705   2.569111   3.775421
    28  H    4.372516   2.783893   2.590476   3.120727   3.795603
    29  H    4.818862   3.480745   3.790236   3.762511   4.318272
                   26         27         28         29
    26  C    0.000000
    27  H    1.097012   0.000000
    28  H    1.094575   1.784197   0.000000
    29  H    1.093094   1.766618   1.787418   0.000000
 Framework group  C1[X(C8H16Cl3FeO)]
 Deg. of freedom    81
                         Standard orientation:                         
 ---------------------------------------------------------------------
 Center     Atomic      Atomic             Coordinates (Angstroms)
 Number     Number       Type             X           Y           Z
 ---------------------------------------------------------------------
      1          8           0       -0.350932   -0.209304   -0.566385
      2          6           0       -1.362954   -1.161118   -0.434981
      3          6           0       -2.856893   -0.113982   -0.128143
      4          6           0       -2.083007    1.109815   -0.250393
      5          6           0       -1.949420    1.789452   -1.558601
      6         26           0        1.387932    0.043420    0.034444
      7         17           0        1.806874    2.064258   -0.788293
      8          6           0       -1.574528    1.823309    0.941545
      9         17           0        2.598946   -1.628911   -0.717181
     10         17           0        1.295196    0.097218    2.257169
     11          1           0       -3.485979   -0.283224   -1.003081
     12          1           0       -2.419963    2.415503    1.330973
     13          1           0       -1.259009    1.146219    1.737027
     14          1           0       -0.756786    2.501667    0.691952
     15          1           0       -2.635392    2.652823   -1.534880
     16          1           0       -0.934517    2.177272   -1.688628
     17          1           0       -2.231794    1.151560   -2.396964
     18          6           0       -3.579628   -0.411026    1.173859
     19          1           0       -4.414040    0.284796    1.324107
     20          1           0       -3.997232   -1.421129    1.145445
     21          1           0       -2.925714   -0.345489    2.045962
     22          6           0       -1.158561   -2.093321    0.736782
     23          1           0       -1.990638   -2.792644    0.855145
     24          1           0       -0.248871   -2.672713    0.530519
     25          1           0       -0.989737   -1.550425    1.667988
     26          6           0       -1.601417   -1.875978   -1.748831
     27          1           0       -0.690442   -2.437823   -1.989436
     28          1           0       -2.443472   -2.572455   -1.685922
     29          1           0       -1.774020   -1.164958   -2.560935
 ---------------------------------------------------------------------
 Rotational constants (GHZ):           0.5759670           0.3557837           0.3234669
   427 basis functions,  1056 primitive gaussians,   461 cartesian basis functions
    77 alpha electrons       72 beta electrons
       nuclear repulsion energy      1657.5499350109 Hartrees.
 NAtoms=   29 NActive=   29 NUniq=   29 SFac= 1.00D+00 NAtFMM=   60 NAOKFM=F Big=F
 Nuclear repulsion after empirical dispersion term =     1657.4490941816 Hartrees.
 Initial guess from the checkpoint file:  "checkpoint.chk"
 B after Tr=     0.000000    0.000000    0.000000
         Rot=    1.000000    0.000000    0.000000    0.000000 Ang=   0.00 deg.
 Initial guess <Sx>= 0.0000 <Sy>= 0.0000 <Sz>= 2.5000 <S**2>= 8.7618 S= 2.5020
 SCF Done:  E(UB97D3) =  -3034.60188566     A.U. after   14 cycles
            NFock= 14  Conv=0.84D-08     -V/T= 2.0020
 <Sx>= 0.0000 <Sy>= 0.0000 <Sz>= 2.5000 <S**2>= 8.7599 S= 2.5017
 <L.S>= 0.000000000000E+00
 Annihilation of the first spin contaminant:
 S**2 before annihilation     8.7599,   after     8.7500
 1\1\GINC-HOLY7C04306\SP\UB97D3\Jul-CC-pVDZ\C8H16Cl3Fe1O1(6)\EKWAN\11-F
 eb-2020\0\\#t pop=none jul-cc-pvdz guess=read ub97d3 empiricaldispersi
 on=gd3bj\\theory_abbreviation b97d3_d3bj\\0,6\O,0,-0.350932,-0.209304,
 -0.566385\C,0,-1.362954,-1.161118,-0.434981\C,0,-2.856893,-0.113982,-0
 .128143\C,0,-2.083007,1.109815,-0.250393\C,0,-1.94942,1.789452,-1.5586
 01\Fe,0,1.387932,0.04342,0.034444\Cl,0,1.806874,2.064258,-0.788293\C,0
 ,-1.574528,1.823309,0.941545\Cl,0,2.598946,-1.628911,-0.717181\Cl,0,1.
 295196,0.097218,2.257169\H,0,-3.485979,-0.283224,-1.003081\H,0,-2.4199
 63,2.415503,1.330973\H,0,-1.259009,1.146219,1.737027\H,0,-0.756786,2.5
 01667,0.691952\H,0,-2.635392,2.652823,-1.53488\H,0,-0.934517,2.177272,
 -1.688628\H,0,-2.231794,1.15156,-2.396964\C,0,-3.579628,-0.411026,1.17
 3859\H,0,-4.41404,0.284796,1.324107\H,0,-3.997232,-1.421129,1.145445\H
 ,0,-2.925714,-0.345489,2.045962\C,0,-1.158561,-2.093321,0.736782\H,0,-
 1.990638,-2.792644,0.855145\H,0,-0.248871,-2.672713,0.530519\H,0,-0.98
 9737,-1.550425,1.667988\C,0,-1.601417,-1.875978,-1.748831\H,0,-0.69044
 2,-2.437823,-1.989436\H,0,-2.443472,-2.572455,-1.685922\H,0,-1.77402,-
 1.164958,-2.560935\\Version=ES64L-G16RevA.03\HF=-3034.6018857\S2=8.759
 93\S2-1=0.\S2A=8.750032\RMSD=8.377e-09\PG=C01 [X(C8H16Cl3Fe1O1)]\\@


 "WOULD YOU TELL ME PLEASE, WHICH WAY I OUGHT TO WALK FROM HERE?"
 "THAT DEPENDS A GREAT DEAL ON WHERE YOU WANT TO GO," SAID THE CAT.
 "I DON'T MUCH CARE WHERE -- ", SAID ALICE.
 "THEN IT DOESN'T MATTER WHICH WAY YOU WALK," SAID THE CAT.

                                      -- LEWIS CARROLL
 Job cpu time:       0 days  0 hours 47 minutes 47.6 seconds.
 Elapsed time:       0 days  0 hours 11 minutes 59.1 seconds.
 File lengths (MBytes):  RWF=    174 Int=      0 D2E=      0 Chk=     13 Scr=      1
 Normal termination of Gaussian 16 at Tue Feb 11 23:33:49 2020.
