 Entering Gaussian System, Link 0=g16
 Input=simple-grid-250-265-b3lyp_d3bj-631gd-gas-singlepoint-DFT-juldz2-gas.gjf
 Output=simple-grid-250-265-b3lyp_d3bj-631gd-gas-singlepoint-DFT-juldz2-gas.out
 Initial command:
 /n/sw/g16_nehalem/g16/l1.exe "/scratch/Gau-85682.inp" -scrdir="/scratch/"
 Entering Link 1 = /n/sw/g16_nehalem/g16/l1.exe PID=     85689.
  
 Copyright (c) 1988,1990,1992,1993,1995,1998,2003,2009,2016,
            Gaussian, Inc.  All Rights Reserved.
  
 This is part of the Gaussian(R) 16 program.  It is based on
 the Gaussian(R) 09 system (copyright 2009, Gaussian, Inc.),
 the Gaussian(R) 03 system (copyright 2003, Gaussian, Inc.),
 the Gaussian(R) 98 system (copyright 1998, Gaussian, Inc.),
 the Gaussian(R) 94 system (copyright 1995, Gaussian, Inc.),
 the Gaussian 92(TM) system (copyright 1992, Gaussian, Inc.),
 the Gaussian 90(TM) system (copyright 1990, Gaussian, Inc.),
 the Gaussian 88(TM) system (copyright 1988, Gaussian, Inc.),
 the Gaussian 86(TM) system (copyright 1986, Carnegie Mellon
 University), and the Gaussian 82(TM) system (copyright 1983,
 Carnegie Mellon University). Gaussian is a federally registered
 trademark of Gaussian, Inc.
  
 This software contains proprietary and confidential information,
 including trade secrets, belonging to Gaussian, Inc.
  
 This software is provided under written license and may be
 used, copied, transmitted, or stored only in accord with that
 written license.
  
 The following legend is applicable only to US Government
 contracts under FAR:
  
                    RESTRICTED RIGHTS LEGEND
  
 Use, reproduction and disclosure by the US Government is
 subject to restrictions as set forth in subparagraphs (a)
 and (c) of the Commercial Computer Software - Restricted
 Rights clause in FAR 52.227-19.
  
 Gaussian, Inc.
 340 Quinnipiac St., Bldg. 40, Wallingford CT 06492
  
  
 ---------------------------------------------------------------
 Warning -- This program may not be used in any manner that
 competes with the business of Gaussian, Inc. or will provide
 assistance to any competitor of Gaussian, Inc.  The licensee
 of this program is prohibited from giving any competitor of
 Gaussian, Inc. access to this program.  By using this program,
 the user acknowledges that Gaussian, Inc. is engaged in the
 business of creating and licensing software in the field of
 computational chemistry and represents and warrants to the
 licensee that it is not a competitor of Gaussian, Inc. and that
 it will not use this program in any manner prohibited above.
 ---------------------------------------------------------------
  

 Cite this work as:
 Gaussian 16, Revision A.03,
 M. J. Frisch, G. W. Trucks, H. B. Schlegel, G. E. Scuseria, 
 M. A. Robb, J. R. Cheeseman, G. Scalmani, V. Barone, 
 G. A. Petersson, H. Nakatsuji, X. Li, M. Caricato, A. V. Marenich, 
 J. Bloino, B. G. Janesko, R. Gomperts, B. Mennucci, H. P. Hratchian, 
 J. V. Ortiz, A. F. Izmaylov, J. L. Sonnenberg, D. Williams-Young, 
 F. Ding, F. Lipparini, F. Egidi, J. Goings, B. Peng, A. Petrone, 
 T. Henderson, D. Ranasinghe, V. G. Zakrzewski, J. Gao, N. Rega, 
 G. Zheng, W. Liang, M. Hada, M. Ehara, K. Toyota, R. Fukuda, 
 J. Hasegawa, M. Ishida, T. Nakajima, Y. Honda, O. Kitao, H. Nakai, 
 T. Vreven, K. Throssell, J. A. Montgomery, Jr., J. E. Peralta, 
 F. Ogliaro, M. J. Bearpark, J. J. Heyd, E. N. Brothers, K. N. Kudin, 
 V. N. Staroverov, T. A. Keith, R. Kobayashi, J. Normand, 
 K. Raghavachari, A. P. Rendell, J. C. Burant, S. S. Iyengar, 
 J. Tomasi, M. Cossi, J. M. Millam, M. Klene, C. Adamo, R. Cammi, 
 J. W. Ochterski, R. L. Martin, K. Morokuma, O. Farkas, 
 J. B. Foresman, and D. J. Fox, Gaussian, Inc., Wallingford CT, 2016.
 
 ******************************************
 Gaussian 16:  ES64L-G16RevA.03 25-Dec-2016
                11-Feb-2020 
 ******************************************
 %chk=checkpoint.chk
 %mem=3GB
 %nprocshared=4
 Will use up to    4 processors via shared memory.
 --------------------------------
 #t pop=none jul-cc-pvdz upbe1pbe
 --------------------------------
 ------------------------
 theory_abbreviation pbe0
 ------------------------
 Symbolic Z-matrix:
 Charge =  0 Multiplicity = 6
 O                    -0.26836  -0.26455  -0.81093 
 C                    -1.0849   -1.21409  -0.65202 
 C                    -3.04787  -0.09837   0.42127 
 C                    -2.51558   0.99009  -0.17972 
 C                    -2.85371   1.35805  -1.59582 
 Fe                    1.45516   0.12764   0.02504 
 Cl                    2.09225   1.99681  -0.89494 
 C                    -1.60727   1.96356   0.50708 
 Cl                    2.61003  -1.64966  -0.53024 
 Cl                    1.15326   0.25813   2.20011 
 H                    -3.77013  -0.67996  -0.15034 
 H                    -2.1517    2.90292   0.67644 
 H                    -1.22998   1.61512   1.46764 
 H                    -0.75376   2.2149   -0.13295 
 H                    -3.26462   2.37536  -1.62266 
 H                    -1.9475    1.37465  -2.21519 
 H                    -3.58972   0.68568  -2.04442 
 C                    -2.99095  -0.4082    1.89461 
 H                    -3.81867   0.09513   2.41227 
 H                    -3.10536  -1.47912   2.08629 
 H                    -2.06245  -0.07709   2.36643 
 C                    -0.9185   -2.17562   0.48561 
 H                    -1.80289  -2.79538   0.63631 
 H                    -0.08081  -2.82887   0.19823 
 H                    -0.63379  -1.67349   1.40985 
 C                    -1.82981  -1.69731  -1.86373 
 H                    -1.16163  -2.42631  -2.34544 
 H                    -2.75776  -2.21068  -1.6086 
 H                    -2.00906  -0.89356  -2.5751 
 
                    Distance matrix (angstroms):
                    1          2          3          4          5
     1  O    0.000000
     2  C    1.262384   0.000000
     3  C    3.044926   2.500000   0.000000
     4  C    2.650006   2.669887   1.352502   0.000000
     5  C    3.151647   3.261179   2.495495   1.501687   0.000000
     6  Fe   1.955293   2.951362   4.526068   4.068476   4.765228
     7  Cl   3.270060   4.523624   5.704643   4.770439   5.036042
     8  C    2.914505   3.422552   2.516791   1.498123   2.518425
     9  Cl   3.206621   3.722506   5.943365   5.776067   6.327251
    10  Cl   3.370547   3.912987   4.576120   4.433937   5.628034
    11  H    3.587663   2.783418   1.089334   2.088977   2.661337
    12  H    3.973926   4.455627   3.142606   2.127051   2.835954
    13  H    3.106405   3.538136   2.708437   2.181106   3.476691
    14  H    2.615896   3.483820   3.304735   2.146239   2.698880
    15  H    4.074996   4.310154   3.216199   2.135905   1.097497
    16  H    2.734674   3.144702   3.214266   2.147959   1.097770
    17  H    3.668228   3.438318   2.643479   2.173375   1.093176
    18  C    3.840974   3.281433   1.506642   2.546378   3.914278
    19  H    4.808645   4.310150   2.143748   3.036018   4.311715
    20  H    4.232919   3.413330   2.163804   3.402883   4.655183
    21  H    3.653698   3.370370   2.180629   2.797694   4.287791
    22  C    2.399139   1.498810   2.975450   3.607635   4.534771
    23  H    3.294597   2.162356   2.978266   3.937462   4.830896
    24  H    2.762123   2.082946   4.038416   4.544822   5.332716
    25  H    2.655281   2.160063   3.047308   3.628022   4.811687
    26  C    2.366282   1.502204   3.043268   3.244729   3.233470
    27  H    2.797471   2.083993   4.078214   4.265589   4.212640
    28  H    3.258960   2.169494   2.943876   3.513588   3.570040
    29  H    2.556946   2.157553   3.269506   3.089099   2.596562
                    6          7          8          9         10
     6  Fe   0.000000
     7  Cl   2.178545   0.000000
     8  C    3.602982   3.956415   0.000000
     9  Cl   2.191078   3.701060   5.649514   0.000000
    10  Cl   2.199798   3.672064   3.659978   3.635462   0.000000
    11  H    5.290235   6.487449   3.478271   6.464596   5.535742
    12  H    4.597381   4.615333   1.098848   6.697463   4.498810
    13  H    3.391706   4.094469   1.089237   5.421800   2.838626
    14  H    3.043176   2.954308   1.096039   5.138837   3.592894
    15  H    5.481190   5.419308   2.729864   7.204554   6.214011
    16  H    4.260487   4.295312   2.805947   5.723335   5.509652
    17  H    5.481323   5.943498   3.474661   6.795841   6.379249
    18  C    4.852864   6.277304   3.076531   6.228325   4.208543
    19  H    5.789058   7.035124   3.465697   7.282221   4.979130
    20  H    5.256304   6.927115   4.073106   6.288158   4.600746
    21  H    4.230555   5.674427   2.797970   5.718012   3.237416
    22  C    3.339363   5.327258   4.196152   3.709321   3.626958
    23  H    4.419564   6.362540   4.764714   4.706095   4.528600
    24  H    3.336184   5.404111   5.039138   3.026847   3.880721
    25  H    3.086333   5.120004   3.871800   3.779792   2.747582
    26  C    4.205811   5.474267   4.367179   4.636009   5.407146
    27  H    4.357682   5.679409   5.254183   4.257180   5.764284
    28  H    5.087750   6.460257   4.819138   5.503704   5.991447
    29  H    4.450208   5.291305   4.221900   5.107748   5.842030
                   11         12         13         14         15
    11  H    0.000000
    12  H    4.017453   0.000000
    13  H    3.786501   1.770311   0.000000
    14  H    4.180786   1.755768   1.774381   0.000000
    15  H    3.429027   2.608209   3.777255   2.923932   0.000000
    16  H    3.436133   3.277012   3.759774   2.542976   1.757075
    17  H    2.342023   3.793040   4.332069   3.746317   1.771606
    18  C    2.205175   3.626541   2.716084   3.999582   4.493801
    19  H    2.677698   3.698054   3.147062   4.512786   4.667656
    20  H    2.466386   4.700999   3.670701   4.909254   5.351503
    21  H    3.100603   3.427028   2.089114   3.634941   4.834514
    22  C    3.282258   5.229602   3.928240   4.436931   5.537188
    23  H    2.993968   5.709107   4.524578   5.176416   5.828903
    24  H    4.283737   6.113156   4.762458   5.099227   6.366812
    25  H    3.641146   4.877037   3.342712   4.184995   5.701804
    26  C    2.781285   5.264805   4.736029   4.411212   4.324746
    27  H    3.830460   6.205854   5.556739   5.157732   5.291592
    28  H    2.344042   5.633620   5.141413   5.077332   4.613989
    29  H    3.004405   5.000611   4.821221   4.147571   3.628969
                   16         17         18         19         20
    16  H    0.000000
    17  H    1.789061   0.000000
    18  C    4.599761   4.131717   0.000000
    19  H    5.152844   4.501471   1.098375   0.000000
    20  H    5.290305   4.688679   1.093935   1.758783   0.000000
    21  H    4.807495   4.729694   1.092865   1.765240   1.769692
    22  C    4.577945   4.660852   3.066612   4.156837   2.798151
    23  H    5.053823   4.743088   2.948465   3.946192   2.351897
    24  H    5.194108   5.449227   4.148044   5.236728   3.812414
    25  H    4.915073   5.122038   2.718856   3.778405   2.569831
    26  C    3.094241   2.967929   4.139465   5.045051   4.156592
    27  H    3.883534   3.958622   5.039561   6.004434   4.931068
    28  H    3.725468   3.044838   3.946623   4.754964   3.782620
    29  H    2.297415   2.296546   4.601956   5.396853   4.824238
                   21         22         23         24         25
    21  H    0.000000
    22  C    3.041367   0.000000
    23  H    3.232610   1.090396   0.000000
    24  H    4.024953   1.100476   1.777243   0.000000
    25  H    2.346190   1.089686   1.795495   1.763151   0.000000
    26  C    4.535796   2.564887   2.730689   2.931060   3.485305
    27  H    5.341533   2.852507   3.072173   2.792941   3.866208
    28  H    4.564705   2.787442   2.508639   3.288295   3.729732
    29  H    5.008810   3.492983   3.737990   3.892936   4.287132
                   26         27         28         29
    26  C    0.000000
    27  H    1.099971   0.000000
    28  H    1.090753   1.771168   0.000000
    29  H    1.088207   1.766403   1.797077   0.000000
 Framework group  C1[X(C8H16Cl3FeO)]
 Deg. of freedom    81
                         Standard orientation:                         
 ---------------------------------------------------------------------
 Center     Atomic      Atomic             Coordinates (Angstroms)
 Number     Number       Type             X           Y           Z
 ---------------------------------------------------------------------
      1          8           0       -0.268361   -0.264550   -0.810930
      2          6           0       -1.084903   -1.214087   -0.652021
      3          6           0       -3.047866   -0.098369    0.421268
      4          6           0       -2.515579    0.990090   -0.179722
      5          6           0       -2.853706    1.358045   -1.595823
      6         26           0        1.455157    0.127637    0.025039
      7         17           0        2.092247    1.996814   -0.894936
      8          6           0       -1.607274    1.963564    0.507084
      9         17           0        2.610026   -1.649656   -0.530235
     10         17           0        1.153264    0.258125    2.200113
     11          1           0       -3.770129   -0.679960   -0.150341
     12          1           0       -2.151696    2.902921    0.676439
     13          1           0       -1.229982    1.615116    1.467642
     14          1           0       -0.753760    2.214895   -0.132953
     15          1           0       -3.264620    2.375360   -1.622655
     16          1           0       -1.947500    1.374654   -2.215189
     17          1           0       -3.589723    0.685683   -2.044423
     18          6           0       -2.990951   -0.408198    1.894610
     19          1           0       -3.818673    0.095128    2.412265
     20          1           0       -3.105363   -1.479116    2.086285
     21          1           0       -2.062452   -0.077094    2.366429
     22          6           0       -0.918499   -2.175617    0.485609
     23          1           0       -1.802890   -2.795379    0.636308
     24          1           0       -0.080809   -2.828870    0.198234
     25          1           0       -0.633787   -1.673491    1.409851
     26          6           0       -1.829806   -1.697308   -1.863728
     27          1           0       -1.161635   -2.426305   -2.345440
     28          1           0       -2.757760   -2.210683   -1.608603
     29          1           0       -2.009058   -0.893559   -2.575100
 ---------------------------------------------------------------------
 Rotational constants (GHZ):           0.5732709           0.3310725           0.3119977
   427 basis functions,  1056 primitive gaussians,   461 cartesian basis functions
    77 alpha electrons       72 beta electrons
       nuclear repulsion energy      1635.6066511182 Hartrees.
 NAtoms=   29 NActive=   29 NUniq=   29 SFac= 1.00D+00 NAtFMM=   60 NAOKFM=F Big=F
 ExpMin= 1.40D-02 ExpMax= 4.32D+06 ExpMxC= 4.91D+03 IAcc=3 IRadAn=         5 AccDes= 0.00D+00
 Harris functional with IExCor= 1009 and IRadAn=       5 diagonalized for initial guess.
 HarFok:  IExCor= 1009 AccDes= 0.00D+00 IRadAn=         5 IDoV= 1 UseB2=F ITyADJ=14
 ICtDFT=  3500011 ScaDFX=  1.000000  1.000000  1.000000  1.000000
 FoFCou: FMM=F IPFlag=           0 FMFlag=      100000 FMFlg1=           0
         NFxFlg=           0 DoJE=T BraDBF=F KetDBF=T FulRan=T
         wScrn=  0.000000 ICntrl=       500 IOpCl=  0 I1Cent=   200000004 NGrid=           0
         NMat0=    1 NMatS0=      1 NMatT0=    0 NMatD0=    1 NMtDS0=    0 NMtDT0=    0
 Petite list used in FoFCou.
 Initial guess <Sx>= 0.0000 <Sy>= 0.0000 <Sz>= 2.5000 <S**2>= 8.7500 S= 2.5000
 EnCoef did   100 forward-backward iterations
 Restarting incremental Fock formation.
 SCF Done:  E(UPBE1PBE) =  -3033.12786563     A.U. after   21 cycles
            NFock= 21  Conv=0.79D-08     -V/T= 2.0021
 <Sx>= 0.0000 <Sy>= 0.0000 <Sz>= 2.5000 <S**2>= 8.7627 S= 2.5021
 <L.S>= 0.000000000000E+00
 Annihilation of the first spin contaminant:
 S**2 before annihilation     8.7627,   after     8.7501
 1\1\GINC-HOLY7C04209\SP\UPBE1PBE\Jul-CC-pVDZ\C8H16Cl3Fe1O1(6)\EKWAN\11
 -Feb-2020\0\\#t pop=none jul-cc-pvdz upbe1pbe\\theory_abbreviation pbe
 0\\0,6\O,0,-0.268361,-0.26455,-0.81093\C,0,-1.084903,-1.214087,-0.6520
 21\C,0,-3.047866,-0.098369,0.421268\C,0,-2.515579,0.99009,-0.179722\C,
 0,-2.853706,1.358045,-1.595823\Fe,0,1.455157,0.127637,0.025039\Cl,0,2.
 092247,1.996814,-0.894936\C,0,-1.607274,1.963564,0.507084\Cl,0,2.61002
 6,-1.649656,-0.530235\Cl,0,1.153264,0.258125,2.200113\H,0,-3.770129,-0
 .67996,-0.150341\H,0,-2.151696,2.902921,0.676439\H,0,-1.229982,1.61511
 6,1.467642\H,0,-0.75376,2.214895,-0.132953\H,0,-3.26462,2.37536,-1.622
 655\H,0,-1.9475,1.374654,-2.215189\H,0,-3.589723,0.685683,-2.044423\C,
 0,-2.990951,-0.408198,1.89461\H,0,-3.818673,0.095128,2.412265\H,0,-3.1
 05363,-1.479116,2.086285\H,0,-2.062452,-0.077094,2.366429\C,0,-0.91849
 9,-2.175617,0.485609\H,0,-1.80289,-2.795379,0.636308\H,0,-0.080809,-2.
 82887,0.198234\H,0,-0.633787,-1.673491,1.409851\C,0,-1.829806,-1.69730
 8,-1.863728\H,0,-1.161635,-2.426305,-2.34544\H,0,-2.75776,-2.210683,-1
 .608603\H,0,-2.009058,-0.893559,-2.5751\\Version=ES64L-G16RevA.03\HF=-
 3033.1278656\S2=8.762735\S2-1=0.\S2A=8.75005\RMSD=7.933e-09\PG=C01 [X(
 C8H16Cl3Fe1O1)]\\@


 VIRTUE IS LEARNED AT YOUR MOTHER'S KNEE,
 VICES ARE PICKED UP AT SOME OTHER JOINT.
 Job cpu time:       0 days  1 hours 29 minutes 11.1 seconds.
 Elapsed time:       0 days  0 hours 22 minutes 23.1 seconds.
 File lengths (MBytes):  RWF=    173 Int=      0 D2E=      0 Chk=     13 Scr=      1
 Normal termination of Gaussian 16 at Tue Feb 11 13:59:51 2020.
 Initial command:
 /n/sw/g16_nehalem/g16/l1.exe "/scratch/Gau-85682.inp" -scrdir="/scratch/"
 Entering Link 1 = /n/sw/g16_nehalem/g16/l1.exe PID=     87626.
  
 Copyright (c) 1988,1990,1992,1993,1995,1998,2003,2009,2016,
            Gaussian, Inc.  All Rights Reserved.
  
 This is part of the Gaussian(R) 16 program.  It is based on
 the Gaussian(R) 09 system (copyright 2009, Gaussian, Inc.),
 the Gaussian(R) 03 system (copyright 2003, Gaussian, Inc.),
 the Gaussian(R) 98 system (copyright 1998, Gaussian, Inc.),
 the Gaussian(R) 94 system (copyright 1995, Gaussian, Inc.),
 the Gaussian 92(TM) system (copyright 1992, Gaussian, Inc.),
 the Gaussian 90(TM) system (copyright 1990, Gaussian, Inc.),
 the Gaussian 88(TM) system (copyright 1988, Gaussian, Inc.),
 the Gaussian 86(TM) system (copyright 1986, Carnegie Mellon
 University), and the Gaussian 82(TM) system (copyright 1983,
 Carnegie Mellon University). Gaussian is a federally registered
 trademark of Gaussian, Inc.
  
 This software contains proprietary and confidential information,
 including trade secrets, belonging to Gaussian, Inc.
  
 This software is provided under written license and may be
 used, copied, transmitted, or stored only in accord with that
 written license.
  
 The following legend is applicable only to US Government
 contracts under FAR:
  
                    RESTRICTED RIGHTS LEGEND
  
 Use, reproduction and disclosure by the US Government is
 subject to restrictions as set forth in subparagraphs (a)
 and (c) of the Commercial Computer Software - Restricted
 Rights clause in FAR 52.227-19.
  
 Gaussian, Inc.
 340 Quinnipiac St., Bldg. 40, Wallingford CT 06492
  
  
 ---------------------------------------------------------------
 Warning -- This program may not be used in any manner that
 competes with the business of Gaussian, Inc. or will provide
 assistance to any competitor of Gaussian, Inc.  The licensee
 of this program is prohibited from giving any competitor of
 Gaussian, Inc. access to this program.  By using this program,
 the user acknowledges that Gaussian, Inc. is engaged in the
 business of creating and licensing software in the field of
 computational chemistry and represents and warrants to the
 licensee that it is not a competitor of Gaussian, Inc. and that
 it will not use this program in any manner prohibited above.
 ---------------------------------------------------------------
  

 Cite this work as:
 Gaussian 16, Revision A.03,
 M. J. Frisch, G. W. Trucks, H. B. Schlegel, G. E. Scuseria, 
 M. A. Robb, J. R. Cheeseman, G. Scalmani, V. Barone, 
 G. A. Petersson, H. Nakatsuji, X. Li, M. Caricato, A. V. Marenich, 
 J. Bloino, B. G. Janesko, R. Gomperts, B. Mennucci, H. P. Hratchian, 
 J. V. Ortiz, A. F. Izmaylov, J. L. Sonnenberg, D. Williams-Young, 
 F. Ding, F. Lipparini, F. Egidi, J. Goings, B. Peng, A. Petrone, 
 T. Henderson, D. Ranasinghe, V. G. Zakrzewski, J. Gao, N. Rega, 
 G. Zheng, W. Liang, M. Hada, M. Ehara, K. Toyota, R. Fukuda, 
 J. Hasegawa, M. Ishida, T. Nakajima, Y. Honda, O. Kitao, H. Nakai, 
 T. Vreven, K. Throssell, J. A. Montgomery, Jr., J. E. Peralta, 
 F. Ogliaro, M. J. Bearpark, J. J. Heyd, E. N. Brothers, K. N. Kudin, 
 V. N. Staroverov, T. A. Keith, R. Kobayashi, J. Normand, 
 K. Raghavachari, A. P. Rendell, J. C. Burant, S. S. Iyengar, 
 J. Tomasi, M. Cossi, J. M. Millam, M. Klene, C. Adamo, R. Cammi, 
 J. W. Ochterski, R. L. Martin, K. Morokuma, O. Farkas, 
 J. B. Foresman, and D. J. Fox, Gaussian, Inc., Wallingford CT, 2016.
 
 ******************************************
 Gaussian 16:  ES64L-G16RevA.03 25-Dec-2016
                11-Feb-2020 
 ******************************************
 %chk=checkpoint.chk
 %mem=3GB
 %nprocshared=4
 Will use up to    4 processors via shared memory.
 ---------------------------------------------------------------------
 #t pop=none jul-cc-pvdz guess=read upbe1pbe empiricaldispersion=gd3bj
 ---------------------------------------------------------------------
 -----------------------------
 theory_abbreviation pbe0_d3bj
 -----------------------------
 Symbolic Z-matrix:
 Charge =  0 Multiplicity = 6
 O                    -0.26836  -0.26455  -0.81093 
 C                    -1.0849   -1.21409  -0.65202 
 C                    -3.04787  -0.09837   0.42127 
 C                    -2.51558   0.99009  -0.17972 
 C                    -2.85371   1.35805  -1.59582 
 Fe                    1.45516   0.12764   0.02504 
 Cl                    2.09225   1.99681  -0.89494 
 C                    -1.60727   1.96356   0.50708 
 Cl                    2.61003  -1.64966  -0.53024 
 Cl                    1.15326   0.25813   2.20011 
 H                    -3.77013  -0.67996  -0.15034 
 H                    -2.1517    2.90292   0.67644 
 H                    -1.22998   1.61512   1.46764 
 H                    -0.75376   2.2149   -0.13295 
 H                    -3.26462   2.37536  -1.62266 
 H                    -1.9475    1.37465  -2.21519 
 H                    -3.58972   0.68568  -2.04442 
 C                    -2.99095  -0.4082    1.89461 
 H                    -3.81867   0.09513   2.41227 
 H                    -3.10536  -1.47912   2.08629 
 H                    -2.06245  -0.07709   2.36643 
 C                    -0.9185   -2.17562   0.48561 
 H                    -1.80289  -2.79538   0.63631 
 H                    -0.08081  -2.82887   0.19823 
 H                    -0.63379  -1.67349   1.40985 
 C                    -1.82981  -1.69731  -1.86373 
 H                    -1.16163  -2.42631  -2.34544 
 H                    -2.75776  -2.21068  -1.6086 
 H                    -2.00906  -0.89356  -2.5751 
 
                    Distance matrix (angstroms):
                    1          2          3          4          5
     1  O    0.000000
     2  C    1.262384   0.000000
     3  C    3.044926   2.500000   0.000000
     4  C    2.650006   2.669887   1.352502   0.000000
     5  C    3.151647   3.261179   2.495495   1.501687   0.000000
     6  Fe   1.955293   2.951362   4.526068   4.068476   4.765228
     7  Cl   3.270060   4.523624   5.704643   4.770439   5.036042
     8  C    2.914505   3.422552   2.516791   1.498123   2.518425
     9  Cl   3.206621   3.722506   5.943365   5.776067   6.327251
    10  Cl   3.370547   3.912987   4.576120   4.433937   5.628034
    11  H    3.587663   2.783418   1.089334   2.088977   2.661337
    12  H    3.973926   4.455627   3.142606   2.127051   2.835954
    13  H    3.106405   3.538136   2.708437   2.181106   3.476691
    14  H    2.615896   3.483820   3.304735   2.146239   2.698880
    15  H    4.074996   4.310154   3.216199   2.135905   1.097497
    16  H    2.734674   3.144702   3.214266   2.147959   1.097770
    17  H    3.668228   3.438318   2.643479   2.173375   1.093176
    18  C    3.840974   3.281433   1.506642   2.546378   3.914278
    19  H    4.808645   4.310150   2.143748   3.036018   4.311715
    20  H    4.232919   3.413330   2.163804   3.402883   4.655183
    21  H    3.653698   3.370370   2.180629   2.797694   4.287791
    22  C    2.399139   1.498810   2.975450   3.607635   4.534771
    23  H    3.294597   2.162356   2.978266   3.937462   4.830896
    24  H    2.762123   2.082946   4.038416   4.544822   5.332716
    25  H    2.655281   2.160063   3.047308   3.628022   4.811687
    26  C    2.366282   1.502204   3.043268   3.244729   3.233470
    27  H    2.797471   2.083993   4.078214   4.265589   4.212640
    28  H    3.258960   2.169494   2.943876   3.513588   3.570040
    29  H    2.556946   2.157553   3.269506   3.089099   2.596562
                    6          7          8          9         10
     6  Fe   0.000000
     7  Cl   2.178545   0.000000
     8  C    3.602982   3.956415   0.000000
     9  Cl   2.191078   3.701060   5.649514   0.000000
    10  Cl   2.199798   3.672064   3.659978   3.635462   0.000000
    11  H    5.290235   6.487449   3.478271   6.464596   5.535742
    12  H    4.597381   4.615333   1.098848   6.697463   4.498810
    13  H    3.391706   4.094469   1.089237   5.421800   2.838626
    14  H    3.043176   2.954308   1.096039   5.138837   3.592894
    15  H    5.481190   5.419308   2.729864   7.204554   6.214011
    16  H    4.260487   4.295312   2.805947   5.723335   5.509652
    17  H    5.481323   5.943498   3.474661   6.795841   6.379249
    18  C    4.852864   6.277304   3.076531   6.228325   4.208543
    19  H    5.789058   7.035124   3.465697   7.282221   4.979130
    20  H    5.256304   6.927115   4.073106   6.288158   4.600746
    21  H    4.230555   5.674427   2.797970   5.718012   3.237416
    22  C    3.339363   5.327258   4.196152   3.709321   3.626958
    23  H    4.419564   6.362540   4.764714   4.706095   4.528600
    24  H    3.336184   5.404111   5.039138   3.026847   3.880721
    25  H    3.086333   5.120004   3.871800   3.779792   2.747582
    26  C    4.205811   5.474267   4.367179   4.636009   5.407146
    27  H    4.357682   5.679409   5.254183   4.257180   5.764284
    28  H    5.087750   6.460257   4.819138   5.503704   5.991447
    29  H    4.450208   5.291305   4.221900   5.107748   5.842030
                   11         12         13         14         15
    11  H    0.000000
    12  H    4.017453   0.000000
    13  H    3.786501   1.770311   0.000000
    14  H    4.180786   1.755768   1.774381   0.000000
    15  H    3.429027   2.608209   3.777255   2.923932   0.000000
    16  H    3.436133   3.277012   3.759774   2.542976   1.757075
    17  H    2.342023   3.793040   4.332069   3.746317   1.771606
    18  C    2.205175   3.626541   2.716084   3.999582   4.493801
    19  H    2.677698   3.698054   3.147062   4.512786   4.667656
    20  H    2.466386   4.700999   3.670701   4.909254   5.351503
    21  H    3.100603   3.427028   2.089114   3.634941   4.834514
    22  C    3.282258   5.229602   3.928240   4.436931   5.537188
    23  H    2.993968   5.709107   4.524578   5.176416   5.828903
    24  H    4.283737   6.113156   4.762458   5.099227   6.366812
    25  H    3.641146   4.877037   3.342712   4.184995   5.701804
    26  C    2.781285   5.264805   4.736029   4.411212   4.324746
    27  H    3.830460   6.205854   5.556739   5.157732   5.291592
    28  H    2.344042   5.633620   5.141413   5.077332   4.613989
    29  H    3.004405   5.000611   4.821221   4.147571   3.628969
                   16         17         18         19         20
    16  H    0.000000
    17  H    1.789061   0.000000
    18  C    4.599761   4.131717   0.000000
    19  H    5.152844   4.501471   1.098375   0.000000
    20  H    5.290305   4.688679   1.093935   1.758783   0.000000
    21  H    4.807495   4.729694   1.092865   1.765240   1.769692
    22  C    4.577945   4.660852   3.066612   4.156837   2.798151
    23  H    5.053823   4.743088   2.948465   3.946192   2.351897
    24  H    5.194108   5.449227   4.148044   5.236728   3.812414
    25  H    4.915073   5.122038   2.718856   3.778405   2.569831
    26  C    3.094241   2.967929   4.139465   5.045051   4.156592
    27  H    3.883534   3.958622   5.039561   6.004434   4.931068
    28  H    3.725468   3.044838   3.946623   4.754964   3.782620
    29  H    2.297415   2.296546   4.601956   5.396853   4.824238
                   21         22         23         24         25
    21  H    0.000000
    22  C    3.041367   0.000000
    23  H    3.232610   1.090396   0.000000
    24  H    4.024953   1.100476   1.777243   0.000000
    25  H    2.346190   1.089686   1.795495   1.763151   0.000000
    26  C    4.535796   2.564887   2.730689   2.931060   3.485305
    27  H    5.341533   2.852507   3.072173   2.792941   3.866208
    28  H    4.564705   2.787442   2.508639   3.288295   3.729732
    29  H    5.008810   3.492983   3.737990   3.892936   4.287132
                   26         27         28         29
    26  C    0.000000
    27  H    1.099971   0.000000
    28  H    1.090753   1.771168   0.000000
    29  H    1.088207   1.766403   1.797077   0.000000
 Framework group  C1[X(C8H16Cl3FeO)]
 Deg. of freedom    81
                         Standard orientation:                         
 ---------------------------------------------------------------------
 Center     Atomic      Atomic             Coordinates (Angstroms)
 Number     Number       Type             X           Y           Z
 ---------------------------------------------------------------------
      1          8           0       -0.268361   -0.264550   -0.810930
      2          6           0       -1.084903   -1.214087   -0.652021
      3          6           0       -3.047866   -0.098369    0.421268
      4          6           0       -2.515579    0.990090   -0.179722
      5          6           0       -2.853706    1.358045   -1.595823
      6         26           0        1.455157    0.127637    0.025039
      7         17           0        2.092247    1.996814   -0.894936
      8          6           0       -1.607274    1.963564    0.507084
      9         17           0        2.610026   -1.649656   -0.530235
     10         17           0        1.153264    0.258125    2.200113
     11          1           0       -3.770129   -0.679960   -0.150341
     12          1           0       -2.151696    2.902921    0.676439
     13          1           0       -1.229982    1.615116    1.467642
     14          1           0       -0.753760    2.214895   -0.132953
     15          1           0       -3.264620    2.375360   -1.622655
     16          1           0       -1.947500    1.374654   -2.215189
     17          1           0       -3.589723    0.685683   -2.044423
     18          6           0       -2.990951   -0.408198    1.894610
     19          1           0       -3.818673    0.095128    2.412265
     20          1           0       -3.105363   -1.479116    2.086285
     21          1           0       -2.062452   -0.077094    2.366429
     22          6           0       -0.918499   -2.175617    0.485609
     23          1           0       -1.802890   -2.795379    0.636308
     24          1           0       -0.080809   -2.828870    0.198234
     25          1           0       -0.633787   -1.673491    1.409851
     26          6           0       -1.829806   -1.697308   -1.863728
     27          1           0       -1.161635   -2.426305   -2.345440
     28          1           0       -2.757760   -2.210683   -1.608603
     29          1           0       -2.009058   -0.893559   -2.575100
 ---------------------------------------------------------------------
 Rotational constants (GHZ):           0.5732709           0.3310725           0.3119977
   427 basis functions,  1056 primitive gaussians,   461 cartesian basis functions
    77 alpha electrons       72 beta electrons
       nuclear repulsion energy      1635.6066511182 Hartrees.
 NAtoms=   29 NActive=   29 NUniq=   29 SFac= 1.00D+00 NAtFMM=   60 NAOKFM=F Big=F
 Nuclear repulsion after empirical dispersion term =     1635.5693725776 Hartrees.
 Initial guess from the checkpoint file:  "checkpoint.chk"
 B after Tr=     0.000000    0.000000    0.000000
         Rot=    1.000000    0.000000    0.000000    0.000000 Ang=   0.00 deg.
 Initial guess <Sx>= 0.0000 <Sy>= 0.0000 <Sz>= 2.5000 <S**2>= 8.7627 S= 2.5021
 SCF Done:  E(UPBE1PBE) =  -3033.16514417     A.U. after    1 cycles
            NFock=  1  Conv=0.25D-08     -V/T= 2.0021
 <Sx>= 0.0000 <Sy>= 0.0000 <Sz>= 2.5000 <S**2>= 8.7627 S= 2.5021
 <L.S>= 0.000000000000E+00
 Annihilation of the first spin contaminant:
 S**2 before annihilation     8.7627,   after     8.7501
 1\1\GINC-HOLY7C04209\SP\UPBE1PBE\Jul-CC-pVDZ\C8H16Cl3Fe1O1(6)\EKWAN\11
 -Feb-2020\0\\#t pop=none jul-cc-pvdz guess=read upbe1pbe empiricaldisp
 ersion=gd3bj\\theory_abbreviation pbe0_d3bj\\0,6\O,0,-0.268361,-0.2645
 5,-0.81093\C,0,-1.084903,-1.214087,-0.652021\C,0,-3.047866,-0.098369,0
 .421268\C,0,-2.515579,0.99009,-0.179722\C,0,-2.853706,1.358045,-1.5958
 23\Fe,0,1.455157,0.127637,0.025039\Cl,0,2.092247,1.996814,-0.894936\C,
 0,-1.607274,1.963564,0.507084\Cl,0,2.610026,-1.649656,-0.530235\Cl,0,1
 .153264,0.258125,2.200113\H,0,-3.770129,-0.67996,-0.150341\H,0,-2.1516
 96,2.902921,0.676439\H,0,-1.229982,1.615116,1.467642\H,0,-0.75376,2.21
 4895,-0.132953\H,0,-3.26462,2.37536,-1.622655\H,0,-1.9475,1.374654,-2.
 215189\H,0,-3.589723,0.685683,-2.044423\C,0,-2.990951,-0.408198,1.8946
 1\H,0,-3.818673,0.095128,2.412265\H,0,-3.105363,-1.479116,2.086285\H,0
 ,-2.062452,-0.077094,2.366429\C,0,-0.918499,-2.175617,0.485609\H,0,-1.
 80289,-2.795379,0.636308\H,0,-0.080809,-2.82887,0.198234\H,0,-0.633787
 ,-1.673491,1.409851\C,0,-1.829806,-1.697308,-1.863728\H,0,-1.161635,-2
 .426305,-2.34544\H,0,-2.75776,-2.210683,-1.608603\H,0,-2.009058,-0.893
 559,-2.5751\\Version=ES64L-G16RevA.03\HF=-3033.1651442\S2=8.762735\S2-
 1=0.\S2A=8.75005\RMSD=2.542e-09\PG=C01 [X(C8H16Cl3Fe1O1)]\\@


 HEAVEN'S NET CASTS WIDE.
 THOUGH ITS MESHES ARE COARSE, NOTHING SLIPS THROUGH.

                                          -- LAO-TSU
 Job cpu time:       0 days  0 hours  4 minutes 35.4 seconds.
 Elapsed time:       0 days  0 hours  1 minutes  9.4 seconds.
 File lengths (MBytes):  RWF=    170 Int=      0 D2E=      0 Chk=     13 Scr=      1
 Normal termination of Gaussian 16 at Tue Feb 11 14:01:01 2020.
 Initial command:
 /n/sw/g16_nehalem/g16/l1.exe "/scratch/Gau-85682.inp" -scrdir="/scratch/"
 Entering Link 1 = /n/sw/g16_nehalem/g16/l1.exe PID=     87969.
  
 Copyright (c) 1988,1990,1992,1993,1995,1998,2003,2009,2016,
            Gaussian, Inc.  All Rights Reserved.
  
 This is part of the Gaussian(R) 16 program.  It is based on
 the Gaussian(R) 09 system (copyright 2009, Gaussian, Inc.),
 the Gaussian(R) 03 system (copyright 2003, Gaussian, Inc.),
 the Gaussian(R) 98 system (copyright 1998, Gaussian, Inc.),
 the Gaussian(R) 94 system (copyright 1995, Gaussian, Inc.),
 the Gaussian 92(TM) system (copyright 1992, Gaussian, Inc.),
 the Gaussian 90(TM) system (copyright 1990, Gaussian, Inc.),
 the Gaussian 88(TM) system (copyright 1988, Gaussian, Inc.),
 the Gaussian 86(TM) system (copyright 1986, Carnegie Mellon
 University), and the Gaussian 82(TM) system (copyright 1983,
 Carnegie Mellon University). Gaussian is a federally registered
 trademark of Gaussian, Inc.
  
 This software contains proprietary and confidential information,
 including trade secrets, belonging to Gaussian, Inc.
  
 This software is provided under written license and may be
 used, copied, transmitted, or stored only in accord with that
 written license.
  
 The following legend is applicable only to US Government
 contracts under FAR:
  
                    RESTRICTED RIGHTS LEGEND
  
 Use, reproduction and disclosure by the US Government is
 subject to restrictions as set forth in subparagraphs (a)
 and (c) of the Commercial Computer Software - Restricted
 Rights clause in FAR 52.227-19.
  
 Gaussian, Inc.
 340 Quinnipiac St., Bldg. 40, Wallingford CT 06492
  
  
 ---------------------------------------------------------------
 Warning -- This program may not be used in any manner that
 competes with the business of Gaussian, Inc. or will provide
 assistance to any competitor of Gaussian, Inc.  The licensee
 of this program is prohibited from giving any competitor of
 Gaussian, Inc. access to this program.  By using this program,
 the user acknowledges that Gaussian, Inc. is engaged in the
 business of creating and licensing software in the field of
 computational chemistry and represents and warrants to the
 licensee that it is not a competitor of Gaussian, Inc. and that
 it will not use this program in any manner prohibited above.
 ---------------------------------------------------------------
  

 Cite this work as:
 Gaussian 16, Revision A.03,
 M. J. Frisch, G. W. Trucks, H. B. Schlegel, G. E. Scuseria, 
 M. A. Robb, J. R. Cheeseman, G. Scalmani, V. Barone, 
 G. A. Petersson, H. Nakatsuji, X. Li, M. Caricato, A. V. Marenich, 
 J. Bloino, B. G. Janesko, R. Gomperts, B. Mennucci, H. P. Hratchian, 
 J. V. Ortiz, A. F. Izmaylov, J. L. Sonnenberg, D. Williams-Young, 
 F. Ding, F. Lipparini, F. Egidi, J. Goings, B. Peng, A. Petrone, 
 T. Henderson, D. Ranasinghe, V. G. Zakrzewski, J. Gao, N. Rega, 
 G. Zheng, W. Liang, M. Hada, M. Ehara, K. Toyota, R. Fukuda, 
 J. Hasegawa, M. Ishida, T. Nakajima, Y. Honda, O. Kitao, H. Nakai, 
 T. Vreven, K. Throssell, J. A. Montgomery, Jr., J. E. Peralta, 
 F. Ogliaro, M. J. Bearpark, J. J. Heyd, E. N. Brothers, K. N. Kudin, 
 V. N. Staroverov, T. A. Keith, R. Kobayashi, J. Normand, 
 K. Raghavachari, A. P. Rendell, J. C. Burant, S. S. Iyengar, 
 J. Tomasi, M. Cossi, J. M. Millam, M. Klene, C. Adamo, R. Cammi, 
 J. W. Ochterski, R. L. Martin, K. Morokuma, O. Farkas, 
 J. B. Foresman, and D. J. Fox, Gaussian, Inc., Wallingford CT, 2016.
 
 ******************************************
 Gaussian 16:  ES64L-G16RevA.03 25-Dec-2016
                11-Feb-2020 
 ******************************************
 %chk=checkpoint.chk
 %mem=3GB
 %nprocshared=4
 Will use up to    4 processors via shared memory.
 -----------------------------------------
 #t pop=none jul-cc-pvdz guess=read ub3lyp
 -----------------------------------------
 -------------------------
 theory_abbreviation b3lyp
 -------------------------
 Symbolic Z-matrix:
 Charge =  0 Multiplicity = 6
 O                    -0.26836  -0.26455  -0.81093 
 C                    -1.0849   -1.21409  -0.65202 
 C                    -3.04787  -0.09837   0.42127 
 C                    -2.51558   0.99009  -0.17972 
 C                    -2.85371   1.35805  -1.59582 
 Fe                    1.45516   0.12764   0.02504 
 Cl                    2.09225   1.99681  -0.89494 
 C                    -1.60727   1.96356   0.50708 
 Cl                    2.61003  -1.64966  -0.53024 
 Cl                    1.15326   0.25813   2.20011 
 H                    -3.77013  -0.67996  -0.15034 
 H                    -2.1517    2.90292   0.67644 
 H                    -1.22998   1.61512   1.46764 
 H                    -0.75376   2.2149   -0.13295 
 H                    -3.26462   2.37536  -1.62266 
 H                    -1.9475    1.37465  -2.21519 
 H                    -3.58972   0.68568  -2.04442 
 C                    -2.99095  -0.4082    1.89461 
 H                    -3.81867   0.09513   2.41227 
 H                    -3.10536  -1.47912   2.08629 
 H                    -2.06245  -0.07709   2.36643 
 C                    -0.9185   -2.17562   0.48561 
 H                    -1.80289  -2.79538   0.63631 
 H                    -0.08081  -2.82887   0.19823 
 H                    -0.63379  -1.67349   1.40985 
 C                    -1.82981  -1.69731  -1.86373 
 H                    -1.16163  -2.42631  -2.34544 
 H                    -2.75776  -2.21068  -1.6086 
 H                    -2.00906  -0.89356  -2.5751 
 
                    Distance matrix (angstroms):
                    1          2          3          4          5
     1  O    0.000000
     2  C    1.262384   0.000000
     3  C    3.044926   2.500000   0.000000
     4  C    2.650006   2.669887   1.352502   0.000000
     5  C    3.151647   3.261179   2.495495   1.501687   0.000000
     6  Fe   1.955293   2.951362   4.526068   4.068476   4.765228
     7  Cl   3.270060   4.523624   5.704643   4.770439   5.036042
     8  C    2.914505   3.422552   2.516791   1.498123   2.518425
     9  Cl   3.206621   3.722506   5.943365   5.776067   6.327251
    10  Cl   3.370547   3.912987   4.576120   4.433937   5.628034
    11  H    3.587663   2.783418   1.089334   2.088977   2.661337
    12  H    3.973926   4.455627   3.142606   2.127051   2.835954
    13  H    3.106405   3.538136   2.708437   2.181106   3.476691
    14  H    2.615896   3.483820   3.304735   2.146239   2.698880
    15  H    4.074996   4.310154   3.216199   2.135905   1.097497
    16  H    2.734674   3.144702   3.214266   2.147959   1.097770
    17  H    3.668228   3.438318   2.643479   2.173375   1.093176
    18  C    3.840974   3.281433   1.506642   2.546378   3.914278
    19  H    4.808645   4.310150   2.143748   3.036018   4.311715
    20  H    4.232919   3.413330   2.163804   3.402883   4.655183
    21  H    3.653698   3.370370   2.180629   2.797694   4.287791
    22  C    2.399139   1.498810   2.975450   3.607635   4.534771
    23  H    3.294597   2.162356   2.978266   3.937462   4.830896
    24  H    2.762123   2.082946   4.038416   4.544822   5.332716
    25  H    2.655281   2.160063   3.047308   3.628022   4.811687
    26  C    2.366282   1.502204   3.043268   3.244729   3.233470
    27  H    2.797471   2.083993   4.078214   4.265589   4.212640
    28  H    3.258960   2.169494   2.943876   3.513588   3.570040
    29  H    2.556946   2.157553   3.269506   3.089099   2.596562
                    6          7          8          9         10
     6  Fe   0.000000
     7  Cl   2.178545   0.000000
     8  C    3.602982   3.956415   0.000000
     9  Cl   2.191078   3.701060   5.649514   0.000000
    10  Cl   2.199798   3.672064   3.659978   3.635462   0.000000
    11  H    5.290235   6.487449   3.478271   6.464596   5.535742
    12  H    4.597381   4.615333   1.098848   6.697463   4.498810
    13  H    3.391706   4.094469   1.089237   5.421800   2.838626
    14  H    3.043176   2.954308   1.096039   5.138837   3.592894
    15  H    5.481190   5.419308   2.729864   7.204554   6.214011
    16  H    4.260487   4.295312   2.805947   5.723335   5.509652
    17  H    5.481323   5.943498   3.474661   6.795841   6.379249
    18  C    4.852864   6.277304   3.076531   6.228325   4.208543
    19  H    5.789058   7.035124   3.465697   7.282221   4.979130
    20  H    5.256304   6.927115   4.073106   6.288158   4.600746
    21  H    4.230555   5.674427   2.797970   5.718012   3.237416
    22  C    3.339363   5.327258   4.196152   3.709321   3.626958
    23  H    4.419564   6.362540   4.764714   4.706095   4.528600
    24  H    3.336184   5.404111   5.039138   3.026847   3.880721
    25  H    3.086333   5.120004   3.871800   3.779792   2.747582
    26  C    4.205811   5.474267   4.367179   4.636009   5.407146
    27  H    4.357682   5.679409   5.254183   4.257180   5.764284
    28  H    5.087750   6.460257   4.819138   5.503704   5.991447
    29  H    4.450208   5.291305   4.221900   5.107748   5.842030
                   11         12         13         14         15
    11  H    0.000000
    12  H    4.017453   0.000000
    13  H    3.786501   1.770311   0.000000
    14  H    4.180786   1.755768   1.774381   0.000000
    15  H    3.429027   2.608209   3.777255   2.923932   0.000000
    16  H    3.436133   3.277012   3.759774   2.542976   1.757075
    17  H    2.342023   3.793040   4.332069   3.746317   1.771606
    18  C    2.205175   3.626541   2.716084   3.999582   4.493801
    19  H    2.677698   3.698054   3.147062   4.512786   4.667656
    20  H    2.466386   4.700999   3.670701   4.909254   5.351503
    21  H    3.100603   3.427028   2.089114   3.634941   4.834514
    22  C    3.282258   5.229602   3.928240   4.436931   5.537188
    23  H    2.993968   5.709107   4.524578   5.176416   5.828903
    24  H    4.283737   6.113156   4.762458   5.099227   6.366812
    25  H    3.641146   4.877037   3.342712   4.184995   5.701804
    26  C    2.781285   5.264805   4.736029   4.411212   4.324746
    27  H    3.830460   6.205854   5.556739   5.157732   5.291592
    28  H    2.344042   5.633620   5.141413   5.077332   4.613989
    29  H    3.004405   5.000611   4.821221   4.147571   3.628969
                   16         17         18         19         20
    16  H    0.000000
    17  H    1.789061   0.000000
    18  C    4.599761   4.131717   0.000000
    19  H    5.152844   4.501471   1.098375   0.000000
    20  H    5.290305   4.688679   1.093935   1.758783   0.000000
    21  H    4.807495   4.729694   1.092865   1.765240   1.769692
    22  C    4.577945   4.660852   3.066612   4.156837   2.798151
    23  H    5.053823   4.743088   2.948465   3.946192   2.351897
    24  H    5.194108   5.449227   4.148044   5.236728   3.812414
    25  H    4.915073   5.122038   2.718856   3.778405   2.569831
    26  C    3.094241   2.967929   4.139465   5.045051   4.156592
    27  H    3.883534   3.958622   5.039561   6.004434   4.931068
    28  H    3.725468   3.044838   3.946623   4.754964   3.782620
    29  H    2.297415   2.296546   4.601956   5.396853   4.824238
                   21         22         23         24         25
    21  H    0.000000
    22  C    3.041367   0.000000
    23  H    3.232610   1.090396   0.000000
    24  H    4.024953   1.100476   1.777243   0.000000
    25  H    2.346190   1.089686   1.795495   1.763151   0.000000
    26  C    4.535796   2.564887   2.730689   2.931060   3.485305
    27  H    5.341533   2.852507   3.072173   2.792941   3.866208
    28  H    4.564705   2.787442   2.508639   3.288295   3.729732
    29  H    5.008810   3.492983   3.737990   3.892936   4.287132
                   26         27         28         29
    26  C    0.000000
    27  H    1.099971   0.000000
    28  H    1.090753   1.771168   0.000000
    29  H    1.088207   1.766403   1.797077   0.000000
 Framework group  C1[X(C8H16Cl3FeO)]
 Deg. of freedom    81
                         Standard orientation:                         
 ---------------------------------------------------------------------
 Center     Atomic      Atomic             Coordinates (Angstroms)
 Number     Number       Type             X           Y           Z
 ---------------------------------------------------------------------
      1          8           0       -0.268361   -0.264550   -0.810930
      2          6           0       -1.084903   -1.214087   -0.652021
      3          6           0       -3.047866   -0.098369    0.421268
      4          6           0       -2.515579    0.990090   -0.179722
      5          6           0       -2.853706    1.358045   -1.595823
      6         26           0        1.455157    0.127637    0.025039
      7         17           0        2.092247    1.996814   -0.894936
      8          6           0       -1.607274    1.963564    0.507084
      9         17           0        2.610026   -1.649656   -0.530235
     10         17           0        1.153264    0.258125    2.200113
     11          1           0       -3.770129   -0.679960   -0.150341
     12          1           0       -2.151696    2.902921    0.676439
     13          1           0       -1.229982    1.615116    1.467642
     14          1           0       -0.753760    2.214895   -0.132953
     15          1           0       -3.264620    2.375360   -1.622655
     16          1           0       -1.947500    1.374654   -2.215189
     17          1           0       -3.589723    0.685683   -2.044423
     18          6           0       -2.990951   -0.408198    1.894610
     19          1           0       -3.818673    0.095128    2.412265
     20          1           0       -3.105363   -1.479116    2.086285
     21          1           0       -2.062452   -0.077094    2.366429
     22          6           0       -0.918499   -2.175617    0.485609
     23          1           0       -1.802890   -2.795379    0.636308
     24          1           0       -0.080809   -2.828870    0.198234
     25          1           0       -0.633787   -1.673491    1.409851
     26          6           0       -1.829806   -1.697308   -1.863728
     27          1           0       -1.161635   -2.426305   -2.345440
     28          1           0       -2.757760   -2.210683   -1.608603
     29          1           0       -2.009058   -0.893559   -2.575100
 ---------------------------------------------------------------------
 Rotational constants (GHZ):           0.5732709           0.3310725           0.3119977
   427 basis functions,  1056 primitive gaussians,   461 cartesian basis functions
    77 alpha electrons       72 beta electrons
       nuclear repulsion energy      1635.6066511182 Hartrees.
 NAtoms=   29 NActive=   29 NUniq=   29 SFac= 1.00D+00 NAtFMM=   60 NAOKFM=F Big=F
 Initial guess from the checkpoint file:  "checkpoint.chk"
 B after Tr=     0.000000    0.000000    0.000000
         Rot=    1.000000    0.000000    0.000000    0.000000 Ang=   0.00 deg.
 Initial guess <Sx>= 0.0000 <Sy>= 0.0000 <Sz>= 2.5000 <S**2>= 8.7627 S= 2.5021
 SCF Done:  E(UB3LYP) =  -3034.34465878     A.U. after   13 cycles
            NFock= 13  Conv=0.71D-08     -V/T= 2.0024
 <Sx>= 0.0000 <Sy>= 0.0000 <Sz>= 2.5000 <S**2>= 8.7620 S= 2.5020
 <L.S>= 0.000000000000E+00
 Annihilation of the first spin contaminant:
 S**2 before annihilation     8.7620,   after     8.7500
 1\1\GINC-HOLY7C04209\SP\UB3LYP\Jul-CC-pVDZ\C8H16Cl3Fe1O1(6)\EKWAN\11-F
 eb-2020\0\\#t pop=none jul-cc-pvdz guess=read ub3lyp\\theory_abbreviat
 ion b3lyp\\0,6\O,0,-0.268361,-0.26455,-0.81093\C,0,-1.084903,-1.214087
 ,-0.652021\C,0,-3.047866,-0.098369,0.421268\C,0,-2.515579,0.99009,-0.1
 79722\C,0,-2.853706,1.358045,-1.595823\Fe,0,1.455157,0.127637,0.025039
 \Cl,0,2.092247,1.996814,-0.894936\C,0,-1.607274,1.963564,0.507084\Cl,0
 ,2.610026,-1.649656,-0.530235\Cl,0,1.153264,0.258125,2.200113\H,0,-3.7
 70129,-0.67996,-0.150341\H,0,-2.151696,2.902921,0.676439\H,0,-1.229982
 ,1.615116,1.467642\H,0,-0.75376,2.214895,-0.132953\H,0,-3.26462,2.3753
 6,-1.622655\H,0,-1.9475,1.374654,-2.215189\H,0,-3.589723,0.685683,-2.0
 44423\C,0,-2.990951,-0.408198,1.89461\H,0,-3.818673,0.095128,2.412265\
 H,0,-3.105363,-1.479116,2.086285\H,0,-2.062452,-0.077094,2.366429\C,0,
 -0.918499,-2.175617,0.485609\H,0,-1.80289,-2.795379,0.636308\H,0,-0.08
 0809,-2.82887,0.198234\H,0,-0.633787,-1.673491,1.409851\C,0,-1.829806,
 -1.697308,-1.863728\H,0,-1.161635,-2.426305,-2.34544\H,0,-2.75776,-2.2
 10683,-1.608603\H,0,-2.009058,-0.893559,-2.5751\\Version=ES64L-G16RevA
 .03\HF=-3034.3446588\S2=8.76201\S2-1=0.\S2A=8.750045\RMSD=7.118e-09\PG
 =C01 [X(C8H16Cl3Fe1O1)]\\@


 THE ATTENTION SPAN OF A COMPUTER IS AS LONG
 AS ITS EXTENSION CORD.
 Job cpu time:       0 days  0 hours 54 minutes 20.2 seconds.
 Elapsed time:       0 days  0 hours 13 minutes 37.5 seconds.
 File lengths (MBytes):  RWF=    174 Int=      0 D2E=      0 Chk=     13 Scr=      1
 Normal termination of Gaussian 16 at Tue Feb 11 14:14:39 2020.
 Initial command:
 /n/sw/g16_nehalem/g16/l1.exe "/scratch/Gau-85682.inp" -scrdir="/scratch/"
 Entering Link 1 = /n/sw/g16_nehalem/g16/l1.exe PID=     89150.
  
 Copyright (c) 1988,1990,1992,1993,1995,1998,2003,2009,2016,
            Gaussian, Inc.  All Rights Reserved.
  
 This is part of the Gaussian(R) 16 program.  It is based on
 the Gaussian(R) 09 system (copyright 2009, Gaussian, Inc.),
 the Gaussian(R) 03 system (copyright 2003, Gaussian, Inc.),
 the Gaussian(R) 98 system (copyright 1998, Gaussian, Inc.),
 the Gaussian(R) 94 system (copyright 1995, Gaussian, Inc.),
 the Gaussian 92(TM) system (copyright 1992, Gaussian, Inc.),
 the Gaussian 90(TM) system (copyright 1990, Gaussian, Inc.),
 the Gaussian 88(TM) system (copyright 1988, Gaussian, Inc.),
 the Gaussian 86(TM) system (copyright 1986, Carnegie Mellon
 University), and the Gaussian 82(TM) system (copyright 1983,
 Carnegie Mellon University). Gaussian is a federally registered
 trademark of Gaussian, Inc.
  
 This software contains proprietary and confidential information,
 including trade secrets, belonging to Gaussian, Inc.
  
 This software is provided under written license and may be
 used, copied, transmitted, or stored only in accord with that
 written license.
  
 The following legend is applicable only to US Government
 contracts under FAR:
  
                    RESTRICTED RIGHTS LEGEND
  
 Use, reproduction and disclosure by the US Government is
 subject to restrictions as set forth in subparagraphs (a)
 and (c) of the Commercial Computer Software - Restricted
 Rights clause in FAR 52.227-19.
  
 Gaussian, Inc.
 340 Quinnipiac St., Bldg. 40, Wallingford CT 06492
  
  
 ---------------------------------------------------------------
 Warning -- This program may not be used in any manner that
 competes with the business of Gaussian, Inc. or will provide
 assistance to any competitor of Gaussian, Inc.  The licensee
 of this program is prohibited from giving any competitor of
 Gaussian, Inc. access to this program.  By using this program,
 the user acknowledges that Gaussian, Inc. is engaged in the
 business of creating and licensing software in the field of
 computational chemistry and represents and warrants to the
 licensee that it is not a competitor of Gaussian, Inc. and that
 it will not use this program in any manner prohibited above.
 ---------------------------------------------------------------
  

 Cite this work as:
 Gaussian 16, Revision A.03,
 M. J. Frisch, G. W. Trucks, H. B. Schlegel, G. E. Scuseria, 
 M. A. Robb, J. R. Cheeseman, G. Scalmani, V. Barone, 
 G. A. Petersson, H. Nakatsuji, X. Li, M. Caricato, A. V. Marenich, 
 J. Bloino, B. G. Janesko, R. Gomperts, B. Mennucci, H. P. Hratchian, 
 J. V. Ortiz, A. F. Izmaylov, J. L. Sonnenberg, D. Williams-Young, 
 F. Ding, F. Lipparini, F. Egidi, J. Goings, B. Peng, A. Petrone, 
 T. Henderson, D. Ranasinghe, V. G. Zakrzewski, J. Gao, N. Rega, 
 G. Zheng, W. Liang, M. Hada, M. Ehara, K. Toyota, R. Fukuda, 
 J. Hasegawa, M. Ishida, T. Nakajima, Y. Honda, O. Kitao, H. Nakai, 
 T. Vreven, K. Throssell, J. A. Montgomery, Jr., J. E. Peralta, 
 F. Ogliaro, M. J. Bearpark, J. J. Heyd, E. N. Brothers, K. N. Kudin, 
 V. N. Staroverov, T. A. Keith, R. Kobayashi, J. Normand, 
 K. Raghavachari, A. P. Rendell, J. C. Burant, S. S. Iyengar, 
 J. Tomasi, M. Cossi, J. M. Millam, M. Klene, C. Adamo, R. Cammi, 
 J. W. Ochterski, R. L. Martin, K. Morokuma, O. Farkas, 
 J. B. Foresman, and D. J. Fox, Gaussian, Inc., Wallingford CT, 2016.
 
 ******************************************
 Gaussian 16:  ES64L-G16RevA.03 25-Dec-2016
                11-Feb-2020 
 ******************************************
 %chk=checkpoint.chk
 %mem=3GB
 %nprocshared=4
 Will use up to    4 processors via shared memory.
 -------------------------------------------------------------------
 #t pop=none jul-cc-pvdz guess=read ub3lyp empiricaldispersion=gd3bj
 -------------------------------------------------------------------
 ------------------------------
 theory_abbreviation b3lyp_d3bj
 ------------------------------
 Symbolic Z-matrix:
 Charge =  0 Multiplicity = 6
 O                    -0.26836  -0.26455  -0.81093 
 C                    -1.0849   -1.21409  -0.65202 
 C                    -3.04787  -0.09837   0.42127 
 C                    -2.51558   0.99009  -0.17972 
 C                    -2.85371   1.35805  -1.59582 
 Fe                    1.45516   0.12764   0.02504 
 Cl                    2.09225   1.99681  -0.89494 
 C                    -1.60727   1.96356   0.50708 
 Cl                    2.61003  -1.64966  -0.53024 
 Cl                    1.15326   0.25813   2.20011 
 H                    -3.77013  -0.67996  -0.15034 
 H                    -2.1517    2.90292   0.67644 
 H                    -1.22998   1.61512   1.46764 
 H                    -0.75376   2.2149   -0.13295 
 H                    -3.26462   2.37536  -1.62266 
 H                    -1.9475    1.37465  -2.21519 
 H                    -3.58972   0.68568  -2.04442 
 C                    -2.99095  -0.4082    1.89461 
 H                    -3.81867   0.09513   2.41227 
 H                    -3.10536  -1.47912   2.08629 
 H                    -2.06245  -0.07709   2.36643 
 C                    -0.9185   -2.17562   0.48561 
 H                    -1.80289  -2.79538   0.63631 
 H                    -0.08081  -2.82887   0.19823 
 H                    -0.63379  -1.67349   1.40985 
 C                    -1.82981  -1.69731  -1.86373 
 H                    -1.16163  -2.42631  -2.34544 
 H                    -2.75776  -2.21068  -1.6086 
 H                    -2.00906  -0.89356  -2.5751 
 
                    Distance matrix (angstroms):
                    1          2          3          4          5
     1  O    0.000000
     2  C    1.262384   0.000000
     3  C    3.044926   2.500000   0.000000
     4  C    2.650006   2.669887   1.352502   0.000000
     5  C    3.151647   3.261179   2.495495   1.501687   0.000000
     6  Fe   1.955293   2.951362   4.526068   4.068476   4.765228
     7  Cl   3.270060   4.523624   5.704643   4.770439   5.036042
     8  C    2.914505   3.422552   2.516791   1.498123   2.518425
     9  Cl   3.206621   3.722506   5.943365   5.776067   6.327251
    10  Cl   3.370547   3.912987   4.576120   4.433937   5.628034
    11  H    3.587663   2.783418   1.089334   2.088977   2.661337
    12  H    3.973926   4.455627   3.142606   2.127051   2.835954
    13  H    3.106405   3.538136   2.708437   2.181106   3.476691
    14  H    2.615896   3.483820   3.304735   2.146239   2.698880
    15  H    4.074996   4.310154   3.216199   2.135905   1.097497
    16  H    2.734674   3.144702   3.214266   2.147959   1.097770
    17  H    3.668228   3.438318   2.643479   2.173375   1.093176
    18  C    3.840974   3.281433   1.506642   2.546378   3.914278
    19  H    4.808645   4.310150   2.143748   3.036018   4.311715
    20  H    4.232919   3.413330   2.163804   3.402883   4.655183
    21  H    3.653698   3.370370   2.180629   2.797694   4.287791
    22  C    2.399139   1.498810   2.975450   3.607635   4.534771
    23  H    3.294597   2.162356   2.978266   3.937462   4.830896
    24  H    2.762123   2.082946   4.038416   4.544822   5.332716
    25  H    2.655281   2.160063   3.047308   3.628022   4.811687
    26  C    2.366282   1.502204   3.043268   3.244729   3.233470
    27  H    2.797471   2.083993   4.078214   4.265589   4.212640
    28  H    3.258960   2.169494   2.943876   3.513588   3.570040
    29  H    2.556946   2.157553   3.269506   3.089099   2.596562
                    6          7          8          9         10
     6  Fe   0.000000
     7  Cl   2.178545   0.000000
     8  C    3.602982   3.956415   0.000000
     9  Cl   2.191078   3.701060   5.649514   0.000000
    10  Cl   2.199798   3.672064   3.659978   3.635462   0.000000
    11  H    5.290235   6.487449   3.478271   6.464596   5.535742
    12  H    4.597381   4.615333   1.098848   6.697463   4.498810
    13  H    3.391706   4.094469   1.089237   5.421800   2.838626
    14  H    3.043176   2.954308   1.096039   5.138837   3.592894
    15  H    5.481190   5.419308   2.729864   7.204554   6.214011
    16  H    4.260487   4.295312   2.805947   5.723335   5.509652
    17  H    5.481323   5.943498   3.474661   6.795841   6.379249
    18  C    4.852864   6.277304   3.076531   6.228325   4.208543
    19  H    5.789058   7.035124   3.465697   7.282221   4.979130
    20  H    5.256304   6.927115   4.073106   6.288158   4.600746
    21  H    4.230555   5.674427   2.797970   5.718012   3.237416
    22  C    3.339363   5.327258   4.196152   3.709321   3.626958
    23  H    4.419564   6.362540   4.764714   4.706095   4.528600
    24  H    3.336184   5.404111   5.039138   3.026847   3.880721
    25  H    3.086333   5.120004   3.871800   3.779792   2.747582
    26  C    4.205811   5.474267   4.367179   4.636009   5.407146
    27  H    4.357682   5.679409   5.254183   4.257180   5.764284
    28  H    5.087750   6.460257   4.819138   5.503704   5.991447
    29  H    4.450208   5.291305   4.221900   5.107748   5.842030
                   11         12         13         14         15
    11  H    0.000000
    12  H    4.017453   0.000000
    13  H    3.786501   1.770311   0.000000
    14  H    4.180786   1.755768   1.774381   0.000000
    15  H    3.429027   2.608209   3.777255   2.923932   0.000000
    16  H    3.436133   3.277012   3.759774   2.542976   1.757075
    17  H    2.342023   3.793040   4.332069   3.746317   1.771606
    18  C    2.205175   3.626541   2.716084   3.999582   4.493801
    19  H    2.677698   3.698054   3.147062   4.512786   4.667656
    20  H    2.466386   4.700999   3.670701   4.909254   5.351503
    21  H    3.100603   3.427028   2.089114   3.634941   4.834514
    22  C    3.282258   5.229602   3.928240   4.436931   5.537188
    23  H    2.993968   5.709107   4.524578   5.176416   5.828903
    24  H    4.283737   6.113156   4.762458   5.099227   6.366812
    25  H    3.641146   4.877037   3.342712   4.184995   5.701804
    26  C    2.781285   5.264805   4.736029   4.411212   4.324746
    27  H    3.830460   6.205854   5.556739   5.157732   5.291592
    28  H    2.344042   5.633620   5.141413   5.077332   4.613989
    29  H    3.004405   5.000611   4.821221   4.147571   3.628969
                   16         17         18         19         20
    16  H    0.000000
    17  H    1.789061   0.000000
    18  C    4.599761   4.131717   0.000000
    19  H    5.152844   4.501471   1.098375   0.000000
    20  H    5.290305   4.688679   1.093935   1.758783   0.000000
    21  H    4.807495   4.729694   1.092865   1.765240   1.769692
    22  C    4.577945   4.660852   3.066612   4.156837   2.798151
    23  H    5.053823   4.743088   2.948465   3.946192   2.351897
    24  H    5.194108   5.449227   4.148044   5.236728   3.812414
    25  H    4.915073   5.122038   2.718856   3.778405   2.569831
    26  C    3.094241   2.967929   4.139465   5.045051   4.156592
    27  H    3.883534   3.958622   5.039561   6.004434   4.931068
    28  H    3.725468   3.044838   3.946623   4.754964   3.782620
    29  H    2.297415   2.296546   4.601956   5.396853   4.824238
                   21         22         23         24         25
    21  H    0.000000
    22  C    3.041367   0.000000
    23  H    3.232610   1.090396   0.000000
    24  H    4.024953   1.100476   1.777243   0.000000
    25  H    2.346190   1.089686   1.795495   1.763151   0.000000
    26  C    4.535796   2.564887   2.730689   2.931060   3.485305
    27  H    5.341533   2.852507   3.072173   2.792941   3.866208
    28  H    4.564705   2.787442   2.508639   3.288295   3.729732
    29  H    5.008810   3.492983   3.737990   3.892936   4.287132
                   26         27         28         29
    26  C    0.000000
    27  H    1.099971   0.000000
    28  H    1.090753   1.771168   0.000000
    29  H    1.088207   1.766403   1.797077   0.000000
 Framework group  C1[X(C8H16Cl3FeO)]
 Deg. of freedom    81
                         Standard orientation:                         
 ---------------------------------------------------------------------
 Center     Atomic      Atomic             Coordinates (Angstroms)
 Number     Number       Type             X           Y           Z
 ---------------------------------------------------------------------
      1          8           0       -0.268361   -0.264550   -0.810930
      2          6           0       -1.084903   -1.214087   -0.652021
      3          6           0       -3.047866   -0.098369    0.421268
      4          6           0       -2.515579    0.990090   -0.179722
      5          6           0       -2.853706    1.358045   -1.595823
      6         26           0        1.455157    0.127637    0.025039
      7         17           0        2.092247    1.996814   -0.894936
      8          6           0       -1.607274    1.963564    0.507084
      9         17           0        2.610026   -1.649656   -0.530235
     10         17           0        1.153264    0.258125    2.200113
     11          1           0       -3.770129   -0.679960   -0.150341
     12          1           0       -2.151696    2.902921    0.676439
     13          1           0       -1.229982    1.615116    1.467642
     14          1           0       -0.753760    2.214895   -0.132953
     15          1           0       -3.264620    2.375360   -1.622655
     16          1           0       -1.947500    1.374654   -2.215189
     17          1           0       -3.589723    0.685683   -2.044423
     18          6           0       -2.990951   -0.408198    1.894610
     19          1           0       -3.818673    0.095128    2.412265
     20          1           0       -3.105363   -1.479116    2.086285
     21          1           0       -2.062452   -0.077094    2.366429
     22          6           0       -0.918499   -2.175617    0.485609
     23          1           0       -1.802890   -2.795379    0.636308
     24          1           0       -0.080809   -2.828870    0.198234
     25          1           0       -0.633787   -1.673491    1.409851
     26          6           0       -1.829806   -1.697308   -1.863728
     27          1           0       -1.161635   -2.426305   -2.345440
     28          1           0       -2.757760   -2.210683   -1.608603
     29          1           0       -2.009058   -0.893559   -2.575100
 ---------------------------------------------------------------------
 Rotational constants (GHZ):           0.5732709           0.3310725           0.3119977
   427 basis functions,  1056 primitive gaussians,   461 cartesian basis functions
    77 alpha electrons       72 beta electrons
       nuclear repulsion energy      1635.6066511182 Hartrees.
 NAtoms=   29 NActive=   29 NUniq=   29 SFac= 1.00D+00 NAtFMM=   60 NAOKFM=F Big=F
 Nuclear repulsion after empirical dispersion term =     1635.5373661227 Hartrees.
 Initial guess from the checkpoint file:  "checkpoint.chk"
 B after Tr=     0.000000    0.000000    0.000000
         Rot=    1.000000    0.000000    0.000000    0.000000 Ang=   0.00 deg.
 Initial guess <Sx>= 0.0000 <Sy>= 0.0000 <Sz>= 2.5000 <S**2>= 8.7620 S= 2.5020
 SCF Done:  E(UB3LYP) =  -3034.41394378     A.U. after    1 cycles
            NFock=  1  Conv=0.47D-08     -V/T= 2.0024
 <Sx>= 0.0000 <Sy>= 0.0000 <Sz>= 2.5000 <S**2>= 8.7620 S= 2.5020
 <L.S>= 0.000000000000E+00
 Annihilation of the first spin contaminant:
 S**2 before annihilation     8.7620,   after     8.7500
 1\1\GINC-HOLY7C04209\SP\UB3LYP\Jul-CC-pVDZ\C8H16Cl3Fe1O1(6)\EKWAN\11-F
 eb-2020\0\\#t pop=none jul-cc-pvdz guess=read ub3lyp empiricaldispersi
 on=gd3bj\\theory_abbreviation b3lyp_d3bj\\0,6\O,0,-0.268361,-0.26455,-
 0.81093\C,0,-1.084903,-1.214087,-0.652021\C,0,-3.047866,-0.098369,0.42
 1268\C,0,-2.515579,0.99009,-0.179722\C,0,-2.853706,1.358045,-1.595823\
 Fe,0,1.455157,0.127637,0.025039\Cl,0,2.092247,1.996814,-0.894936\C,0,-
 1.607274,1.963564,0.507084\Cl,0,2.610026,-1.649656,-0.530235\Cl,0,1.15
 3264,0.258125,2.200113\H,0,-3.770129,-0.67996,-0.150341\H,0,-2.151696,
 2.902921,0.676439\H,0,-1.229982,1.615116,1.467642\H,0,-0.75376,2.21489
 5,-0.132953\H,0,-3.26462,2.37536,-1.622655\H,0,-1.9475,1.374654,-2.215
 189\H,0,-3.589723,0.685683,-2.044423\C,0,-2.990951,-0.408198,1.89461\H
 ,0,-3.818673,0.095128,2.412265\H,0,-3.105363,-1.479116,2.086285\H,0,-2
 .062452,-0.077094,2.366429\C,0,-0.918499,-2.175617,0.485609\H,0,-1.802
 89,-2.795379,0.636308\H,0,-0.080809,-2.82887,0.198234\H,0,-0.633787,-1
 .673491,1.409851\C,0,-1.829806,-1.697308,-1.863728\H,0,-1.161635,-2.42
 6305,-2.34544\H,0,-2.75776,-2.210683,-1.608603\H,0,-2.009058,-0.893559
 ,-2.5751\\Version=ES64L-G16RevA.03\HF=-3034.4139438\S2=8.76201\S2-1=0.
 \S2A=8.750045\RMSD=4.702e-09\PG=C01 [X(C8H16Cl3Fe1O1)]\\@


 YOU CAN WIPE THE SLATE CLEAN, BUT YOU'LL STILL
 HAVE TO EAT A LITTLE CHALK DUST.
 Job cpu time:       0 days  0 hours  4 minutes 32.1 seconds.
 Elapsed time:       0 days  0 hours  1 minutes  8.8 seconds.
 File lengths (MBytes):  RWF=    170 Int=      0 D2E=      0 Chk=     13 Scr=      1
 Normal termination of Gaussian 16 at Tue Feb 11 14:15:49 2020.
 Initial command:
 /n/sw/g16_nehalem/g16/l1.exe "/scratch/Gau-85682.inp" -scrdir="/scratch/"
 Entering Link 1 = /n/sw/g16_nehalem/g16/l1.exe PID=     89506.
  
 Copyright (c) 1988,1990,1992,1993,1995,1998,2003,2009,2016,
            Gaussian, Inc.  All Rights Reserved.
  
 This is part of the Gaussian(R) 16 program.  It is based on
 the Gaussian(R) 09 system (copyright 2009, Gaussian, Inc.),
 the Gaussian(R) 03 system (copyright 2003, Gaussian, Inc.),
 the Gaussian(R) 98 system (copyright 1998, Gaussian, Inc.),
 the Gaussian(R) 94 system (copyright 1995, Gaussian, Inc.),
 the Gaussian 92(TM) system (copyright 1992, Gaussian, Inc.),
 the Gaussian 90(TM) system (copyright 1990, Gaussian, Inc.),
 the Gaussian 88(TM) system (copyright 1988, Gaussian, Inc.),
 the Gaussian 86(TM) system (copyright 1986, Carnegie Mellon
 University), and the Gaussian 82(TM) system (copyright 1983,
 Carnegie Mellon University). Gaussian is a federally registered
 trademark of Gaussian, Inc.
  
 This software contains proprietary and confidential information,
 including trade secrets, belonging to Gaussian, Inc.
  
 This software is provided under written license and may be
 used, copied, transmitted, or stored only in accord with that
 written license.
  
 The following legend is applicable only to US Government
 contracts under FAR:
  
                    RESTRICTED RIGHTS LEGEND
  
 Use, reproduction and disclosure by the US Government is
 subject to restrictions as set forth in subparagraphs (a)
 and (c) of the Commercial Computer Software - Restricted
 Rights clause in FAR 52.227-19.
  
 Gaussian, Inc.
 340 Quinnipiac St., Bldg. 40, Wallingford CT 06492
  
  
 ---------------------------------------------------------------
 Warning -- This program may not be used in any manner that
 competes with the business of Gaussian, Inc. or will provide
 assistance to any competitor of Gaussian, Inc.  The licensee
 of this program is prohibited from giving any competitor of
 Gaussian, Inc. access to this program.  By using this program,
 the user acknowledges that Gaussian, Inc. is engaged in the
 business of creating and licensing software in the field of
 computational chemistry and represents and warrants to the
 licensee that it is not a competitor of Gaussian, Inc. and that
 it will not use this program in any manner prohibited above.
 ---------------------------------------------------------------
  

 Cite this work as:
 Gaussian 16, Revision A.03,
 M. J. Frisch, G. W. Trucks, H. B. Schlegel, G. E. Scuseria, 
 M. A. Robb, J. R. Cheeseman, G. Scalmani, V. Barone, 
 G. A. Petersson, H. Nakatsuji, X. Li, M. Caricato, A. V. Marenich, 
 J. Bloino, B. G. Janesko, R. Gomperts, B. Mennucci, H. P. Hratchian, 
 J. V. Ortiz, A. F. Izmaylov, J. L. Sonnenberg, D. Williams-Young, 
 F. Ding, F. Lipparini, F. Egidi, J. Goings, B. Peng, A. Petrone, 
 T. Henderson, D. Ranasinghe, V. G. Zakrzewski, J. Gao, N. Rega, 
 G. Zheng, W. Liang, M. Hada, M. Ehara, K. Toyota, R. Fukuda, 
 J. Hasegawa, M. Ishida, T. Nakajima, Y. Honda, O. Kitao, H. Nakai, 
 T. Vreven, K. Throssell, J. A. Montgomery, Jr., J. E. Peralta, 
 F. Ogliaro, M. J. Bearpark, J. J. Heyd, E. N. Brothers, K. N. Kudin, 
 V. N. Staroverov, T. A. Keith, R. Kobayashi, J. Normand, 
 K. Raghavachari, A. P. Rendell, J. C. Burant, S. S. Iyengar, 
 J. Tomasi, M. Cossi, J. M. Millam, M. Klene, C. Adamo, R. Cammi, 
 J. W. Ochterski, R. L. Martin, K. Morokuma, O. Farkas, 
 J. B. Foresman, and D. J. Fox, Gaussian, Inc., Wallingford CT, 2016.
 
 ******************************************
 Gaussian 16:  ES64L-G16RevA.03 25-Dec-2016
                11-Feb-2020 
 ******************************************
 %chk=checkpoint.chk
 %mem=3GB
 %nprocshared=4
 Will use up to    4 processors via shared memory.
 ----------------------------------------
 #t pop=none jul-cc-pvdz guess=read ub97d
 ----------------------------------------
 ------------------------
 theory_abbreviation b97d
 ------------------------
 Symbolic Z-matrix:
 Charge =  0 Multiplicity = 6
 O                    -0.26836  -0.26455  -0.81093 
 C                    -1.0849   -1.21409  -0.65202 
 C                    -3.04787  -0.09837   0.42127 
 C                    -2.51558   0.99009  -0.17972 
 C                    -2.85371   1.35805  -1.59582 
 Fe                    1.45516   0.12764   0.02504 
 Cl                    2.09225   1.99681  -0.89494 
 C                    -1.60727   1.96356   0.50708 
 Cl                    2.61003  -1.64966  -0.53024 
 Cl                    1.15326   0.25813   2.20011 
 H                    -3.77013  -0.67996  -0.15034 
 H                    -2.1517    2.90292   0.67644 
 H                    -1.22998   1.61512   1.46764 
 H                    -0.75376   2.2149   -0.13295 
 H                    -3.26462   2.37536  -1.62266 
 H                    -1.9475    1.37465  -2.21519 
 H                    -3.58972   0.68568  -2.04442 
 C                    -2.99095  -0.4082    1.89461 
 H                    -3.81867   0.09513   2.41227 
 H                    -3.10536  -1.47912   2.08629 
 H                    -2.06245  -0.07709   2.36643 
 C                    -0.9185   -2.17562   0.48561 
 H                    -1.80289  -2.79538   0.63631 
 H                    -0.08081  -2.82887   0.19823 
 H                    -0.63379  -1.67349   1.40985 
 C                    -1.82981  -1.69731  -1.86373 
 H                    -1.16163  -2.42631  -2.34544 
 H                    -2.75776  -2.21068  -1.6086 
 H                    -2.00906  -0.89356  -2.5751 
 
                    Distance matrix (angstroms):
                    1          2          3          4          5
     1  O    0.000000
     2  C    1.262384   0.000000
     3  C    3.044926   2.500000   0.000000
     4  C    2.650006   2.669887   1.352502   0.000000
     5  C    3.151647   3.261179   2.495495   1.501687   0.000000
     6  Fe   1.955293   2.951362   4.526068   4.068476   4.765228
     7  Cl   3.270060   4.523624   5.704643   4.770439   5.036042
     8  C    2.914505   3.422552   2.516791   1.498123   2.518425
     9  Cl   3.206621   3.722506   5.943365   5.776067   6.327251
    10  Cl   3.370547   3.912987   4.576120   4.433937   5.628034
    11  H    3.587663   2.783418   1.089334   2.088977   2.661337
    12  H    3.973926   4.455627   3.142606   2.127051   2.835954
    13  H    3.106405   3.538136   2.708437   2.181106   3.476691
    14  H    2.615896   3.483820   3.304735   2.146239   2.698880
    15  H    4.074996   4.310154   3.216199   2.135905   1.097497
    16  H    2.734674   3.144702   3.214266   2.147959   1.097770
    17  H    3.668228   3.438318   2.643479   2.173375   1.093176
    18  C    3.840974   3.281433   1.506642   2.546378   3.914278
    19  H    4.808645   4.310150   2.143748   3.036018   4.311715
    20  H    4.232919   3.413330   2.163804   3.402883   4.655183
    21  H    3.653698   3.370370   2.180629   2.797694   4.287791
    22  C    2.399139   1.498810   2.975450   3.607635   4.534771
    23  H    3.294597   2.162356   2.978266   3.937462   4.830896
    24  H    2.762123   2.082946   4.038416   4.544822   5.332716
    25  H    2.655281   2.160063   3.047308   3.628022   4.811687
    26  C    2.366282   1.502204   3.043268   3.244729   3.233470
    27  H    2.797471   2.083993   4.078214   4.265589   4.212640
    28  H    3.258960   2.169494   2.943876   3.513588   3.570040
    29  H    2.556946   2.157553   3.269506   3.089099   2.596562
                    6          7          8          9         10
     6  Fe   0.000000
     7  Cl   2.178545   0.000000
     8  C    3.602982   3.956415   0.000000
     9  Cl   2.191078   3.701060   5.649514   0.000000
    10  Cl   2.199798   3.672064   3.659978   3.635462   0.000000
    11  H    5.290235   6.487449   3.478271   6.464596   5.535742
    12  H    4.597381   4.615333   1.098848   6.697463   4.498810
    13  H    3.391706   4.094469   1.089237   5.421800   2.838626
    14  H    3.043176   2.954308   1.096039   5.138837   3.592894
    15  H    5.481190   5.419308   2.729864   7.204554   6.214011
    16  H    4.260487   4.295312   2.805947   5.723335   5.509652
    17  H    5.481323   5.943498   3.474661   6.795841   6.379249
    18  C    4.852864   6.277304   3.076531   6.228325   4.208543
    19  H    5.789058   7.035124   3.465697   7.282221   4.979130
    20  H    5.256304   6.927115   4.073106   6.288158   4.600746
    21  H    4.230555   5.674427   2.797970   5.718012   3.237416
    22  C    3.339363   5.327258   4.196152   3.709321   3.626958
    23  H    4.419564   6.362540   4.764714   4.706095   4.528600
    24  H    3.336184   5.404111   5.039138   3.026847   3.880721
    25  H    3.086333   5.120004   3.871800   3.779792   2.747582
    26  C    4.205811   5.474267   4.367179   4.636009   5.407146
    27  H    4.357682   5.679409   5.254183   4.257180   5.764284
    28  H    5.087750   6.460257   4.819138   5.503704   5.991447
    29  H    4.450208   5.291305   4.221900   5.107748   5.842030
                   11         12         13         14         15
    11  H    0.000000
    12  H    4.017453   0.000000
    13  H    3.786501   1.770311   0.000000
    14  H    4.180786   1.755768   1.774381   0.000000
    15  H    3.429027   2.608209   3.777255   2.923932   0.000000
    16  H    3.436133   3.277012   3.759774   2.542976   1.757075
    17  H    2.342023   3.793040   4.332069   3.746317   1.771606
    18  C    2.205175   3.626541   2.716084   3.999582   4.493801
    19  H    2.677698   3.698054   3.147062   4.512786   4.667656
    20  H    2.466386   4.700999   3.670701   4.909254   5.351503
    21  H    3.100603   3.427028   2.089114   3.634941   4.834514
    22  C    3.282258   5.229602   3.928240   4.436931   5.537188
    23  H    2.993968   5.709107   4.524578   5.176416   5.828903
    24  H    4.283737   6.113156   4.762458   5.099227   6.366812
    25  H    3.641146   4.877037   3.342712   4.184995   5.701804
    26  C    2.781285   5.264805   4.736029   4.411212   4.324746
    27  H    3.830460   6.205854   5.556739   5.157732   5.291592
    28  H    2.344042   5.633620   5.141413   5.077332   4.613989
    29  H    3.004405   5.000611   4.821221   4.147571   3.628969
                   16         17         18         19         20
    16  H    0.000000
    17  H    1.789061   0.000000
    18  C    4.599761   4.131717   0.000000
    19  H    5.152844   4.501471   1.098375   0.000000
    20  H    5.290305   4.688679   1.093935   1.758783   0.000000
    21  H    4.807495   4.729694   1.092865   1.765240   1.769692
    22  C    4.577945   4.660852   3.066612   4.156837   2.798151
    23  H    5.053823   4.743088   2.948465   3.946192   2.351897
    24  H    5.194108   5.449227   4.148044   5.236728   3.812414
    25  H    4.915073   5.122038   2.718856   3.778405   2.569831
    26  C    3.094241   2.967929   4.139465   5.045051   4.156592
    27  H    3.883534   3.958622   5.039561   6.004434   4.931068
    28  H    3.725468   3.044838   3.946623   4.754964   3.782620
[...]
 ---------------------------------------------------------------------
 Rotational constants (GHZ):           0.5732709           0.3310725           0.3119977
   427 basis functions,  1056 primitive gaussians,   461 cartesian basis functions
    77 alpha electrons       72 beta electrons
       nuclear repulsion energy      1635.6066511182 Hartrees.
 NAtoms=   29 NActive=   29 NUniq=   29 SFac= 1.00D+00 NAtFMM=   60 NAOKFM=F Big=F
 Nuclear repulsion after empirical dispersion term =     1635.6041820973 Hartrees.
 Initial guess from the checkpoint file:  "checkpoint.chk"
 B after Tr=     0.000000    0.000000    0.000000
         Rot=    1.000000    0.000000    0.000000    0.000000 Ang=   0.00 deg.
 Initial guess <Sx>= 0.0000 <Sy>= 0.0000 <Sz>= 2.5000 <S**2>= 8.7617 S= 2.5019
 SCF Done:  E(UM06L) =  -3034.21370340     A.U. after   17 cycles
            NFock= 17  Conv=0.76D-08     -V/T= 2.0020
 <Sx>= 0.0000 <Sy>= 0.0000 <Sz>= 2.5000 <S**2>= 8.7616 S= 2.5019
 <L.S>= 0.000000000000E+00
 Annihilation of the first spin contaminant:
 S**2 before annihilation     8.7616,   after     8.7500
 1\1\GINC-HOLY7C04209\SP\UM06L\Jul-CC-pVDZ\C8H16Cl3Fe1O1(6)\EKWAN\11-Fe
 b-2020\0\\#t pop=none jul-cc-pvdz guess=read um06l empiricaldispersion
 =gd3\\theory_abbreviation m06l_d3\\0,6\O,0,-0.268361,-0.26455,-0.81093
 \C,0,-1.084903,-1.214087,-0.652021\C,0,-3.047866,-0.098369,0.421268\C,
 0,-2.515579,0.99009,-0.179722\C,0,-2.853706,1.358045,-1.595823\Fe,0,1.
 455157,0.127637,0.025039\Cl,0,2.092247,1.996814,-0.894936\C,0,-1.60727
 4,1.963564,0.507084\Cl,0,2.610026,-1.649656,-0.530235\Cl,0,1.153264,0.
 258125,2.200113\H,0,-3.770129,-0.67996,-0.150341\H,0,-2.151696,2.90292
 1,0.676439\H,0,-1.229982,1.615116,1.467642\H,0,-0.75376,2.214895,-0.13
 2953\H,0,-3.26462,2.37536,-1.622655\H,0,-1.9475,1.374654,-2.215189\H,0
 ,-3.589723,0.685683,-2.044423\C,0,-2.990951,-0.408198,1.89461\H,0,-3.8
 18673,0.095128,2.412265\H,0,-3.105363,-1.479116,2.086285\H,0,-2.062452
 ,-0.077094,2.366429\C,0,-0.918499,-2.175617,0.485609\H,0,-1.80289,-2.7
 95379,0.636308\H,0,-0.080809,-2.82887,0.198234\H,0,-0.633787,-1.673491
 ,1.409851\C,0,-1.829806,-1.697308,-1.863728\H,0,-1.161635,-2.426305,-2
 .34544\H,0,-2.75776,-2.210683,-1.608603\H,0,-2.009058,-0.893559,-2.575
 1\\Version=ES64L-G16RevA.03\HF=-3034.2137034\S2=8.761604\S2-1=0.\S2A=8
 .750043\RMSD=7.608e-09\PG=C01 [X(C8H16Cl3Fe1O1)]\\@


 I LOVE THOSE WHO LONG FOR THE IMPOSSIBLE.

                                 -- GOETHE
 Job cpu time:       0 days  1 hours 16 minutes 54.2 seconds.
 Elapsed time:       0 days  0 hours 19 minutes 29.6 seconds.
 File lengths (MBytes):  RWF=    174 Int=      0 D2E=      0 Chk=     13 Scr=      1
 Normal termination of Gaussian 16 at Tue Feb 11 23:09:33 2020.
 Initial command:
 /n/sw/g16_nehalem/g16/l1.exe "/scratch/Gau-85682.inp" -scrdir="/scratch/"
 Entering Link 1 = /n/sw/g16_nehalem/g16/l1.exe PID=    144844.
  
 Copyright (c) 1988,1990,1992,1993,1995,1998,2003,2009,2016,
            Gaussian, Inc.  All Rights Reserved.
  
 This is part of the Gaussian(R) 16 program.  It is based on
 the Gaussian(R) 09 system (copyright 2009, Gaussian, Inc.),
 the Gaussian(R) 03 system (copyright 2003, Gaussian, Inc.),
 the Gaussian(R) 98 system (copyright 1998, Gaussian, Inc.),
 the Gaussian(R) 94 system (copyright 1995, Gaussian, Inc.),
 the Gaussian 92(TM) system (copyright 1992, Gaussian, Inc.),
 the Gaussian 90(TM) system (copyright 1990, Gaussian, Inc.),
 the Gaussian 88(TM) system (copyright 1988, Gaussian, Inc.),
 the Gaussian 86(TM) system (copyright 1986, Carnegie Mellon
 University), and the Gaussian 82(TM) system (copyright 1983,
 Carnegie Mellon University). Gaussian is a federally registered
 trademark of Gaussian, Inc.
  
 This software contains proprietary and confidential information,
 including trade secrets, belonging to Gaussian, Inc.
  
 This software is provided under written license and may be
 used, copied, transmitted, or stored only in accord with that
 written license.
  
 The following legend is applicable only to US Government
 contracts under FAR:
  
                    RESTRICTED RIGHTS LEGEND
  
 Use, reproduction and disclosure by the US Government is
 subject to restrictions as set forth in subparagraphs (a)
 and (c) of the Commercial Computer Software - Restricted
 Rights clause in FAR 52.227-19.
  
 Gaussian, Inc.
 340 Quinnipiac St., Bldg. 40, Wallingford CT 06492
  
  
 ---------------------------------------------------------------
 Warning -- This program may not be used in any manner that
 competes with the business of Gaussian, Inc. or will provide
 assistance to any competitor of Gaussian, Inc.  The licensee
 of this program is prohibited from giving any competitor of
 Gaussian, Inc. access to this program.  By using this program,
 the user acknowledges that Gaussian, Inc. is engaged in the
 business of creating and licensing software in the field of
 computational chemistry and represents and warrants to the
 licensee that it is not a competitor of Gaussian, Inc. and that
 it will not use this program in any manner prohibited above.
 ---------------------------------------------------------------
  

 Cite this work as:
 Gaussian 16, Revision A.03,
 M. J. Frisch, G. W. Trucks, H. B. Schlegel, G. E. Scuseria, 
 M. A. Robb, J. R. Cheeseman, G. Scalmani, V. Barone, 
 G. A. Petersson, H. Nakatsuji, X. Li, M. Caricato, A. V. Marenich, 
 J. Bloino, B. G. Janesko, R. Gomperts, B. Mennucci, H. P. Hratchian, 
 J. V. Ortiz, A. F. Izmaylov, J. L. Sonnenberg, D. Williams-Young, 
 F. Ding, F. Lipparini, F. Egidi, J. Goings, B. Peng, A. Petrone, 
 T. Henderson, D. Ranasinghe, V. G. Zakrzewski, J. Gao, N. Rega, 
 G. Zheng, W. Liang, M. Hada, M. Ehara, K. Toyota, R. Fukuda, 
 J. Hasegawa, M. Ishida, T. Nakajima, Y. Honda, O. Kitao, H. Nakai, 
 T. Vreven, K. Throssell, J. A. Montgomery, Jr., J. E. Peralta, 
 F. Ogliaro, M. J. Bearpark, J. J. Heyd, E. N. Brothers, K. N. Kudin, 
 V. N. Staroverov, T. A. Keith, R. Kobayashi, J. Normand, 
 K. Raghavachari, A. P. Rendell, J. C. Burant, S. S. Iyengar, 
 J. Tomasi, M. Cossi, J. M. Millam, M. Klene, C. Adamo, R. Cammi, 
 J. W. Ochterski, R. L. Martin, K. Morokuma, O. Farkas, 
 J. B. Foresman, and D. J. Fox, Gaussian, Inc., Wallingford CT, 2016.
 
 ******************************************
 Gaussian 16:  ES64L-G16RevA.03 25-Dec-2016
                11-Feb-2020 
 ******************************************
 %chk=checkpoint.chk
 %mem=3GB
 %nprocshared=4
 Will use up to    4 processors via shared memory.
 -------------------------------------------------------------------
 #t pop=none jul-cc-pvdz guess=read ub97d3 empiricaldispersion=gd3bj
 -------------------------------------------------------------------
 ------------------------------
 theory_abbreviation b97d3_d3bj
 ------------------------------
 Symbolic Z-matrix:
 Charge =  0 Multiplicity = 6
 O                    -0.26836  -0.26455  -0.81093 
 C                    -1.0849   -1.21409  -0.65202 
 C                    -3.04787  -0.09837   0.42127 
 C                    -2.51558   0.99009  -0.17972 
 C                    -2.85371   1.35805  -1.59582 
 Fe                    1.45516   0.12764   0.02504 
 Cl                    2.09225   1.99681  -0.89494 
 C                    -1.60727   1.96356   0.50708 
 Cl                    2.61003  -1.64966  -0.53024 
 Cl                    1.15326   0.25813   2.20011 
 H                    -3.77013  -0.67996  -0.15034 
 H                    -2.1517    2.90292   0.67644 
 H                    -1.22998   1.61512   1.46764 
 H                    -0.75376   2.2149   -0.13295 
 H                    -3.26462   2.37536  -1.62266 
 H                    -1.9475    1.37465  -2.21519 
 H                    -3.58972   0.68568  -2.04442 
 C                    -2.99095  -0.4082    1.89461 
 H                    -3.81867   0.09513   2.41227 
 H                    -3.10536  -1.47912   2.08629 
 H                    -2.06245  -0.07709   2.36643 
 C                    -0.9185   -2.17562   0.48561 
 H                    -1.80289  -2.79538   0.63631 
 H                    -0.08081  -2.82887   0.19823 
 H                    -0.63379  -1.67349   1.40985 
 C                    -1.82981  -1.69731  -1.86373 
 H                    -1.16163  -2.42631  -2.34544 
 H                    -2.75776  -2.21068  -1.6086 
 H                    -2.00906  -0.89356  -2.5751 
 
                    Distance matrix (angstroms):
                    1          2          3          4          5
     1  O    0.000000
     2  C    1.262384   0.000000
     3  C    3.044926   2.500000   0.000000
     4  C    2.650006   2.669887   1.352502   0.000000
     5  C    3.151647   3.261179   2.495495   1.501687   0.000000
     6  Fe   1.955293   2.951362   4.526068   4.068476   4.765228
     7  Cl   3.270060   4.523624   5.704643   4.770439   5.036042
     8  C    2.914505   3.422552   2.516791   1.498123   2.518425
     9  Cl   3.206621   3.722506   5.943365   5.776067   6.327251
    10  Cl   3.370547   3.912987   4.576120   4.433937   5.628034
    11  H    3.587663   2.783418   1.089334   2.088977   2.661337
    12  H    3.973926   4.455627   3.142606   2.127051   2.835954
    13  H    3.106405   3.538136   2.708437   2.181106   3.476691
    14  H    2.615896   3.483820   3.304735   2.146239   2.698880
    15  H    4.074996   4.310154   3.216199   2.135905   1.097497
    16  H    2.734674   3.144702   3.214266   2.147959   1.097770
    17  H    3.668228   3.438318   2.643479   2.173375   1.093176
    18  C    3.840974   3.281433   1.506642   2.546378   3.914278
    19  H    4.808645   4.310150   2.143748   3.036018   4.311715
    20  H    4.232919   3.413330   2.163804   3.402883   4.655183
    21  H    3.653698   3.370370   2.180629   2.797694   4.287791
    22  C    2.399139   1.498810   2.975450   3.607635   4.534771
    23  H    3.294597   2.162356   2.978266   3.937462   4.830896
    24  H    2.762123   2.082946   4.038416   4.544822   5.332716
    25  H    2.655281   2.160063   3.047308   3.628022   4.811687
    26  C    2.366282   1.502204   3.043268   3.244729   3.233470
    27  H    2.797471   2.083993   4.078214   4.265589   4.212640
    28  H    3.258960   2.169494   2.943876   3.513588   3.570040
    29  H    2.556946   2.157553   3.269506   3.089099   2.596562
                    6          7          8          9         10
     6  Fe   0.000000
     7  Cl   2.178545   0.000000
     8  C    3.602982   3.956415   0.000000
     9  Cl   2.191078   3.701060   5.649514   0.000000
    10  Cl   2.199798   3.672064   3.659978   3.635462   0.000000
    11  H    5.290235   6.487449   3.478271   6.464596   5.535742
    12  H    4.597381   4.615333   1.098848   6.697463   4.498810
    13  H    3.391706   4.094469   1.089237   5.421800   2.838626
    14  H    3.043176   2.954308   1.096039   5.138837   3.592894
    15  H    5.481190   5.419308   2.729864   7.204554   6.214011
    16  H    4.260487   4.295312   2.805947   5.723335   5.509652
    17  H    5.481323   5.943498   3.474661   6.795841   6.379249
    18  C    4.852864   6.277304   3.076531   6.228325   4.208543
    19  H    5.789058   7.035124   3.465697   7.282221   4.979130
    20  H    5.256304   6.927115   4.073106   6.288158   4.600746
    21  H    4.230555   5.674427   2.797970   5.718012   3.237416
    22  C    3.339363   5.327258   4.196152   3.709321   3.626958
    23  H    4.419564   6.362540   4.764714   4.706095   4.528600
    24  H    3.336184   5.404111   5.039138   3.026847   3.880721
    25  H    3.086333   5.120004   3.871800   3.779792   2.747582
    26  C    4.205811   5.474267   4.367179   4.636009   5.407146
    27  H    4.357682   5.679409   5.254183   4.257180   5.764284
    28  H    5.087750   6.460257   4.819138   5.503704   5.991447
    29  H    4.450208   5.291305   4.221900   5.107748   5.842030
                   11         12         13         14         15
    11  H    0.000000
    12  H    4.017453   0.000000
    13  H    3.786501   1.770311   0.000000
    14  H    4.180786   1.755768   1.774381   0.000000
    15  H    3.429027   2.608209   3.777255   2.923932   0.000000
    16  H    3.436133   3.277012   3.759774   2.542976   1.757075
    17  H    2.342023   3.793040   4.332069   3.746317   1.771606
    18  C    2.205175   3.626541   2.716084   3.999582   4.493801
    19  H    2.677698   3.698054   3.147062   4.512786   4.667656
    20  H    2.466386   4.700999   3.670701   4.909254   5.351503
    21  H    3.100603   3.427028   2.089114   3.634941   4.834514
    22  C    3.282258   5.229602   3.928240   4.436931   5.537188
    23  H    2.993968   5.709107   4.524578   5.176416   5.828903
    24  H    4.283737   6.113156   4.762458   5.099227   6.366812
    25  H    3.641146   4.877037   3.342712   4.184995   5.701804
    26  C    2.781285   5.264805   4.736029   4.411212   4.324746
    27  H    3.830460   6.205854   5.556739   5.157732   5.291592
    28  H    2.344042   5.633620   5.141413   5.077332   4.613989
    29  H    3.004405   5.000611   4.821221   4.147571   3.628969
                   16         17         18         19         20
    16  H    0.000000
    17  H    1.789061   0.000000
    18  C    4.599761   4.131717   0.000000
    19  H    5.152844   4.501471   1.098375   0.000000
    20  H    5.290305   4.688679   1.093935   1.758783   0.000000
    21  H    4.807495   4.729694   1.092865   1.765240   1.769692
    22  C    4.577945   4.660852   3.066612   4.156837   2.798151
    23  H    5.053823   4.743088   2.948465   3.946192   2.351897
    24  H    5.194108   5.449227   4.148044   5.236728   3.812414
    25  H    4.915073   5.122038   2.718856   3.778405   2.569831
    26  C    3.094241   2.967929   4.139465   5.045051   4.156592
    27  H    3.883534   3.958622   5.039561   6.004434   4.931068
    28  H    3.725468   3.044838   3.946623   4.754964   3.782620
    29  H    2.297415   2.296546   4.601956   5.396853   4.824238
                   21         22         23         24         25
    21  H    0.000000
    22  C    3.041367   0.000000
    23  H    3.232610   1.090396   0.000000
    24  H    4.024953   1.100476   1.777243   0.000000
    25  H    2.346190   1.089686   1.795495   1.763151   0.000000
    26  C    4.535796   2.564887   2.730689   2.931060   3.485305
    27  H    5.341533   2.852507   3.072173   2.792941   3.866208
    28  H    4.564705   2.787442   2.508639   3.288295   3.729732
    29  H    5.008810   3.492983   3.737990   3.892936   4.287132
                   26         27         28         29
    26  C    0.000000
    27  H    1.099971   0.000000
    28  H    1.090753   1.771168   0.000000
    29  H    1.088207   1.766403   1.797077   0.000000
 Framework group  C1[X(C8H16Cl3FeO)]
 Deg. of freedom    81
                         Standard orientation:                         
 ---------------------------------------------------------------------
 Center     Atomic      Atomic             Coordinates (Angstroms)
 Number     Number       Type             X           Y           Z
 ---------------------------------------------------------------------
      1          8           0       -0.268361   -0.264550   -0.810930
      2          6           0       -1.084903   -1.214087   -0.652021
      3          6           0       -3.047866   -0.098369    0.421268
      4          6           0       -2.515579    0.990090   -0.179722
      5          6           0       -2.853706    1.358045   -1.595823
      6         26           0        1.455157    0.127637    0.025039
      7         17           0        2.092247    1.996814   -0.894936
      8          6           0       -1.607274    1.963564    0.507084
      9         17           0        2.610026   -1.649656   -0.530235
     10         17           0        1.153264    0.258125    2.200113
     11          1           0       -3.770129   -0.679960   -0.150341
     12          1           0       -2.151696    2.902921    0.676439
     13          1           0       -1.229982    1.615116    1.467642
     14          1           0       -0.753760    2.214895   -0.132953
     15          1           0       -3.264620    2.375360   -1.622655
     16          1           0       -1.947500    1.374654   -2.215189
     17          1           0       -3.589723    0.685683   -2.044423
     18          6           0       -2.990951   -0.408198    1.894610
     19          1           0       -3.818673    0.095128    2.412265
     20          1           0       -3.105363   -1.479116    2.086285
     21          1           0       -2.062452   -0.077094    2.366429
     22          6           0       -0.918499   -2.175617    0.485609
     23          1           0       -1.802890   -2.795379    0.636308
     24          1           0       -0.080809   -2.828870    0.198234
     25          1           0       -0.633787   -1.673491    1.409851
     26          6           0       -1.829806   -1.697308   -1.863728
     27          1           0       -1.161635   -2.426305   -2.345440
     28          1           0       -2.757760   -2.210683   -1.608603
     29          1           0       -2.009058   -0.893559   -2.575100
 ---------------------------------------------------------------------
 Rotational constants (GHZ):           0.5732709           0.3310725           0.3119977
   427 basis functions,  1056 primitive gaussians,   461 cartesian basis functions
    77 alpha electrons       72 beta electrons
       nuclear repulsion energy      1635.6066511182 Hartrees.
 NAtoms=   29 NActive=   29 NUniq=   29 SFac= 1.00D+00 NAtFMM=   60 NAOKFM=F Big=F
 Nuclear repulsion after empirical dispersion term =     1635.5050800172 Hartrees.
 Initial guess from the checkpoint file:  "checkpoint.chk"
 B after Tr=     0.000000    0.000000    0.000000
         Rot=    1.000000    0.000000    0.000000    0.000000 Ang=   0.00 deg.
 Initial guess <Sx>= 0.0000 <Sy>= 0.0000 <Sz>= 2.5000 <S**2>= 8.7616 S= 2.5019
 SCF Done:  E(UB97D3) =  -3034.63376561     A.U. after   17 cycles
            NFock= 17  Conv=0.38D-08     -V/T= 2.0019
 <Sx>= 0.0000 <Sy>= 0.0000 <Sz>= 2.5000 <S**2>= 8.7597 S= 2.5016
 <L.S>= 0.000000000000E+00
 Annihilation of the first spin contaminant:
 S**2 before annihilation     8.7597,   after     8.7500
 1\1\GINC-HOLY7C04209\SP\UB97D3\Jul-CC-pVDZ\C8H16Cl3Fe1O1(6)\EKWAN\11-F
 eb-2020\0\\#t pop=none jul-cc-pvdz guess=read ub97d3 empiricaldispersi
 on=gd3bj\\theory_abbreviation b97d3_d3bj\\0,6\O,0,-0.268361,-0.26455,-
 0.81093\C,0,-1.084903,-1.214087,-0.652021\C,0,-3.047866,-0.098369,0.42
 1268\C,0,-2.515579,0.99009,-0.179722\C,0,-2.853706,1.358045,-1.595823\
 Fe,0,1.455157,0.127637,0.025039\Cl,0,2.092247,1.996814,-0.894936\C,0,-
 1.607274,1.963564,0.507084\Cl,0,2.610026,-1.649656,-0.530235\Cl,0,1.15
 3264,0.258125,2.200113\H,0,-3.770129,-0.67996,-0.150341\H,0,-2.151696,
 2.902921,0.676439\H,0,-1.229982,1.615116,1.467642\H,0,-0.75376,2.21489
 5,-0.132953\H,0,-3.26462,2.37536,-1.622655\H,0,-1.9475,1.374654,-2.215
 189\H,0,-3.589723,0.685683,-2.044423\C,0,-2.990951,-0.408198,1.89461\H
 ,0,-3.818673,0.095128,2.412265\H,0,-3.105363,-1.479116,2.086285\H,0,-2
 .062452,-0.077094,2.366429\C,0,-0.918499,-2.175617,0.485609\H,0,-1.802
 89,-2.795379,0.636308\H,0,-0.080809,-2.82887,0.198234\H,0,-0.633787,-1
 .673491,1.409851\C,0,-1.829806,-1.697308,-1.863728\H,0,-1.161635,-2.42
 6305,-2.34544\H,0,-2.75776,-2.210683,-1.608603\H,0,-2.009058,-0.893559
 ,-2.5751\\Version=ES64L-G16RevA.03\HF=-3034.6337656\S2=8.75974\S2-1=0.
 \S2A=8.75003\RMSD=3.765e-09\PG=C01 [X(C8H16Cl3Fe1O1)]\\@


 SEEN ON A WALL AT THE UNIVERSITY OF ILLINOIS AT CHICAGO CIRCLE:

 TO DO IS TO BE  -- SOCRATES
 TO BE IS TO DO  -- SARTRE
 OO BE DO BE DO  -- SINATRA
 Job cpu time:       0 days  0 hours 53 minutes 25.7 seconds.
 Elapsed time:       0 days  0 hours 13 minutes 23.9 seconds.
 File lengths (MBytes):  RWF=    174 Int=      0 D2E=      0 Chk=     13 Scr=      1
 Normal termination of Gaussian 16 at Tue Feb 11 23:22:58 2020.
