 Entering Gaussian System, Link 0=g16
 Input=simple-grid-160-200-b3lyp_d3bj-631gd-gas-singlepoint-DFT-juldz2-gas.gjf
 Output=simple-grid-160-200-b3lyp_d3bj-631gd-gas-singlepoint-DFT-juldz2-gas.out
 Initial command:
 /n/sw/g16_nehalem/g16/l1.exe "/scratch/Gau-140327.inp" -scrdir="/scratch/"
 Entering Link 1 = /n/sw/g16_nehalem/g16/l1.exe PID=    140328.
  
 Copyright (c) 1988,1990,1992,1993,1995,1998,2003,2009,2016,
            Gaussian, Inc.  All Rights Reserved.
  
 This is part of the Gaussian(R) 16 program.  It is based on
 the Gaussian(R) 09 system (copyright 2009, Gaussian, Inc.),
 the Gaussian(R) 03 system (copyright 2003, Gaussian, Inc.),
 the Gaussian(R) 98 system (copyright 1998, Gaussian, Inc.),
 the Gaussian(R) 94 system (copyright 1995, Gaussian, Inc.),
 the Gaussian 92(TM) system (copyright 1992, Gaussian, Inc.),
 the Gaussian 90(TM) system (copyright 1990, Gaussian, Inc.),
 the Gaussian 88(TM) system (copyright 1988, Gaussian, Inc.),
 the Gaussian 86(TM) system (copyright 1986, Carnegie Mellon
 University), and the Gaussian 82(TM) system (copyright 1983,
 Carnegie Mellon University). Gaussian is a federally registered
 trademark of Gaussian, Inc.
  
 This software contains proprietary and confidential information,
 including trade secrets, belonging to Gaussian, Inc.
  
 This software is provided under written license and may be
 used, copied, transmitted, or stored only in accord with that
 written license.
  
 The following legend is applicable only to US Government
 contracts under FAR:
  
                    RESTRICTED RIGHTS LEGEND
  
 Use, reproduction and disclosure by the US Government is
 subject to restrictions as set forth in subparagraphs (a)
 and (c) of the Commercial Computer Software - Restricted
 Rights clause in FAR 52.227-19.
  
 Gaussian, Inc.
 340 Quinnipiac St., Bldg. 40, Wallingford CT 06492
  
  
 ---------------------------------------------------------------
 Warning -- This program may not be used in any manner that
 competes with the business of Gaussian, Inc. or will provide
 assistance to any competitor of Gaussian, Inc.  The licensee
 of this program is prohibited from giving any competitor of
 Gaussian, Inc. access to this program.  By using this program,
 the user acknowledges that Gaussian, Inc. is engaged in the
 business of creating and licensing software in the field of
 computational chemistry and represents and warrants to the
 licensee that it is not a competitor of Gaussian, Inc. and that
 it will not use this program in any manner prohibited above.
 ---------------------------------------------------------------
  

 Cite this work as:
 Gaussian 16, Revision A.03,
 M. J. Frisch, G. W. Trucks, H. B. Schlegel, G. E. Scuseria, 
 M. A. Robb, J. R. Cheeseman, G. Scalmani, V. Barone, 
 G. A. Petersson, H. Nakatsuji, X. Li, M. Caricato, A. V. Marenich, 
 J. Bloino, B. G. Janesko, R. Gomperts, B. Mennucci, H. P. Hratchian, 
 J. V. Ortiz, A. F. Izmaylov, J. L. Sonnenberg, D. Williams-Young, 
 F. Ding, F. Lipparini, F. Egidi, J. Goings, B. Peng, A. Petrone, 
 T. Henderson, D. Ranasinghe, V. G. Zakrzewski, J. Gao, N. Rega, 
 G. Zheng, W. Liang, M. Hada, M. Ehara, K. Toyota, R. Fukuda, 
 J. Hasegawa, M. Ishida, T. Nakajima, Y. Honda, O. Kitao, H. Nakai, 
 T. Vreven, K. Throssell, J. A. Montgomery, Jr., J. E. Peralta, 
 F. Ogliaro, M. J. Bearpark, J. J. Heyd, E. N. Brothers, K. N. Kudin, 
 V. N. Staroverov, T. A. Keith, R. Kobayashi, J. Normand, 
 K. Raghavachari, A. P. Rendell, J. C. Burant, S. S. Iyengar, 
 J. Tomasi, M. Cossi, J. M. Millam, M. Klene, C. Adamo, R. Cammi, 
 J. W. Ochterski, R. L. Martin, K. Morokuma, O. Farkas, 
 J. B. Foresman, and D. J. Fox, Gaussian, Inc., Wallingford CT, 2016.
 
 ******************************************
 Gaussian 16:  ES64L-G16RevA.03 25-Dec-2016
                11-Feb-2020 
 ******************************************
 %chk=checkpoint.chk
 %mem=3GB
 %nprocshared=4
 Will use up to    4 processors via shared memory.
 --------------------------------
 #t pop=none jul-cc-pvdz upbe1pbe
 --------------------------------
 ------------------------
 theory_abbreviation pbe0
 ------------------------
 Symbolic Z-matrix:
 Charge =  0 Multiplicity = 6
 O                    -0.42312  -0.16964  -0.52877 
 C                    -1.48496  -1.16     -0.32115 
 C                    -2.71594  -0.139    -0.27387 
 C                    -1.89726   1.15331  -0.2518 
 C                    -1.81522   1.97604  -1.48583 
 Fe                    1.37766   0.0267    0.02406 
 Cl                    1.87539   1.98566  -0.8651 
 C                    -1.56555   1.81615   1.03612 
 Cl                    2.41915  -1.73834  -0.74797 
 Cl                    1.40003   0.14769   2.22969 
 H                    -3.23954  -0.19158  -1.23393 
 H                    -2.43884   2.4246    1.31941 
 H                    -1.36959   1.10905   1.84182 
 H                    -0.70943   2.48568   0.92502 
 H                    -2.64417   2.70135  -1.4539 
 H                    -0.8756    2.53409  -1.52025 
 H                    -1.9225    1.3701   -2.38677 
 C                    -3.73475  -0.30642   0.85059 
 H                    -4.50666   0.46944   0.79774 
 H                    -4.2356   -1.27457   0.7529 
 H                    -3.27747  -0.26554   1.84191 
 C                    -1.24708  -1.93911   0.96324 
 H                    -2.06552  -2.64349   1.14433 
 H                    -0.32027  -2.51429   0.86824 
 H                    -1.14192  -1.28538   1.83115 
 C                    -1.52434  -2.07623  -1.53347 
 H                    -0.5821   -2.62825  -1.60776 
 H                    -2.34721  -2.79553  -1.44885 
 H                    -1.65468  -1.49626  -2.45206 
 
                    Distance matrix (angstroms):
                    1          2          3          4          5
     1  O    0.000000
     2  C    1.466766   0.000000
     3  C    2.307148   1.600001   0.000000
     4  C    1.999995   2.350786   1.529964   0.000000
     5  C    2.730905   3.361589   2.598755   1.485407   0.000000
     6  Fe   1.893932   3.118011   4.107770   3.474249   4.034120
     7  Cl   3.168845   4.634969   5.093526   3.911749   3.742454
     8  C    2.774420   3.272026   2.619558   1.485981   2.539318
     9  Cl   3.253822   3.969720   5.399241   5.219114   5.680749
    10  Cl   3.321699   4.066939   4.826100   4.247492   5.242686
    11  H    2.903431   2.202164   1.094814   2.138929   2.605905
    12  H    3.769480   4.055946   3.031070   2.092416   2.908516
    13  H    2.854919   3.136933   2.801148   2.159546   3.467489
    14  H    3.040758   3.930059   3.514593   2.138002   2.700863
    15  H    3.745871   4.187713   3.076558   2.097467   1.101937
    16  H    2.915120   3.931338   3.476446   2.135246   1.093376
    17  H    2.840973   3.295397   2.715008   2.146097   1.091044
    18  C    3.590018   2.676406   1.526572   2.592774   3.788549
    19  H    4.340890   3.610771   2.173757   2.894513   3.837760
    20  H    4.171148   2.955117   2.157109   3.517362   4.629964
    21  H    3.711686   2.948219   2.192682   2.881275   4.270443
    22  C    2.456830   1.520942   2.632184   3.385571   4.652859
    23  H    3.408322   2.164588   2.950737   4.048853   5.321698
    24  H    2.731230   2.145991   3.561701   4.146409   5.285795
    25  H    2.707541   2.183075   2.867556   3.294913   4.700273
    26  C    2.420161   1.520113   2.599878   3.494518   4.062976
    27  H    2.689654   2.150877   3.539622   4.227109   4.768119
    28  H    3.382890   2.165673   2.928086   4.150746   4.801276
    29  H    2.641155   2.163942   2.777219   3.452565   3.607807
                    6          7          8          9         10
     6  Fe   0.000000
     7  Cl   2.208130   0.000000
     8  C    3.590109   3.934902   0.000000
     9  Cl   2.189999   3.765308   5.629849   0.000000
    10  Cl   2.209059   3.630676   3.605975   3.669076   0.000000
    11  H    4.790475   5.571254   3.462129   5.886367   5.799769
    12  H    4.689721   4.855645   1.101404   6.723402   4.555201
    13  H    3.467438   4.315756   1.089739   5.400851   2.957278
    14  H    3.348766   3.183679   1.092505   5.516268   3.408551
    15  H    5.051064   4.613605   2.854337   6.771000   6.037024
    16  H    3.707973   2.880618   2.743448   5.450271   4.993543
    17  H    4.302081   4.137437   3.470245   5.585521   5.817668
    18  C    5.189494   6.298483   3.040586   6.517379   5.336115
    19  H    5.951452   6.767162   3.243542   7.431708   6.086295
    20  H    5.808021   7.112741   4.094127   6.837636   5.997000
    21  H    5.006016   6.240811   2.813073   6.428689   4.711705
    22  C    3.411118   5.338203   3.769439   4.050899   3.600805
    23  H    4.498933   6.402934   4.488885   4.950989   4.580253
    24  H    3.170530   5.298578   4.509064   3.273932   3.449508
    25  H    3.366812   5.203231   3.229710   4.420206   2.945170
    26  C    3.907660   5.338894   4.664239   4.035131   5.259194
    27  H    3.681335   5.280047   5.264027   3.246327   5.134261
    28  H    4.899907   6.405532   5.296570   4.932248   6.019634
    29  H    4.200673   5.206110   4.811179   4.422512   5.826886
                   11         12         13         14         15
    11  H    0.000000
    12  H    3.742336   0.000000
    13  H    3.827341   1.773940   0.000000
    14  H    4.269686   1.774860   1.780858   0.000000
    15  H    2.961745   2.794641   3.875791   3.073923   0.000000
    16  H    3.619315   3.243353   3.684868   2.451382   1.777699
    17  H    2.345740   3.887720   4.272569   3.699191   1.778562
    18  C    2.145607   3.059035   2.929177   4.117520   3.942939
    19  H    2.483993   2.893217   3.367548   4.301209   3.676983
    20  H    2.472335   4.151283   3.883473   5.157805   4.817731
    21  H    3.076955   2.865864   2.351488   3.873596   4.479495
    22  C    3.442564   4.537519   3.174614   4.457497   5.415562
    23  H    3.611962   5.084843   3.879743   5.309945   5.971016
    24  H    4.282081   5.393012   3.895841   5.015419   6.164079
    25  H    3.871833   3.963314   2.405257   3.902442   5.379815
    26  C    2.565835   5.406729   4.643549   5.245881   4.907713
    27  H    3.624787   6.127570   5.146568   5.708191   5.716686
    28  H    2.760970   5.909435   5.199037   6.017370   5.504898
    29  H    2.387008   5.496551   5.030540   5.306036   4.426668
                   16         17         18         19         20
    16  H    0.000000
    17  H    1.789337   0.000000
    18  C    4.675907   4.071301   0.000000
    19  H    4.777072   4.198832   1.095716   0.000000
    20  H    5.564402   4.711919   1.094391   1.765514   0.000000
    21  H    4.991088   4.732123   1.092468   1.772391   1.766943
    22  C    5.129833   4.757063   2.977723   4.056267   3.068723
    23  H    5.943334   5.347717   2.886957   3.971100   2.595460
    24  H    5.612437   5.315150   4.066165   5.141351   4.108529
    25  H    5.088336   5.044978   2.939836   3.933039   3.276215
    26  C    4.655755   3.572654   3.701604   4.561709   3.636073
    27  H    5.171415   4.288400   4.623158   5.548359   4.555567
    28  H    5.529513   4.290983   3.661739   4.513356   3.275209
    29  H    4.209389   2.879589   4.080430   4.749629   4.120923
                   21         22         23         24         25
    21  H    0.000000
    22  C    2.774050   0.000000
    23  H    2.758645   1.094893   0.000000
    24  H    3.840569   1.094921   1.771669   0.000000
    25  H    2.366596   1.091642   1.780233   1.764237   0.000000
    26  C    4.212510   2.515800   2.790208   2.722116   3.477409
    27  H    4.974700   2.743569   3.126459   2.492412   3.734006
    28  H    4.253859   2.786026   2.612861   3.091362   3.806796
    29  H    4.752503   3.467930   3.797227   3.720410   4.318947
                   26         27         28         29
    26  C    0.000000
    27  H    1.094564   0.000000
    28  H    1.096206   1.780132   0.000000
    29  H    1.094147   1.773325   1.781605   0.000000
 Framework group  C1[X(C8H16Cl3FeO)]
 Deg. of freedom    81
                         Standard orientation:                         
 ---------------------------------------------------------------------
 Center     Atomic      Atomic             Coordinates (Angstroms)
 Number     Number       Type             X           Y           Z
 ---------------------------------------------------------------------
      1          8           0       -0.423123   -0.169642   -0.528770
      2          6           0       -1.484958   -1.159998   -0.321153
      3          6           0       -2.715942   -0.138996   -0.273873
      4          6           0       -1.897256    1.153310   -0.251803
      5          6           0       -1.815216    1.976042   -1.485827
      6         26           0        1.377657    0.026701    0.024059
      7         17           0        1.875389    1.985655   -0.865099
      8          6           0       -1.565552    1.816150    1.036124
      9         17           0        2.419146   -1.738342   -0.747965
     10         17           0        1.400031    0.147685    2.229689
     11          1           0       -3.239537   -0.191583   -1.233925
     12          1           0       -2.438835    2.424604    1.319410
     13          1           0       -1.369594    1.109053    1.841819
     14          1           0       -0.709428    2.485682    0.925015
     15          1           0       -2.644172    2.701354   -1.453903
     16          1           0       -0.875604    2.534088   -1.520249
     17          1           0       -1.922504    1.370102   -2.386773
     18          6           0       -3.734752   -0.306422    0.850590
     19          1           0       -4.506659    0.469439    0.797742
     20          1           0       -4.235596   -1.274566    0.752895
     21          1           0       -3.277472   -0.265537    1.841907
     22          6           0       -1.247084   -1.939105    0.963243
     23          1           0       -2.065519   -2.643493    1.144328
     24          1           0       -0.320270   -2.514294    0.868243
     25          1           0       -1.141921   -1.285381    1.831153
     26          6           0       -1.524342   -2.076229   -1.533470
     27          1           0       -0.582097   -2.628250   -1.607757
     28          1           0       -2.347214   -2.795526   -1.448851
     29          1           0       -1.654681   -1.496262   -2.452060
 ---------------------------------------------------------------------
 Rotational constants (GHZ):           0.5757282           0.3644083           0.3242510
   427 basis functions,  1056 primitive gaussians,   461 cartesian basis functions
    77 alpha electrons       72 beta electrons
       nuclear repulsion energy      1663.7547467879 Hartrees.
 NAtoms=   29 NActive=   29 NUniq=   29 SFac= 1.00D+00 NAtFMM=   60 NAOKFM=F Big=F
 ExpMin= 1.40D-02 ExpMax= 4.32D+06 ExpMxC= 4.91D+03 IAcc=3 IRadAn=         5 AccDes= 0.00D+00
 Harris functional with IExCor= 1009 and IRadAn=       5 diagonalized for initial guess.
 HarFok:  IExCor= 1009 AccDes= 0.00D+00 IRadAn=         5 IDoV= 1 UseB2=F ITyADJ=14
 ICtDFT=  3500011 ScaDFX=  1.000000  1.000000  1.000000  1.000000
 FoFCou: FMM=F IPFlag=           0 FMFlag=      100000 FMFlg1=           0
         NFxFlg=           0 DoJE=T BraDBF=F KetDBF=T FulRan=T
         wScrn=  0.000000 ICntrl=       500 IOpCl=  0 I1Cent=   200000004 NGrid=           0
         NMat0=    1 NMatS0=      1 NMatT0=    0 NMatD0=    1 NMtDS0=    0 NMtDT0=    0
 Petite list used in FoFCou.
 Initial guess <Sx>= 0.0000 <Sy>= 0.0000 <Sz>= 2.5000 <S**2>= 8.7500 S= 2.5000
 EnCoef did   100 forward-backward iterations
 SCF Done:  E(UPBE1PBE) =  -3033.12766078     A.U. after   19 cycles
            NFock= 19  Conv=0.44D-08     -V/T= 2.0022
 <Sx>= 0.0000 <Sy>= 0.0000 <Sz>= 2.5000 <S**2>= 8.7627 S= 2.5021
 <L.S>= 0.000000000000E+00
 Annihilation of the first spin contaminant:
 S**2 before annihilation     8.7627,   after     8.7501
 1\1\GINC-HOLY7C18604\SP\UPBE1PBE\Jul-CC-pVDZ\C8H16Cl3Fe1O1(6)\EKWAN\11
 -Feb-2020\0\\#t pop=none jul-cc-pvdz upbe1pbe\\theory_abbreviation pbe
 0\\0,6\O,0,-0.423123,-0.169642,-0.52877\C,0,-1.484958,-1.159998,-0.321
 153\C,0,-2.715942,-0.138996,-0.273873\C,0,-1.897256,1.15331,-0.251803\
 C,0,-1.815216,1.976042,-1.485827\Fe,0,1.377657,0.026701,0.024059\Cl,0,
 1.875389,1.985655,-0.865099\C,0,-1.565552,1.81615,1.036124\Cl,0,2.4191
 46,-1.738342,-0.747965\Cl,0,1.400031,0.147685,2.229689\H,0,-3.239537,-
 0.191583,-1.233925\H,0,-2.438835,2.424604,1.31941\H,0,-1.369594,1.1090
 53,1.841819\H,0,-0.709428,2.485682,0.925015\H,0,-2.644172,2.701354,-1.
 453903\H,0,-0.875604,2.534088,-1.520249\H,0,-1.922504,1.370102,-2.3867
 73\C,0,-3.734752,-0.306422,0.85059\H,0,-4.506659,0.469439,0.797742\H,0
 ,-4.235596,-1.274566,0.752895\H,0,-3.277472,-0.265537,1.841907\C,0,-1.
 247084,-1.939105,0.963243\H,0,-2.065519,-2.643493,1.144328\H,0,-0.3202
 7,-2.514294,0.868243\H,0,-1.141921,-1.285381,1.831153\C,0,-1.524342,-2
 .076229,-1.53347\H,0,-0.582097,-2.62825,-1.607757\H,0,-2.347214,-2.795
 526,-1.448851\H,0,-1.654681,-1.496262,-2.45206\\Version=ES64L-G16RevA.
 03\HF=-3033.1276608\S2=8.762727\S2-1=0.\S2A=8.75005\RMSD=4.416e-09\PG=
 C01 [X(C8H16Cl3Fe1O1)]\\@


 WISDOM IS KNOWING WHAT TO DO,
 SKILL IS KNOWING HOW TO DO IT,
 AND VIRTUE IS NOT DOING IT.
 Job cpu time:       0 days  1 hours 17 minutes  1.0 seconds.
 Elapsed time:       0 days  0 hours 19 minutes 21.7 seconds.
 File lengths (MBytes):  RWF=    173 Int=      0 D2E=      0 Chk=     13 Scr=      1
 Normal termination of Gaussian 16 at Tue Feb 11 13:53:07 2020.
 Initial command:
 /n/sw/g16_nehalem/g16/l1.exe "/scratch/Gau-140327.inp" -scrdir="/scratch/"
 Entering Link 1 = /n/sw/g16_nehalem/g16/l1.exe PID=    147820.
  
 Copyright (c) 1988,1990,1992,1993,1995,1998,2003,2009,2016,
            Gaussian, Inc.  All Rights Reserved.
  
 This is part of the Gaussian(R) 16 program.  It is based on
 the Gaussian(R) 09 system (copyright 2009, Gaussian, Inc.),
 the Gaussian(R) 03 system (copyright 2003, Gaussian, Inc.),
 the Gaussian(R) 98 system (copyright 1998, Gaussian, Inc.),
 the Gaussian(R) 94 system (copyright 1995, Gaussian, Inc.),
 the Gaussian 92(TM) system (copyright 1992, Gaussian, Inc.),
 the Gaussian 90(TM) system (copyright 1990, Gaussian, Inc.),
 the Gaussian 88(TM) system (copyright 1988, Gaussian, Inc.),
 the Gaussian 86(TM) system (copyright 1986, Carnegie Mellon
 University), and the Gaussian 82(TM) system (copyright 1983,
 Carnegie Mellon University). Gaussian is a federally registered
 trademark of Gaussian, Inc.
  
 This software contains proprietary and confidential information,
 including trade secrets, belonging to Gaussian, Inc.
  
 This software is provided under written license and may be
 used, copied, transmitted, or stored only in accord with that
 written license.
  
 The following legend is applicable only to US Government
 contracts under FAR:
  
                    RESTRICTED RIGHTS LEGEND
  
 Use, reproduction and disclosure by the US Government is
 subject to restrictions as set forth in subparagraphs (a)
 and (c) of the Commercial Computer Software - Restricted
 Rights clause in FAR 52.227-19.
  
 Gaussian, Inc.
 340 Quinnipiac St., Bldg. 40, Wallingford CT 06492
  
  
 ---------------------------------------------------------------
 Warning -- This program may not be used in any manner that
 competes with the business of Gaussian, Inc. or will provide
 assistance to any competitor of Gaussian, Inc.  The licensee
 of this program is prohibited from giving any competitor of
 Gaussian, Inc. access to this program.  By using this program,
 the user acknowledges that Gaussian, Inc. is engaged in the
 business of creating and licensing software in the field of
 computational chemistry and represents and warrants to the
 licensee that it is not a competitor of Gaussian, Inc. and that
 it will not use this program in any manner prohibited above.
 ---------------------------------------------------------------
  

 Cite this work as:
 Gaussian 16, Revision A.03,
 M. J. Frisch, G. W. Trucks, H. B. Schlegel, G. E. Scuseria, 
 M. A. Robb, J. R. Cheeseman, G. Scalmani, V. Barone, 
 G. A. Petersson, H. Nakatsuji, X. Li, M. Caricato, A. V. Marenich, 
 J. Bloino, B. G. Janesko, R. Gomperts, B. Mennucci, H. P. Hratchian, 
 J. V. Ortiz, A. F. Izmaylov, J. L. Sonnenberg, D. Williams-Young, 
 F. Ding, F. Lipparini, F. Egidi, J. Goings, B. Peng, A. Petrone, 
 T. Henderson, D. Ranasinghe, V. G. Zakrzewski, J. Gao, N. Rega, 
 G. Zheng, W. Liang, M. Hada, M. Ehara, K. Toyota, R. Fukuda, 
 J. Hasegawa, M. Ishida, T. Nakajima, Y. Honda, O. Kitao, H. Nakai, 
 T. Vreven, K. Throssell, J. A. Montgomery, Jr., J. E. Peralta, 
 F. Ogliaro, M. J. Bearpark, J. J. Heyd, E. N. Brothers, K. N. Kudin, 
 V. N. Staroverov, T. A. Keith, R. Kobayashi, J. Normand, 
 K. Raghavachari, A. P. Rendell, J. C. Burant, S. S. Iyengar, 
 J. Tomasi, M. Cossi, J. M. Millam, M. Klene, C. Adamo, R. Cammi, 
 J. W. Ochterski, R. L. Martin, K. Morokuma, O. Farkas, 
 J. B. Foresman, and D. J. Fox, Gaussian, Inc., Wallingford CT, 2016.
 
 ******************************************
 Gaussian 16:  ES64L-G16RevA.03 25-Dec-2016
                11-Feb-2020 
 ******************************************
 %chk=checkpoint.chk
 %mem=3GB
 %nprocshared=4
 Will use up to    4 processors via shared memory.
 ---------------------------------------------------------------------
 #t pop=none jul-cc-pvdz guess=read upbe1pbe empiricaldispersion=gd3bj
 ---------------------------------------------------------------------
 -----------------------------
 theory_abbreviation pbe0_d3bj
 -----------------------------
 Symbolic Z-matrix:
 Charge =  0 Multiplicity = 6
 O                    -0.42312  -0.16964  -0.52877 
 C                    -1.48496  -1.16     -0.32115 
 C                    -2.71594  -0.139    -0.27387 
 C                    -1.89726   1.15331  -0.2518 
 C                    -1.81522   1.97604  -1.48583 
 Fe                    1.37766   0.0267    0.02406 
 Cl                    1.87539   1.98566  -0.8651 
 C                    -1.56555   1.81615   1.03612 
 Cl                    2.41915  -1.73834  -0.74797 
 Cl                    1.40003   0.14769   2.22969 
 H                    -3.23954  -0.19158  -1.23393 
 H                    -2.43884   2.4246    1.31941 
 H                    -1.36959   1.10905   1.84182 
 H                    -0.70943   2.48568   0.92502 
 H                    -2.64417   2.70135  -1.4539 
 H                    -0.8756    2.53409  -1.52025 
 H                    -1.9225    1.3701   -2.38677 
 C                    -3.73475  -0.30642   0.85059 
 H                    -4.50666   0.46944   0.79774 
 H                    -4.2356   -1.27457   0.7529 
 H                    -3.27747  -0.26554   1.84191 
 C                    -1.24708  -1.93911   0.96324 
 H                    -2.06552  -2.64349   1.14433 
 H                    -0.32027  -2.51429   0.86824 
 H                    -1.14192  -1.28538   1.83115 
 C                    -1.52434  -2.07623  -1.53347 
 H                    -0.5821   -2.62825  -1.60776 
 H                    -2.34721  -2.79553  -1.44885 
 H                    -1.65468  -1.49626  -2.45206 
 
                    Distance matrix (angstroms):
                    1          2          3          4          5
     1  O    0.000000
     2  C    1.466766   0.000000
     3  C    2.307148   1.600001   0.000000
     4  C    1.999995   2.350786   1.529964   0.000000
     5  C    2.730905   3.361589   2.598755   1.485407   0.000000
     6  Fe   1.893932   3.118011   4.107770   3.474249   4.034120
     7  Cl   3.168845   4.634969   5.093526   3.911749   3.742454
     8  C    2.774420   3.272026   2.619558   1.485981   2.539318
     9  Cl   3.253822   3.969720   5.399241   5.219114   5.680749
    10  Cl   3.321699   4.066939   4.826100   4.247492   5.242686
    11  H    2.903431   2.202164   1.094814   2.138929   2.605905
    12  H    3.769480   4.055946   3.031070   2.092416   2.908516
    13  H    2.854919   3.136933   2.801148   2.159546   3.467489
    14  H    3.040758   3.930059   3.514593   2.138002   2.700863
    15  H    3.745871   4.187713   3.076558   2.097467   1.101937
    16  H    2.915120   3.931338   3.476446   2.135246   1.093376
    17  H    2.840973   3.295397   2.715008   2.146097   1.091044
    18  C    3.590018   2.676406   1.526572   2.592774   3.788549
    19  H    4.340890   3.610771   2.173757   2.894513   3.837760
    20  H    4.171148   2.955117   2.157109   3.517362   4.629964
    21  H    3.711686   2.948219   2.192682   2.881275   4.270443
    22  C    2.456830   1.520942   2.632184   3.385571   4.652859
    23  H    3.408322   2.164588   2.950737   4.048853   5.321698
    24  H    2.731230   2.145991   3.561701   4.146409   5.285795
    25  H    2.707541   2.183075   2.867556   3.294913   4.700273
    26  C    2.420161   1.520113   2.599878   3.494518   4.062976
    27  H    2.689654   2.150877   3.539622   4.227109   4.768119
    28  H    3.382890   2.165673   2.928086   4.150746   4.801276
    29  H    2.641155   2.163942   2.777219   3.452565   3.607807
                    6          7          8          9         10
     6  Fe   0.000000
     7  Cl   2.208130   0.000000
     8  C    3.590109   3.934902   0.000000
     9  Cl   2.189999   3.765308   5.629849   0.000000
    10  Cl   2.209059   3.630676   3.605975   3.669076   0.000000
    11  H    4.790475   5.571254   3.462129   5.886367   5.799769
    12  H    4.689721   4.855645   1.101404   6.723402   4.555201
    13  H    3.467438   4.315756   1.089739   5.400851   2.957278
    14  H    3.348766   3.183679   1.092505   5.516268   3.408551
    15  H    5.051064   4.613605   2.854337   6.771000   6.037024
    16  H    3.707973   2.880618   2.743448   5.450271   4.993543
    17  H    4.302081   4.137437   3.470245   5.585521   5.817668
    18  C    5.189494   6.298483   3.040586   6.517379   5.336115
    19  H    5.951452   6.767162   3.243542   7.431708   6.086295
    20  H    5.808021   7.112741   4.094127   6.837636   5.997000
    21  H    5.006016   6.240811   2.813073   6.428689   4.711705
    22  C    3.411118   5.338203   3.769439   4.050899   3.600805
    23  H    4.498933   6.402934   4.488885   4.950989   4.580253
    24  H    3.170530   5.298578   4.509064   3.273932   3.449508
    25  H    3.366812   5.203231   3.229710   4.420206   2.945170
    26  C    3.907660   5.338894   4.664239   4.035131   5.259194
    27  H    3.681335   5.280047   5.264027   3.246327   5.134261
    28  H    4.899907   6.405532   5.296570   4.932248   6.019634
    29  H    4.200673   5.206110   4.811179   4.422512   5.826886
                   11         12         13         14         15
    11  H    0.000000
    12  H    3.742336   0.000000
    13  H    3.827341   1.773940   0.000000
    14  H    4.269686   1.774860   1.780858   0.000000
    15  H    2.961745   2.794641   3.875791   3.073923   0.000000
    16  H    3.619315   3.243353   3.684868   2.451382   1.777699
    17  H    2.345740   3.887720   4.272569   3.699191   1.778562
    18  C    2.145607   3.059035   2.929177   4.117520   3.942939
    19  H    2.483993   2.893217   3.367548   4.301209   3.676983
    20  H    2.472335   4.151283   3.883473   5.157805   4.817731
    21  H    3.076955   2.865864   2.351488   3.873596   4.479495
    22  C    3.442564   4.537519   3.174614   4.457497   5.415562
    23  H    3.611962   5.084843   3.879743   5.309945   5.971016
    24  H    4.282081   5.393012   3.895841   5.015419   6.164079
    25  H    3.871833   3.963314   2.405257   3.902442   5.379815
    26  C    2.565835   5.406729   4.643549   5.245881   4.907713
    27  H    3.624787   6.127570   5.146568   5.708191   5.716686
    28  H    2.760970   5.909435   5.199037   6.017370   5.504898
    29  H    2.387008   5.496551   5.030540   5.306036   4.426668
                   16         17         18         19         20
    16  H    0.000000
    17  H    1.789337   0.000000
    18  C    4.675907   4.071301   0.000000
    19  H    4.777072   4.198832   1.095716   0.000000
    20  H    5.564402   4.711919   1.094391   1.765514   0.000000
    21  H    4.991088   4.732123   1.092468   1.772391   1.766943
    22  C    5.129833   4.757063   2.977723   4.056267   3.068723
    23  H    5.943334   5.347717   2.886957   3.971100   2.595460
    24  H    5.612437   5.315150   4.066165   5.141351   4.108529
    25  H    5.088336   5.044978   2.939836   3.933039   3.276215
    26  C    4.655755   3.572654   3.701604   4.561709   3.636073
    27  H    5.171415   4.288400   4.623158   5.548359   4.555567
    28  H    5.529513   4.290983   3.661739   4.513356   3.275209
    29  H    4.209389   2.879589   4.080430   4.749629   4.120923
                   21         22         23         24         25
    21  H    0.000000
    22  C    2.774050   0.000000
    23  H    2.758645   1.094893   0.000000
    24  H    3.840569   1.094921   1.771669   0.000000
    25  H    2.366596   1.091642   1.780233   1.764237   0.000000
    26  C    4.212510   2.515800   2.790208   2.722116   3.477409
    27  H    4.974700   2.743569   3.126459   2.492412   3.734006
    28  H    4.253859   2.786026   2.612861   3.091362   3.806796
    29  H    4.752503   3.467930   3.797227   3.720410   4.318947
                   26         27         28         29
    26  C    0.000000
    27  H    1.094564   0.000000
    28  H    1.096206   1.780132   0.000000
    29  H    1.094147   1.773325   1.781605   0.000000
 Framework group  C1[X(C8H16Cl3FeO)]
 Deg. of freedom    81
                         Standard orientation:                         
 ---------------------------------------------------------------------
 Center     Atomic      Atomic             Coordinates (Angstroms)
 Number     Number       Type             X           Y           Z
 ---------------------------------------------------------------------
      1          8           0       -0.423123   -0.169642   -0.528770
      2          6           0       -1.484958   -1.159998   -0.321153
      3          6           0       -2.715942   -0.138996   -0.273873
      4          6           0       -1.897256    1.153310   -0.251803
      5          6           0       -1.815216    1.976042   -1.485827
      6         26           0        1.377657    0.026701    0.024059
      7         17           0        1.875389    1.985655   -0.865099
      8          6           0       -1.565552    1.816150    1.036124
      9         17           0        2.419146   -1.738342   -0.747965
     10         17           0        1.400031    0.147685    2.229689
     11          1           0       -3.239537   -0.191583   -1.233925
     12          1           0       -2.438835    2.424604    1.319410
     13          1           0       -1.369594    1.109053    1.841819
     14          1           0       -0.709428    2.485682    0.925015
     15          1           0       -2.644172    2.701354   -1.453903
     16          1           0       -0.875604    2.534088   -1.520249
     17          1           0       -1.922504    1.370102   -2.386773
     18          6           0       -3.734752   -0.306422    0.850590
     19          1           0       -4.506659    0.469439    0.797742
     20          1           0       -4.235596   -1.274566    0.752895
     21          1           0       -3.277472   -0.265537    1.841907
     22          6           0       -1.247084   -1.939105    0.963243
     23          1           0       -2.065519   -2.643493    1.144328
     24          1           0       -0.320270   -2.514294    0.868243
     25          1           0       -1.141921   -1.285381    1.831153
     26          6           0       -1.524342   -2.076229   -1.533470
     27          1           0       -0.582097   -2.628250   -1.607757
     28          1           0       -2.347214   -2.795526   -1.448851
     29          1           0       -1.654681   -1.496262   -2.452060
 ---------------------------------------------------------------------
 Rotational constants (GHZ):           0.5757282           0.3644083           0.3242510
   427 basis functions,  1056 primitive gaussians,   461 cartesian basis functions
    77 alpha electrons       72 beta electrons
       nuclear repulsion energy      1663.7547467879 Hartrees.
 NAtoms=   29 NActive=   29 NUniq=   29 SFac= 1.00D+00 NAtFMM=   60 NAOKFM=F Big=F
 Nuclear repulsion after empirical dispersion term =     1663.7177131991 Hartrees.
 Initial guess from the checkpoint file:  "checkpoint.chk"
 B after Tr=     0.000000    0.000000    0.000000
         Rot=    1.000000    0.000000    0.000000    0.000000 Ang=   0.00 deg.
 Initial guess <Sx>= 0.0000 <Sy>= 0.0000 <Sz>= 2.5000 <S**2>= 8.7627 S= 2.5021
 SCF Done:  E(UPBE1PBE) =  -3033.16469437     A.U. after    1 cycles
            NFock=  1  Conv=0.33D-08     -V/T= 2.0022
 <Sx>= 0.0000 <Sy>= 0.0000 <Sz>= 2.5000 <S**2>= 8.7627 S= 2.5021
 <L.S>= 0.000000000000E+00
 Annihilation of the first spin contaminant:
 S**2 before annihilation     8.7627,   after     8.7501
 1\1\GINC-HOLY7C18604\SP\UPBE1PBE\Jul-CC-pVDZ\C8H16Cl3Fe1O1(6)\EKWAN\11
 -Feb-2020\0\\#t pop=none jul-cc-pvdz guess=read upbe1pbe empiricaldisp
 ersion=gd3bj\\theory_abbreviation pbe0_d3bj\\0,6\O,0,-0.423123,-0.1696
 42,-0.52877\C,0,-1.484958,-1.159998,-0.321153\C,0,-2.715942,-0.138996,
 -0.273873\C,0,-1.897256,1.15331,-0.251803\C,0,-1.815216,1.976042,-1.48
 5827\Fe,0,1.377657,0.026701,0.024059\Cl,0,1.875389,1.985655,-0.865099\
 C,0,-1.565552,1.81615,1.036124\Cl,0,2.419146,-1.738342,-0.747965\Cl,0,
 1.400031,0.147685,2.229689\H,0,-3.239537,-0.191583,-1.233925\H,0,-2.43
 8835,2.424604,1.31941\H,0,-1.369594,1.109053,1.841819\H,0,-0.709428,2.
 485682,0.925015\H,0,-2.644172,2.701354,-1.453903\H,0,-0.875604,2.53408
 8,-1.520249\H,0,-1.922504,1.370102,-2.386773\C,0,-3.734752,-0.306422,0
 .85059\H,0,-4.506659,0.469439,0.797742\H,0,-4.235596,-1.274566,0.75289
 5\H,0,-3.277472,-0.265537,1.841907\C,0,-1.247084,-1.939105,0.963243\H,
 0,-2.065519,-2.643493,1.144328\H,0,-0.32027,-2.514294,0.868243\H,0,-1.
 141921,-1.285381,1.831153\C,0,-1.524342,-2.076229,-1.53347\H,0,-0.5820
 97,-2.62825,-1.607757\H,0,-2.347214,-2.795526,-1.448851\H,0,-1.654681,
 -1.496262,-2.45206\\Version=ES64L-G16RevA.03\HF=-3033.1646944\S2=8.762
 727\S2-1=0.\S2A=8.75005\RMSD=3.341e-09\PG=C01 [X(C8H16Cl3Fe1O1)]\\@


 THE FIRST MORNING OF CREATION WROTE WHAT THE LAST DAWN OF
 RECKONING SHALL READ. -- OMAR KHAYYAM
 Job cpu time:       0 days  0 hours  4 minutes 24.5 seconds.
 Elapsed time:       0 days  0 hours  1 minutes  6.9 seconds.
 File lengths (MBytes):  RWF=    170 Int=      0 D2E=      0 Chk=     13 Scr=      1
 Normal termination of Gaussian 16 at Tue Feb 11 13:54:15 2020.
 Initial command:
 /n/sw/g16_nehalem/g16/l1.exe "/scratch/Gau-140327.inp" -scrdir="/scratch/"
 Entering Link 1 = /n/sw/g16_nehalem/g16/l1.exe PID=    148181.
  
 Copyright (c) 1988,1990,1992,1993,1995,1998,2003,2009,2016,
            Gaussian, Inc.  All Rights Reserved.
  
 This is part of the Gaussian(R) 16 program.  It is based on
 the Gaussian(R) 09 system (copyright 2009, Gaussian, Inc.),
 the Gaussian(R) 03 system (copyright 2003, Gaussian, Inc.),
 the Gaussian(R) 98 system (copyright 1998, Gaussian, Inc.),
 the Gaussian(R) 94 system (copyright 1995, Gaussian, Inc.),
 the Gaussian 92(TM) system (copyright 1992, Gaussian, Inc.),
 the Gaussian 90(TM) system (copyright 1990, Gaussian, Inc.),
 the Gaussian 88(TM) system (copyright 1988, Gaussian, Inc.),
 the Gaussian 86(TM) system (copyright 1986, Carnegie Mellon
 University), and the Gaussian 82(TM) system (copyright 1983,
 Carnegie Mellon University). Gaussian is a federally registered
 trademark of Gaussian, Inc.
  
 This software contains proprietary and confidential information,
 including trade secrets, belonging to Gaussian, Inc.
  
 This software is provided under written license and may be
 used, copied, transmitted, or stored only in accord with that
 written license.
  
 The following legend is applicable only to US Government
 contracts under FAR:
  
                    RESTRICTED RIGHTS LEGEND
  
 Use, reproduction and disclosure by the US Government is
 subject to restrictions as set forth in subparagraphs (a)
 and (c) of the Commercial Computer Software - Restricted
 Rights clause in FAR 52.227-19.
  
 Gaussian, Inc.
 340 Quinnipiac St., Bldg. 40, Wallingford CT 06492
  
  
 ---------------------------------------------------------------
 Warning -- This program may not be used in any manner that
 competes with the business of Gaussian, Inc. or will provide
 assistance to any competitor of Gaussian, Inc.  The licensee
 of this program is prohibited from giving any competitor of
 Gaussian, Inc. access to this program.  By using this program,
 the user acknowledges that Gaussian, Inc. is engaged in the
 business of creating and licensing software in the field of
 computational chemistry and represents and warrants to the
 licensee that it is not a competitor of Gaussian, Inc. and that
 it will not use this program in any manner prohibited above.
 ---------------------------------------------------------------
  

 Cite this work as:
 Gaussian 16, Revision A.03,
 M. J. Frisch, G. W. Trucks, H. B. Schlegel, G. E. Scuseria, 
 M. A. Robb, J. R. Cheeseman, G. Scalmani, V. Barone, 
 G. A. Petersson, H. Nakatsuji, X. Li, M. Caricato, A. V. Marenich, 
 J. Bloino, B. G. Janesko, R. Gomperts, B. Mennucci, H. P. Hratchian, 
 J. V. Ortiz, A. F. Izmaylov, J. L. Sonnenberg, D. Williams-Young, 
 F. Ding, F. Lipparini, F. Egidi, J. Goings, B. Peng, A. Petrone, 
 T. Henderson, D. Ranasinghe, V. G. Zakrzewski, J. Gao, N. Rega, 
 G. Zheng, W. Liang, M. Hada, M. Ehara, K. Toyota, R. Fukuda, 
 J. Hasegawa, M. Ishida, T. Nakajima, Y. Honda, O. Kitao, H. Nakai, 
 T. Vreven, K. Throssell, J. A. Montgomery, Jr., J. E. Peralta, 
 F. Ogliaro, M. J. Bearpark, J. J. Heyd, E. N. Brothers, K. N. Kudin, 
 V. N. Staroverov, T. A. Keith, R. Kobayashi, J. Normand, 
 K. Raghavachari, A. P. Rendell, J. C. Burant, S. S. Iyengar, 
 J. Tomasi, M. Cossi, J. M. Millam, M. Klene, C. Adamo, R. Cammi, 
 J. W. Ochterski, R. L. Martin, K. Morokuma, O. Farkas, 
 J. B. Foresman, and D. J. Fox, Gaussian, Inc., Wallingford CT, 2016.
 
 ******************************************
 Gaussian 16:  ES64L-G16RevA.03 25-Dec-2016
                11-Feb-2020 
 ******************************************
 %chk=checkpoint.chk
 %mem=3GB
 %nprocshared=4
 Will use up to    4 processors via shared memory.
 -----------------------------------------
 #t pop=none jul-cc-pvdz guess=read ub3lyp
 -----------------------------------------
 -------------------------
 theory_abbreviation b3lyp
 -------------------------
 Symbolic Z-matrix:
 Charge =  0 Multiplicity = 6
 O                    -0.42312  -0.16964  -0.52877 
 C                    -1.48496  -1.16     -0.32115 
 C                    -2.71594  -0.139    -0.27387 
 C                    -1.89726   1.15331  -0.2518 
 C                    -1.81522   1.97604  -1.48583 
 Fe                    1.37766   0.0267    0.02406 
 Cl                    1.87539   1.98566  -0.8651 
 C                    -1.56555   1.81615   1.03612 
 Cl                    2.41915  -1.73834  -0.74797 
 Cl                    1.40003   0.14769   2.22969 
 H                    -3.23954  -0.19158  -1.23393 
 H                    -2.43884   2.4246    1.31941 
 H                    -1.36959   1.10905   1.84182 
 H                    -0.70943   2.48568   0.92502 
 H                    -2.64417   2.70135  -1.4539 
 H                    -0.8756    2.53409  -1.52025 
 H                    -1.9225    1.3701   -2.38677 
 C                    -3.73475  -0.30642   0.85059 
 H                    -4.50666   0.46944   0.79774 
 H                    -4.2356   -1.27457   0.7529 
 H                    -3.27747  -0.26554   1.84191 
 C                    -1.24708  -1.93911   0.96324 
 H                    -2.06552  -2.64349   1.14433 
 H                    -0.32027  -2.51429   0.86824 
 H                    -1.14192  -1.28538   1.83115 
 C                    -1.52434  -2.07623  -1.53347 
 H                    -0.5821   -2.62825  -1.60776 
 H                    -2.34721  -2.79553  -1.44885 
 H                    -1.65468  -1.49626  -2.45206 
 
                    Distance matrix (angstroms):
                    1          2          3          4          5
     1  O    0.000000
     2  C    1.466766   0.000000
     3  C    2.307148   1.600001   0.000000
     4  C    1.999995   2.350786   1.529964   0.000000
     5  C    2.730905   3.361589   2.598755   1.485407   0.000000
     6  Fe   1.893932   3.118011   4.107770   3.474249   4.034120
     7  Cl   3.168845   4.634969   5.093526   3.911749   3.742454
     8  C    2.774420   3.272026   2.619558   1.485981   2.539318
     9  Cl   3.253822   3.969720   5.399241   5.219114   5.680749
    10  Cl   3.321699   4.066939   4.826100   4.247492   5.242686
    11  H    2.903431   2.202164   1.094814   2.138929   2.605905
    12  H    3.769480   4.055946   3.031070   2.092416   2.908516
    13  H    2.854919   3.136933   2.801148   2.159546   3.467489
    14  H    3.040758   3.930059   3.514593   2.138002   2.700863
    15  H    3.745871   4.187713   3.076558   2.097467   1.101937
    16  H    2.915120   3.931338   3.476446   2.135246   1.093376
    17  H    2.840973   3.295397   2.715008   2.146097   1.091044
    18  C    3.590018   2.676406   1.526572   2.592774   3.788549
    19  H    4.340890   3.610771   2.173757   2.894513   3.837760
    20  H    4.171148   2.955117   2.157109   3.517362   4.629964
    21  H    3.711686   2.948219   2.192682   2.881275   4.270443
    22  C    2.456830   1.520942   2.632184   3.385571   4.652859
    23  H    3.408322   2.164588   2.950737   4.048853   5.321698
    24  H    2.731230   2.145991   3.561701   4.146409   5.285795
    25  H    2.707541   2.183075   2.867556   3.294913   4.700273
    26  C    2.420161   1.520113   2.599878   3.494518   4.062976
    27  H    2.689654   2.150877   3.539622   4.227109   4.768119
    28  H    3.382890   2.165673   2.928086   4.150746   4.801276
    29  H    2.641155   2.163942   2.777219   3.452565   3.607807
                    6          7          8          9         10
     6  Fe   0.000000
     7  Cl   2.208130   0.000000
     8  C    3.590109   3.934902   0.000000
     9  Cl   2.189999   3.765308   5.629849   0.000000
    10  Cl   2.209059   3.630676   3.605975   3.669076   0.000000
    11  H    4.790475   5.571254   3.462129   5.886367   5.799769
    12  H    4.689721   4.855645   1.101404   6.723402   4.555201
    13  H    3.467438   4.315756   1.089739   5.400851   2.957278
    14  H    3.348766   3.183679   1.092505   5.516268   3.408551
    15  H    5.051064   4.613605   2.854337   6.771000   6.037024
    16  H    3.707973   2.880618   2.743448   5.450271   4.993543
    17  H    4.302081   4.137437   3.470245   5.585521   5.817668
    18  C    5.189494   6.298483   3.040586   6.517379   5.336115
    19  H    5.951452   6.767162   3.243542   7.431708   6.086295
    20  H    5.808021   7.112741   4.094127   6.837636   5.997000
    21  H    5.006016   6.240811   2.813073   6.428689   4.711705
    22  C    3.411118   5.338203   3.769439   4.050899   3.600805
    23  H    4.498933   6.402934   4.488885   4.950989   4.580253
    24  H    3.170530   5.298578   4.509064   3.273932   3.449508
    25  H    3.366812   5.203231   3.229710   4.420206   2.945170
    26  C    3.907660   5.338894   4.664239   4.035131   5.259194
    27  H    3.681335   5.280047   5.264027   3.246327   5.134261
    28  H    4.899907   6.405532   5.296570   4.932248   6.019634
    29  H    4.200673   5.206110   4.811179   4.422512   5.826886
                   11         12         13         14         15
    11  H    0.000000
    12  H    3.742336   0.000000
    13  H    3.827341   1.773940   0.000000
    14  H    4.269686   1.774860   1.780858   0.000000
    15  H    2.961745   2.794641   3.875791   3.073923   0.000000
    16  H    3.619315   3.243353   3.684868   2.451382   1.777699
    17  H    2.345740   3.887720   4.272569   3.699191   1.778562
    18  C    2.145607   3.059035   2.929177   4.117520   3.942939
    19  H    2.483993   2.893217   3.367548   4.301209   3.676983
    20  H    2.472335   4.151283   3.883473   5.157805   4.817731
    21  H    3.076955   2.865864   2.351488   3.873596   4.479495
    22  C    3.442564   4.537519   3.174614   4.457497   5.415562
    23  H    3.611962   5.084843   3.879743   5.309945   5.971016
    24  H    4.282081   5.393012   3.895841   5.015419   6.164079
    25  H    3.871833   3.963314   2.405257   3.902442   5.379815
    26  C    2.565835   5.406729   4.643549   5.245881   4.907713
    27  H    3.624787   6.127570   5.146568   5.708191   5.716686
    28  H    2.760970   5.909435   5.199037   6.017370   5.504898
    29  H    2.387008   5.496551   5.030540   5.306036   4.426668
                   16         17         18         19         20
    16  H    0.000000
    17  H    1.789337   0.000000
    18  C    4.675907   4.071301   0.000000
    19  H    4.777072   4.198832   1.095716   0.000000
    20  H    5.564402   4.711919   1.094391   1.765514   0.000000
    21  H    4.991088   4.732123   1.092468   1.772391   1.766943
    22  C    5.129833   4.757063   2.977723   4.056267   3.068723
    23  H    5.943334   5.347717   2.886957   3.971100   2.595460
    24  H    5.612437   5.315150   4.066165   5.141351   4.108529
    25  H    5.088336   5.044978   2.939836   3.933039   3.276215
    26  C    4.655755   3.572654   3.701604   4.561709   3.636073
    27  H    5.171415   4.288400   4.623158   5.548359   4.555567
    28  H    5.529513   4.290983   3.661739   4.513356   3.275209
    29  H    4.209389   2.879589   4.080430   4.749629   4.120923
                   21         22         23         24         25
    21  H    0.000000
    22  C    2.774050   0.000000
    23  H    2.758645   1.094893   0.000000
    24  H    3.840569   1.094921   1.771669   0.000000
    25  H    2.366596   1.091642   1.780233   1.764237   0.000000
    26  C    4.212510   2.515800   2.790208   2.722116   3.477409
    27  H    4.974700   2.743569   3.126459   2.492412   3.734006
    28  H    4.253859   2.786026   2.612861   3.091362   3.806796
    29  H    4.752503   3.467930   3.797227   3.720410   4.318947
                   26         27         28         29
    26  C    0.000000
    27  H    1.094564   0.000000
    28  H    1.096206   1.780132   0.000000
    29  H    1.094147   1.773325   1.781605   0.000000
 Framework group  C1[X(C8H16Cl3FeO)]
 Deg. of freedom    81
                         Standard orientation:                         
 ---------------------------------------------------------------------
 Center     Atomic      Atomic             Coordinates (Angstroms)
 Number     Number       Type             X           Y           Z
 ---------------------------------------------------------------------
      1          8           0       -0.423123   -0.169642   -0.528770
      2          6           0       -1.484958   -1.159998   -0.321153
      3          6           0       -2.715942   -0.138996   -0.273873
      4          6           0       -1.897256    1.153310   -0.251803
      5          6           0       -1.815216    1.976042   -1.485827
      6         26           0        1.377657    0.026701    0.024059
      7         17           0        1.875389    1.985655   -0.865099
      8          6           0       -1.565552    1.816150    1.036124
      9         17           0        2.419146   -1.738342   -0.747965
     10         17           0        1.400031    0.147685    2.229689
     11          1           0       -3.239537   -0.191583   -1.233925
     12          1           0       -2.438835    2.424604    1.319410
     13          1           0       -1.369594    1.109053    1.841819
     14          1           0       -0.709428    2.485682    0.925015
     15          1           0       -2.644172    2.701354   -1.453903
     16          1           0       -0.875604    2.534088   -1.520249
     17          1           0       -1.922504    1.370102   -2.386773
     18          6           0       -3.734752   -0.306422    0.850590
     19          1           0       -4.506659    0.469439    0.797742
     20          1           0       -4.235596   -1.274566    0.752895
     21          1           0       -3.277472   -0.265537    1.841907
     22          6           0       -1.247084   -1.939105    0.963243
     23          1           0       -2.065519   -2.643493    1.144328
     24          1           0       -0.320270   -2.514294    0.868243
     25          1           0       -1.141921   -1.285381    1.831153
     26          6           0       -1.524342   -2.076229   -1.533470
     27          1           0       -0.582097   -2.628250   -1.607757
     28          1           0       -2.347214   -2.795526   -1.448851
     29          1           0       -1.654681   -1.496262   -2.452060
 ---------------------------------------------------------------------
 Rotational constants (GHZ):           0.5757282           0.3644083           0.3242510
   427 basis functions,  1056 primitive gaussians,   461 cartesian basis functions
    77 alpha electrons       72 beta electrons
       nuclear repulsion energy      1663.7547467879 Hartrees.
 NAtoms=   29 NActive=   29 NUniq=   29 SFac= 1.00D+00 NAtFMM=   60 NAOKFM=F Big=F
 Initial guess from the checkpoint file:  "checkpoint.chk"
 B after Tr=     0.000000    0.000000    0.000000
         Rot=    1.000000    0.000000    0.000000    0.000000 Ang=   0.00 deg.
 Initial guess <Sx>= 0.0000 <Sy>= 0.0000 <Sz>= 2.5000 <S**2>= 8.7627 S= 2.5021
 SCF Done:  E(UB3LYP) =  -3034.33952169     A.U. after   13 cycles
            NFock= 13  Conv=0.78D-08     -V/T= 2.0025
 <Sx>= 0.0000 <Sy>= 0.0000 <Sz>= 2.5000 <S**2>= 8.7620 S= 2.5020
 <L.S>= 0.000000000000E+00
 Annihilation of the first spin contaminant:
 S**2 before annihilation     8.7620,   after     8.7500
 1\1\GINC-HOLY7C18604\SP\UB3LYP\Jul-CC-pVDZ\C8H16Cl3Fe1O1(6)\EKWAN\11-F
 eb-2020\0\\#t pop=none jul-cc-pvdz guess=read ub3lyp\\theory_abbreviat
 ion b3lyp\\0,6\O,0,-0.423123,-0.169642,-0.52877\C,0,-1.484958,-1.15999
 8,-0.321153\C,0,-2.715942,-0.138996,-0.273873\C,0,-1.897256,1.15331,-0
 .251803\C,0,-1.815216,1.976042,-1.485827\Fe,0,1.377657,0.026701,0.0240
 59\Cl,0,1.875389,1.985655,-0.865099\C,0,-1.565552,1.81615,1.036124\Cl,
 0,2.419146,-1.738342,-0.747965\Cl,0,1.400031,0.147685,2.229689\H,0,-3.
 239537,-0.191583,-1.233925\H,0,-2.438835,2.424604,1.31941\H,0,-1.36959
 4,1.109053,1.841819\H,0,-0.709428,2.485682,0.925015\H,0,-2.644172,2.70
 1354,-1.453903\H,0,-0.875604,2.534088,-1.520249\H,0,-1.922504,1.370102
 ,-2.386773\C,0,-3.734752,-0.306422,0.85059\H,0,-4.506659,0.469439,0.79
 7742\H,0,-4.235596,-1.274566,0.752895\H,0,-3.277472,-0.265537,1.841907
 \C,0,-1.247084,-1.939105,0.963243\H,0,-2.065519,-2.643493,1.144328\H,0
 ,-0.32027,-2.514294,0.868243\H,0,-1.141921,-1.285381,1.831153\C,0,-1.5
 24342,-2.076229,-1.53347\H,0,-0.582097,-2.62825,-1.607757\H,0,-2.34721
 4,-2.795526,-1.448851\H,0,-1.654681,-1.496262,-2.45206\\Version=ES64L-
 G16RevA.03\HF=-3034.3395217\S2=8.762038\S2-1=0.\S2A=8.750045\RMSD=7.80
 6e-09\PG=C01 [X(C8H16Cl3Fe1O1)]\\@


 IT WAS AN ACT OF DESPARATION. FOR SIX YEARS I HAD STRUGGLED WITH THE
 BLACKBODY THEORY. I KNEW THE PROBLEM WAS FUNDAMENTAL, AND I KNEW
 THE ANSWER. I HAD TO FIND A THEORETICAL EXPLANATION AT ANY COST,
 EXCEPT FOR THE INVIOLABLITY OF THE TWO LAWS OF THERMODYNAMICS.
   -- MAX PLANCK, 1931
 Job cpu time:       0 days  0 hours 51 minutes 32.7 seconds.
 Elapsed time:       0 days  0 hours 12 minutes 55.6 seconds.
 File lengths (MBytes):  RWF=    174 Int=      0 D2E=      0 Chk=     13 Scr=      1
 Normal termination of Gaussian 16 at Tue Feb 11 14:07:11 2020.
 Initial command:
 /n/sw/g16_nehalem/g16/l1.exe "/scratch/Gau-140327.inp" -scrdir="/scratch/"
 Entering Link 1 = /n/sw/g16_nehalem/g16/l1.exe PID=    152028.
  
 Copyright (c) 1988,1990,1992,1993,1995,1998,2003,2009,2016,
            Gaussian, Inc.  All Rights Reserved.
  
 This is part of the Gaussian(R) 16 program.  It is based on
 the Gaussian(R) 09 system (copyright 2009, Gaussian, Inc.),
 the Gaussian(R) 03 system (copyright 2003, Gaussian, Inc.),
 the Gaussian(R) 98 system (copyright 1998, Gaussian, Inc.),
 the Gaussian(R) 94 system (copyright 1995, Gaussian, Inc.),
 the Gaussian 92(TM) system (copyright 1992, Gaussian, Inc.),
 the Gaussian 90(TM) system (copyright 1990, Gaussian, Inc.),
 the Gaussian 88(TM) system (copyright 1988, Gaussian, Inc.),
 the Gaussian 86(TM) system (copyright 1986, Carnegie Mellon
 University), and the Gaussian 82(TM) system (copyright 1983,
 Carnegie Mellon University). Gaussian is a federally registered
 trademark of Gaussian, Inc.
  
 This software contains proprietary and confidential information,
 including trade secrets, belonging to Gaussian, Inc.
  
 This software is provided under written license and may be
 used, copied, transmitted, or stored only in accord with that
 written license.
  
 The following legend is applicable only to US Government
 contracts under FAR:
  
                    RESTRICTED RIGHTS LEGEND
  
 Use, reproduction and disclosure by the US Government is
 subject to restrictions as set forth in subparagraphs (a)
 and (c) of the Commercial Computer Software - Restricted
 Rights clause in FAR 52.227-19.
  
 Gaussian, Inc.
 340 Quinnipiac St., Bldg. 40, Wallingford CT 06492
  
  
 ---------------------------------------------------------------
 Warning -- This program may not be used in any manner that
 competes with the business of Gaussian, Inc. or will provide
 assistance to any competitor of Gaussian, Inc.  The licensee
 of this program is prohibited from giving any competitor of
 Gaussian, Inc. access to this program.  By using this program,
 the user acknowledges that Gaussian, Inc. is engaged in the
 business of creating and licensing software in the field of
 computational chemistry and represents and warrants to the
 licensee that it is not a competitor of Gaussian, Inc. and that
 it will not use this program in any manner prohibited above.
 ---------------------------------------------------------------
  

 Cite this work as:
 Gaussian 16, Revision A.03,
 M. J. Frisch, G. W. Trucks, H. B. Schlegel, G. E. Scuseria, 
 M. A. Robb, J. R. Cheeseman, G. Scalmani, V. Barone, 
 G. A. Petersson, H. Nakatsuji, X. Li, M. Caricato, A. V. Marenich, 
 J. Bloino, B. G. Janesko, R. Gomperts, B. Mennucci, H. P. Hratchian, 
 J. V. Ortiz, A. F. Izmaylov, J. L. Sonnenberg, D. Williams-Young, 
 F. Ding, F. Lipparini, F. Egidi, J. Goings, B. Peng, A. Petrone, 
 T. Henderson, D. Ranasinghe, V. G. Zakrzewski, J. Gao, N. Rega, 
 G. Zheng, W. Liang, M. Hada, M. Ehara, K. Toyota, R. Fukuda, 
 J. Hasegawa, M. Ishida, T. Nakajima, Y. Honda, O. Kitao, H. Nakai, 
 T. Vreven, K. Throssell, J. A. Montgomery, Jr., J. E. Peralta, 
 F. Ogliaro, M. J. Bearpark, J. J. Heyd, E. N. Brothers, K. N. Kudin, 
 V. N. Staroverov, T. A. Keith, R. Kobayashi, J. Normand, 
 K. Raghavachari, A. P. Rendell, J. C. Burant, S. S. Iyengar, 
 J. Tomasi, M. Cossi, J. M. Millam, M. Klene, C. Adamo, R. Cammi, 
 J. W. Ochterski, R. L. Martin, K. Morokuma, O. Farkas, 
 J. B. Foresman, and D. J. Fox, Gaussian, Inc., Wallingford CT, 2016.
 
 ******************************************
 Gaussian 16:  ES64L-G16RevA.03 25-Dec-2016
                11-Feb-2020 
 ******************************************
 %chk=checkpoint.chk
 %mem=3GB
 %nprocshared=4
 Will use up to    4 processors via shared memory.
 -------------------------------------------------------------------
 #t pop=none jul-cc-pvdz guess=read ub3lyp empiricaldispersion=gd3bj
 -------------------------------------------------------------------
 ------------------------------
 theory_abbreviation b3lyp_d3bj
 ------------------------------
 Symbolic Z-matrix:
 Charge =  0 Multiplicity = 6
 O                    -0.42312  -0.16964  -0.52877 
 C                    -1.48496  -1.16     -0.32115 
 C                    -2.71594  -0.139    -0.27387 
 C                    -1.89726   1.15331  -0.2518 
 C                    -1.81522   1.97604  -1.48583 
 Fe                    1.37766   0.0267    0.02406 
 Cl                    1.87539   1.98566  -0.8651 
 C                    -1.56555   1.81615   1.03612 
 Cl                    2.41915  -1.73834  -0.74797 
 Cl                    1.40003   0.14769   2.22969 
 H                    -3.23954  -0.19158  -1.23393 
 H                    -2.43884   2.4246    1.31941 
 H                    -1.36959   1.10905   1.84182 
 H                    -0.70943   2.48568   0.92502 
 H                    -2.64417   2.70135  -1.4539 
 H                    -0.8756    2.53409  -1.52025 
 H                    -1.9225    1.3701   -2.38677 
 C                    -3.73475  -0.30642   0.85059 
 H                    -4.50666   0.46944   0.79774 
 H                    -4.2356   -1.27457   0.7529 
 H                    -3.27747  -0.26554   1.84191 
 C                    -1.24708  -1.93911   0.96324 
 H                    -2.06552  -2.64349   1.14433 
 H                    -0.32027  -2.51429   0.86824 
 H                    -1.14192  -1.28538   1.83115 
 C                    -1.52434  -2.07623  -1.53347 
 H                    -0.5821   -2.62825  -1.60776 
 H                    -2.34721  -2.79553  -1.44885 
 H                    -1.65468  -1.49626  -2.45206 
 
                    Distance matrix (angstroms):
                    1          2          3          4          5
     1  O    0.000000
     2  C    1.466766   0.000000
     3  C    2.307148   1.600001   0.000000
     4  C    1.999995   2.350786   1.529964   0.000000
     5  C    2.730905   3.361589   2.598755   1.485407   0.000000
     6  Fe   1.893932   3.118011   4.107770   3.474249   4.034120
     7  Cl   3.168845   4.634969   5.093526   3.911749   3.742454
     8  C    2.774420   3.272026   2.619558   1.485981   2.539318
     9  Cl   3.253822   3.969720   5.399241   5.219114   5.680749
    10  Cl   3.321699   4.066939   4.826100   4.247492   5.242686
    11  H    2.903431   2.202164   1.094814   2.138929   2.605905
    12  H    3.769480   4.055946   3.031070   2.092416   2.908516
    13  H    2.854919   3.136933   2.801148   2.159546   3.467489
    14  H    3.040758   3.930059   3.514593   2.138002   2.700863
    15  H    3.745871   4.187713   3.076558   2.097467   1.101937
    16  H    2.915120   3.931338   3.476446   2.135246   1.093376
    17  H    2.840973   3.295397   2.715008   2.146097   1.091044
    18  C    3.590018   2.676406   1.526572   2.592774   3.788549
    19  H    4.340890   3.610771   2.173757   2.894513   3.837760
    20  H    4.171148   2.955117   2.157109   3.517362   4.629964
    21  H    3.711686   2.948219   2.192682   2.881275   4.270443
    22  C    2.456830   1.520942   2.632184   3.385571   4.652859
    23  H    3.408322   2.164588   2.950737   4.048853   5.321698
    24  H    2.731230   2.145991   3.561701   4.146409   5.285795
    25  H    2.707541   2.183075   2.867556   3.294913   4.700273
    26  C    2.420161   1.520113   2.599878   3.494518   4.062976
    27  H    2.689654   2.150877   3.539622   4.227109   4.768119
    28  H    3.382890   2.165673   2.928086   4.150746   4.801276
    29  H    2.641155   2.163942   2.777219   3.452565   3.607807
                    6          7          8          9         10
     6  Fe   0.000000
     7  Cl   2.208130   0.000000
     8  C    3.590109   3.934902   0.000000
     9  Cl   2.189999   3.765308   5.629849   0.000000
    10  Cl   2.209059   3.630676   3.605975   3.669076   0.000000
    11  H    4.790475   5.571254   3.462129   5.886367   5.799769
    12  H    4.689721   4.855645   1.101404   6.723402   4.555201
    13  H    3.467438   4.315756   1.089739   5.400851   2.957278
    14  H    3.348766   3.183679   1.092505   5.516268   3.408551
    15  H    5.051064   4.613605   2.854337   6.771000   6.037024
    16  H    3.707973   2.880618   2.743448   5.450271   4.993543
    17  H    4.302081   4.137437   3.470245   5.585521   5.817668
    18  C    5.189494   6.298483   3.040586   6.517379   5.336115
    19  H    5.951452   6.767162   3.243542   7.431708   6.086295
    20  H    5.808021   7.112741   4.094127   6.837636   5.997000
    21  H    5.006016   6.240811   2.813073   6.428689   4.711705
    22  C    3.411118   5.338203   3.769439   4.050899   3.600805
    23  H    4.498933   6.402934   4.488885   4.950989   4.580253
    24  H    3.170530   5.298578   4.509064   3.273932   3.449508
    25  H    3.366812   5.203231   3.229710   4.420206   2.945170
    26  C    3.907660   5.338894   4.664239   4.035131   5.259194
    27  H    3.681335   5.280047   5.264027   3.246327   5.134261
    28  H    4.899907   6.405532   5.296570   4.932248   6.019634
    29  H    4.200673   5.206110   4.811179   4.422512   5.826886
                   11         12         13         14         15
    11  H    0.000000
    12  H    3.742336   0.000000
    13  H    3.827341   1.773940   0.000000
    14  H    4.269686   1.774860   1.780858   0.000000
    15  H    2.961745   2.794641   3.875791   3.073923   0.000000
    16  H    3.619315   3.243353   3.684868   2.451382   1.777699
    17  H    2.345740   3.887720   4.272569   3.699191   1.778562
    18  C    2.145607   3.059035   2.929177   4.117520   3.942939
    19  H    2.483993   2.893217   3.367548   4.301209   3.676983
    20  H    2.472335   4.151283   3.883473   5.157805   4.817731
    21  H    3.076955   2.865864   2.351488   3.873596   4.479495
    22  C    3.442564   4.537519   3.174614   4.457497   5.415562
    23  H    3.611962   5.084843   3.879743   5.309945   5.971016
    24  H    4.282081   5.393012   3.895841   5.015419   6.164079
    25  H    3.871833   3.963314   2.405257   3.902442   5.379815
    26  C    2.565835   5.406729   4.643549   5.245881   4.907713
    27  H    3.624787   6.127570   5.146568   5.708191   5.716686
    28  H    2.760970   5.909435   5.199037   6.017370   5.504898
    29  H    2.387008   5.496551   5.030540   5.306036   4.426668
                   16         17         18         19         20
    16  H    0.000000
    17  H    1.789337   0.000000
    18  C    4.675907   4.071301   0.000000
    19  H    4.777072   4.198832   1.095716   0.000000
    20  H    5.564402   4.711919   1.094391   1.765514   0.000000
    21  H    4.991088   4.732123   1.092468   1.772391   1.766943
    22  C    5.129833   4.757063   2.977723   4.056267   3.068723
    23  H    5.943334   5.347717   2.886957   3.971100   2.595460
    24  H    5.612437   5.315150   4.066165   5.141351   4.108529
    25  H    5.088336   5.044978   2.939836   3.933039   3.276215
    26  C    4.655755   3.572654   3.701604   4.561709   3.636073
    27  H    5.171415   4.288400   4.623158   5.548359   4.555567
    28  H    5.529513   4.290983   3.661739   4.513356   3.275209
    29  H    4.209389   2.879589   4.080430   4.749629   4.120923
                   21         22         23         24         25
    21  H    0.000000
    22  C    2.774050   0.000000
    23  H    2.758645   1.094893   0.000000
    24  H    3.840569   1.094921   1.771669   0.000000
    25  H    2.366596   1.091642   1.780233   1.764237   0.000000
    26  C    4.212510   2.515800   2.790208   2.722116   3.477409
    27  H    4.974700   2.743569   3.126459   2.492412   3.734006
    28  H    4.253859   2.786026   2.612861   3.091362   3.806796
    29  H    4.752503   3.467930   3.797227   3.720410   4.318947
                   26         27         28         29
    26  C    0.000000
    27  H    1.094564   0.000000
    28  H    1.096206   1.780132   0.000000
    29  H    1.094147   1.773325   1.781605   0.000000
 Framework group  C1[X(C8H16Cl3FeO)]
 Deg. of freedom    81
                         Standard orientation:                         
 ---------------------------------------------------------------------
 Center     Atomic      Atomic             Coordinates (Angstroms)
 Number     Number       Type             X           Y           Z
 ---------------------------------------------------------------------
      1          8           0       -0.423123   -0.169642   -0.528770
      2          6           0       -1.484958   -1.159998   -0.321153
      3          6           0       -2.715942   -0.138996   -0.273873
      4          6           0       -1.897256    1.153310   -0.251803
      5          6           0       -1.815216    1.976042   -1.485827
      6         26           0        1.377657    0.026701    0.024059
      7         17           0        1.875389    1.985655   -0.865099
      8          6           0       -1.565552    1.816150    1.036124
      9         17           0        2.419146   -1.738342   -0.747965
     10         17           0        1.400031    0.147685    2.229689
     11          1           0       -3.239537   -0.191583   -1.233925
     12          1           0       -2.438835    2.424604    1.319410
     13          1           0       -1.369594    1.109053    1.841819
     14          1           0       -0.709428    2.485682    0.925015
     15          1           0       -2.644172    2.701354   -1.453903
     16          1           0       -0.875604    2.534088   -1.520249
     17          1           0       -1.922504    1.370102   -2.386773
     18          6           0       -3.734752   -0.306422    0.850590
     19          1           0       -4.506659    0.469439    0.797742
     20          1           0       -4.235596   -1.274566    0.752895
     21          1           0       -3.277472   -0.265537    1.841907
     22          6           0       -1.247084   -1.939105    0.963243
     23          1           0       -2.065519   -2.643493    1.144328
     24          1           0       -0.320270   -2.514294    0.868243
     25          1           0       -1.141921   -1.285381    1.831153
     26          6           0       -1.524342   -2.076229   -1.533470
     27          1           0       -0.582097   -2.628250   -1.607757
     28          1           0       -2.347214   -2.795526   -1.448851
     29          1           0       -1.654681   -1.496262   -2.452060
 ---------------------------------------------------------------------
 Rotational constants (GHZ):           0.5757282           0.3644083           0.3242510
   427 basis functions,  1056 primitive gaussians,   461 cartesian basis functions
    77 alpha electrons       72 beta electrons
       nuclear repulsion energy      1663.7547467879 Hartrees.
 NAtoms=   29 NActive=   29 NUniq=   29 SFac= 1.00D+00 NAtFMM=   60 NAOKFM=F Big=F
 Nuclear repulsion after empirical dispersion term =     1663.6857890102 Hartrees.
 Initial guess from the checkpoint file:  "checkpoint.chk"
 B after Tr=     0.000000    0.000000    0.000000
         Rot=    1.000000    0.000000    0.000000    0.000000 Ang=   0.00 deg.
 Initial guess <Sx>= 0.0000 <Sy>= 0.0000 <Sz>= 2.5000 <S**2>= 8.7620 S= 2.5020
 SCF Done:  E(UB3LYP) =  -3034.40847946     A.U. after    1 cycles
            NFock=  1  Conv=0.63D-08     -V/T= 2.0025
 <Sx>= 0.0000 <Sy>= 0.0000 <Sz>= 2.5000 <S**2>= 8.7620 S= 2.5020
 <L.S>= 0.000000000000E+00
 Annihilation of the first spin contaminant:
 S**2 before annihilation     8.7620,   after     8.7500
 1\1\GINC-HOLY7C18604\SP\UB3LYP\Jul-CC-pVDZ\C8H16Cl3Fe1O1(6)\EKWAN\11-F
 eb-2020\0\\#t pop=none jul-cc-pvdz guess=read ub3lyp empiricaldispersi
 on=gd3bj\\theory_abbreviation b3lyp_d3bj\\0,6\O,0,-0.423123,-0.169642,
 -0.52877\C,0,-1.484958,-1.159998,-0.321153\C,0,-2.715942,-0.138996,-0.
 273873\C,0,-1.897256,1.15331,-0.251803\C,0,-1.815216,1.976042,-1.48582
 7\Fe,0,1.377657,0.026701,0.024059\Cl,0,1.875389,1.985655,-0.865099\C,0
 ,-1.565552,1.81615,1.036124\Cl,0,2.419146,-1.738342,-0.747965\Cl,0,1.4
 00031,0.147685,2.229689\H,0,-3.239537,-0.191583,-1.233925\H,0,-2.43883
 5,2.424604,1.31941\H,0,-1.369594,1.109053,1.841819\H,0,-0.709428,2.485
 682,0.925015\H,0,-2.644172,2.701354,-1.453903\H,0,-0.875604,2.534088,-
 1.520249\H,0,-1.922504,1.370102,-2.386773\C,0,-3.734752,-0.306422,0.85
 059\H,0,-4.506659,0.469439,0.797742\H,0,-4.235596,-1.274566,0.752895\H
 ,0,-3.277472,-0.265537,1.841907\C,0,-1.247084,-1.939105,0.963243\H,0,-
 2.065519,-2.643493,1.144328\H,0,-0.32027,-2.514294,0.868243\H,0,-1.141
 921,-1.285381,1.831153\C,0,-1.524342,-2.076229,-1.53347\H,0,-0.582097,
 -2.62825,-1.607757\H,0,-2.347214,-2.795526,-1.448851\H,0,-1.654681,-1.
 496262,-2.45206\\Version=ES64L-G16RevA.03\HF=-3034.4084795\S2=8.762038
 \S2-1=0.\S2A=8.750045\RMSD=6.336e-09\PG=C01 [X(C8H16Cl3Fe1O1)]\\@


 Standing in the middle of the road is very dangerous;
 you get knocked down by the traffic from both sides.
                                -- Margaret Thatcher
 Job cpu time:       0 days  0 hours  4 minutes 22.2 seconds.
 Elapsed time:       0 days  0 hours  1 minutes  6.2 seconds.
 File lengths (MBytes):  RWF=    170 Int=      0 D2E=      0 Chk=     13 Scr=      1
 Normal termination of Gaussian 16 at Tue Feb 11 14:08:18 2020.
 Initial command:
 /n/sw/g16_nehalem/g16/l1.exe "/scratch/Gau-140327.inp" -scrdir="/scratch/"
 Entering Link 1 = /n/sw/g16_nehalem/g16/l1.exe PID=    152292.
  
 Copyright (c) 1988,1990,1992,1993,1995,1998,2003,2009,2016,
            Gaussian, Inc.  All Rights Reserved.
  
 This is part of the Gaussian(R) 16 program.  It is based on
 the Gaussian(R) 09 system (copyright 2009, Gaussian, Inc.),
 the Gaussian(R) 03 system (copyright 2003, Gaussian, Inc.),
 the Gaussian(R) 98 system (copyright 1998, Gaussian, Inc.),
 the Gaussian(R) 94 system (copyright 1995, Gaussian, Inc.),
 the Gaussian 92(TM) system (copyright 1992, Gaussian, Inc.),
 the Gaussian 90(TM) system (copyright 1990, Gaussian, Inc.),
 the Gaussian 88(TM) system (copyright 1988, Gaussian, Inc.),
 the Gaussian 86(TM) system (copyright 1986, Carnegie Mellon
 University), and the Gaussian 82(TM) system (copyright 1983,
 Carnegie Mellon University). Gaussian is a federally registered
 trademark of Gaussian, Inc.
  
 This software contains proprietary and confidential information,
 including trade secrets, belonging to Gaussian, Inc.
  
 This software is provided under written license and may be
 used, copied, transmitted, or stored only in accord with that
 written license.
  
 The following legend is applicable only to US Government
 contracts under FAR:
  
                    RESTRICTED RIGHTS LEGEND
  
 Use, reproduction and disclosure by the US Government is
 subject to restrictions as set forth in subparagraphs (a)
 and (c) of the Commercial Computer Software - Restricted
 Rights clause in FAR 52.227-19.
  
 Gaussian, Inc.
 340 Quinnipiac St., Bldg. 40, Wallingford CT 06492
  
  
 ---------------------------------------------------------------
 Warning -- This program may not be used in any manner that
 competes with the business of Gaussian, Inc. or will provide
 assistance to any competitor of Gaussian, Inc.  The licensee
 of this program is prohibited from giving any competitor of
 Gaussian, Inc. access to this program.  By using this program,
 the user acknowledges that Gaussian, Inc. is engaged in the
 business of creating and licensing software in the field of
 computational chemistry and represents and warrants to the
 licensee that it is not a competitor of Gaussian, Inc. and that
 it will not use this program in any manner prohibited above.
 ---------------------------------------------------------------
  

 Cite this work as:
 Gaussian 16, Revision A.03,
 M. J. Frisch, G. W. Trucks, H. B. Schlegel, G. E. Scuseria, 
 M. A. Robb, J. R. Cheeseman, G. Scalmani, V. Barone, 
 G. A. Petersson, H. Nakatsuji, X. Li, M. Caricato, A. V. Marenich, 
 J. Bloino, B. G. Janesko, R. Gomperts, B. Mennucci, H. P. Hratchian, 
 J. V. Ortiz, A. F. Izmaylov, J. L. Sonnenberg, D. Williams-Young, 
 F. Ding, F. Lipparini, F. Egidi, J. Goings, B. Peng, A. Petrone, 
 T. Henderson, D. Ranasinghe, V. G. Zakrzewski, J. Gao, N. Rega, 
 G. Zheng, W. Liang, M. Hada, M. Ehara, K. Toyota, R. Fukuda, 
 J. Hasegawa, M. Ishida, T. Nakajima, Y. Honda, O. Kitao, H. Nakai, 
 T. Vreven, K. Throssell, J. A. Montgomery, Jr., J. E. Peralta, 
 F. Ogliaro, M. J. Bearpark, J. J. Heyd, E. N. Brothers, K. N. Kudin, 
 V. N. Staroverov, T. A. Keith, R. Kobayashi, J. Normand, 
 K. Raghavachari, A. P. Rendell, J. C. Burant, S. S. Iyengar, 
 J. Tomasi, M. Cossi, J. M. Millam, M. Klene, C. Adamo, R. Cammi, 
 J. W. Ochterski, R. L. Martin, K. Morokuma, O. Farkas, 
 J. B. Foresman, and D. J. Fox, Gaussian, Inc., Wallingford CT, 2016.
 
 ******************************************
 Gaussian 16:  ES64L-G16RevA.03 25-Dec-2016
                11-Feb-2020 
 ******************************************
 %chk=checkpoint.chk
 %mem=3GB
 %nprocshared=4
 Will use up to    4 processors via shared memory.
 ----------------------------------------
 #t pop=none jul-cc-pvdz guess=read ub97d
 ----------------------------------------
 ------------------------
 theory_abbreviation b97d
 ------------------------
 Symbolic Z-matrix:
 Charge =  0 Multiplicity = 6
 O                    -0.42312  -0.16964  -0.52877 
 C                    -1.48496  -1.16     -0.32115 
 C                    -2.71594  -0.139    -0.27387 
 C                    -1.89726   1.15331  -0.2518 
 C                    -1.81522   1.97604  -1.48583 
 Fe                    1.37766   0.0267    0.02406 
 Cl                    1.87539   1.98566  -0.8651 
 C                    -1.56555   1.81615   1.03612 
 Cl                    2.41915  -1.73834  -0.74797 
 Cl                    1.40003   0.14769   2.22969 
 H                    -3.23954  -0.19158  -1.23393 
 H                    -2.43884   2.4246    1.31941 
 H                    -1.36959   1.10905   1.84182 
 H                    -0.70943   2.48568   0.92502 
 H                    -2.64417   2.70135  -1.4539 
 H                    -0.8756    2.53409  -1.52025 
 H                    -1.9225    1.3701   -2.38677 
 C                    -3.73475  -0.30642   0.85059 
 H                    -4.50666   0.46944   0.79774 
 H                    -4.2356   -1.27457   0.7529 
 H                    -3.27747  -0.26554   1.84191 
 C                    -1.24708  -1.93911   0.96324 
 H                    -2.06552  -2.64349   1.14433 
 H                    -0.32027  -2.51429   0.86824 
 H                    -1.14192  -1.28538   1.83115 
 C                    -1.52434  -2.07623  -1.53347 
 H                    -0.5821   -2.62825  -1.60776 
 H                    -2.34721  -2.79553  -1.44885 
 H                    -1.65468  -1.49626  -2.45206 
 
                    Distance matrix (angstroms):
                    1          2          3          4          5
     1  O    0.000000
     2  C    1.466766   0.000000
     3  C    2.307148   1.600001   0.000000
     4  C    1.999995   2.350786   1.529964   0.000000
     5  C    2.730905   3.361589   2.598755   1.485407   0.000000
     6  Fe   1.893932   3.118011   4.107770   3.474249   4.034120
     7  Cl   3.168845   4.634969   5.093526   3.911749   3.742454
     8  C    2.774420   3.272026   2.619558   1.485981   2.539318
     9  Cl   3.253822   3.969720   5.399241   5.219114   5.680749
    10  Cl   3.321699   4.066939   4.826100   4.247492   5.242686
    11  H    2.903431   2.202164   1.094814   2.138929   2.605905
    12  H    3.769480   4.055946   3.031070   2.092416   2.908516
    13  H    2.854919   3.136933   2.801148   2.159546   3.467489
    14  H    3.040758   3.930059   3.514593   2.138002   2.700863
    15  H    3.745871   4.187713   3.076558   2.097467   1.101937
    16  H    2.915120   3.931338   3.476446   2.135246   1.093376
    17  H    2.840973   3.295397   2.715008   2.146097   1.091044
    18  C    3.590018   2.676406   1.526572   2.592774   3.788549
    19  H    4.340890   3.610771   2.173757   2.894513   3.837760
    20  H    4.171148   2.955117   2.157109   3.517362   4.629964
    21  H    3.711686   2.948219   2.192682   2.881275   4.270443
    22  C    2.456830   1.520942   2.632184   3.385571   4.652859
    23  H    3.408322   2.164588   2.950737   4.048853   5.321698
    24  H    2.731230   2.145991   3.561701   4.146409   5.285795
    25  H    2.707541   2.183075   2.867556   3.294913   4.700273
    26  C    2.420161   1.520113   2.599878   3.494518   4.062976
    27  H    2.689654   2.150877   3.539622   4.227109   4.768119
    28  H    3.382890   2.165673   2.928086   4.150746   4.801276
    29  H    2.641155   2.163942   2.777219   3.452565   3.607807
                    6          7          8          9         10
     6  Fe   0.000000
     7  Cl   2.208130   0.000000
     8  C    3.590109   3.934902   0.000000
     9  Cl   2.189999   3.765308   5.629849   0.000000
    10  Cl   2.209059   3.630676   3.605975   3.669076   0.000000
    11  H    4.790475   5.571254   3.462129   5.886367   5.799769
    12  H    4.689721   4.855645   1.101404   6.723402   4.555201
    13  H    3.467438   4.315756   1.089739   5.400851   2.957278
    14  H    3.348766   3.183679   1.092505   5.516268   3.408551
    15  H    5.051064   4.613605   2.854337   6.771000   6.037024
    16  H    3.707973   2.880618   2.743448   5.450271   4.993543
    17  H    4.302081   4.137437   3.470245   5.585521   5.817668
    18  C    5.189494   6.298483   3.040586   6.517379   5.336115
    19  H    5.951452   6.767162   3.243542   7.431708   6.086295
    20  H    5.808021   7.112741   4.094127   6.837636   5.997000
    21  H    5.006016   6.240811   2.813073   6.428689   4.711705
    22  C    3.411118   5.338203   3.769439   4.050899   3.600805
    23  H    4.498933   6.402934   4.488885   4.950989   4.580253
    24  H    3.170530   5.298578   4.509064   3.273932   3.449508
    25  H    3.366812   5.203231   3.229710   4.420206   2.945170
    26  C    3.907660   5.338894   4.664239   4.035131   5.259194
    27  H    3.681335   5.280047   5.264027   3.246327   5.134261
    28  H    4.899907   6.405532   5.296570   4.932248   6.019634
    29  H    4.200673   5.206110   4.811179   4.422512   5.826886
                   11         12         13         14         15
    11  H    0.000000
    12  H    3.742336   0.000000
    13  H    3.827341   1.773940   0.000000
    14  H    4.269686   1.774860   1.780858   0.000000
    15  H    2.961745   2.794641   3.875791   3.073923   0.000000
    16  H    3.619315   3.243353   3.684868   2.451382   1.777699
    17  H    2.345740   3.887720   4.272569   3.699191   1.778562
    18  C    2.145607   3.059035   2.929177   4.117520   3.942939
    19  H    2.483993   2.893217   3.367548   4.301209   3.676983
    20  H    2.472335   4.151283   3.883473   5.157805   4.817731
    21  H    3.076955   2.865864   2.351488   3.873596   4.479495
    22  C    3.442564   4.537519   3.174614   4.457497   5.415562
    23  H    3.611962   5.084843   3.879743   5.309945   5.971016
    24  H    4.282081   5.393012   3.895841   5.015419   6.164079
    25  H    3.871833   3.963314   2.405257   3.902442   5.379815
    26  C    2.565835   5.406729   4.643549   5.245881   4.907713
    27  H    3.624787   6.127570   5.146568   5.708191   5.716686
    28  H    2.760970   5.909435   5.199037   6.017370   5.504898
    29  H    2.387008   5.496551   5.030540   5.306036   4.426668
                   16         17         18         19         20
    16  H    0.000000
    17  H    1.789337   0.000000
    18  C    4.675907   4.071301   0.000000
    19  H    4.777072   4.198832   1.095716   0.000000
    20  H    5.564402   4.711919   1.094391   1.765514   0.000000
    21  H    4.991088   4.732123   1.092468   1.772391   1.766943
    22  C    5.129833   4.757063   2.977723   4.056267   3.068723
    23  H    5.943334   5.347717   2.886957   3.971100   2.595460
    24  H    5.612437   5.315150   4.066165   5.141351   4.108529
[...]
 ---------------------------------------------------------------------
 Rotational constants (GHZ):           0.5757282           0.3644083           0.3242510
   427 basis functions,  1056 primitive gaussians,   461 cartesian basis functions
    77 alpha electrons       72 beta electrons
       nuclear repulsion energy      1663.7547467879 Hartrees.
 NAtoms=   29 NActive=   29 NUniq=   29 SFac= 1.00D+00 NAtFMM=   60 NAOKFM=F Big=F
 Nuclear repulsion after empirical dispersion term =     1663.7523424318 Hartrees.
 Initial guess from the checkpoint file:  "checkpoint.chk"
 B after Tr=     0.000000    0.000000    0.000000
         Rot=    1.000000    0.000000    0.000000    0.000000 Ang=   0.00 deg.
 Initial guess <Sx>= 0.0000 <Sy>= 0.0000 <Sz>= 2.5000 <S**2>= 8.7618 S= 2.5020
 SCF Done:  E(UM06L) =  -3034.20386620     A.U. after   17 cycles
            NFock= 17  Conv=0.67D-08     -V/T= 2.0021
 <Sx>= 0.0000 <Sy>= 0.0000 <Sz>= 2.5000 <S**2>= 8.7620 S= 2.5020
 <L.S>= 0.000000000000E+00
 Annihilation of the first spin contaminant:
 S**2 before annihilation     8.7620,   after     8.7500
 1\1\GINC-HOLY7C18604\SP\UM06L\Jul-CC-pVDZ\C8H16Cl3Fe1O1(6)\EKWAN\11-Fe
 b-2020\0\\#t pop=none jul-cc-pvdz guess=read um06l empiricaldispersion
 =gd3\\theory_abbreviation m06l_d3\\0,6\O,0,-0.423123,-0.169642,-0.5287
 7\C,0,-1.484958,-1.159998,-0.321153\C,0,-2.715942,-0.138996,-0.273873\
 C,0,-1.897256,1.15331,-0.251803\C,0,-1.815216,1.976042,-1.485827\Fe,0,
 1.377657,0.026701,0.024059\Cl,0,1.875389,1.985655,-0.865099\C,0,-1.565
 552,1.81615,1.036124\Cl,0,2.419146,-1.738342,-0.747965\Cl,0,1.400031,0
 .147685,2.229689\H,0,-3.239537,-0.191583,-1.233925\H,0,-2.438835,2.424
 604,1.31941\H,0,-1.369594,1.109053,1.841819\H,0,-0.709428,2.485682,0.9
 25015\H,0,-2.644172,2.701354,-1.453903\H,0,-0.875604,2.534088,-1.52024
 9\H,0,-1.922504,1.370102,-2.386773\C,0,-3.734752,-0.306422,0.85059\H,0
 ,-4.506659,0.469439,0.797742\H,0,-4.235596,-1.274566,0.752895\H,0,-3.2
 77472,-0.265537,1.841907\C,0,-1.247084,-1.939105,0.963243\H,0,-2.06551
 9,-2.643493,1.144328\H,0,-0.32027,-2.514294,0.868243\H,0,-1.141921,-1.
 285381,1.831153\C,0,-1.524342,-2.076229,-1.53347\H,0,-0.582097,-2.6282
 5,-1.607757\H,0,-2.347214,-2.795526,-1.448851\H,0,-1.654681,-1.496262,
 -2.45206\\Version=ES64L-G16RevA.03\HF=-3034.2038662\S2=8.76204\S2-1=0.
 \S2A=8.750046\RMSD=6.672e-09\PG=C01 [X(C8H16Cl3Fe1O1)]\\@


 ... IT IS NO ONE DREAME THAT
     CAN PLEASE THESE ALL ...

                -- BEN JONSON
 Job cpu time:       0 days  1 hours 12 minutes 45.1 seconds.
 Elapsed time:       0 days  0 hours 18 minutes 14.3 seconds.
 File lengths (MBytes):  RWF=    174 Int=      0 D2E=      0 Chk=     13 Scr=      1
 Normal termination of Gaussian 16 at Tue Feb 11 22:27:14 2020.
 Initial command:
 /n/sw/g16_nehalem/g16/l1.exe "/scratch/Gau-140327.inp" -scrdir="/scratch/"
 Entering Link 1 = /n/sw/g16_nehalem/g16/l1.exe PID=    223047.
  
 Copyright (c) 1988,1990,1992,1993,1995,1998,2003,2009,2016,
            Gaussian, Inc.  All Rights Reserved.
  
 This is part of the Gaussian(R) 16 program.  It is based on
 the Gaussian(R) 09 system (copyright 2009, Gaussian, Inc.),
 the Gaussian(R) 03 system (copyright 2003, Gaussian, Inc.),
 the Gaussian(R) 98 system (copyright 1998, Gaussian, Inc.),
 the Gaussian(R) 94 system (copyright 1995, Gaussian, Inc.),
 the Gaussian 92(TM) system (copyright 1992, Gaussian, Inc.),
 the Gaussian 90(TM) system (copyright 1990, Gaussian, Inc.),
 the Gaussian 88(TM) system (copyright 1988, Gaussian, Inc.),
 the Gaussian 86(TM) system (copyright 1986, Carnegie Mellon
 University), and the Gaussian 82(TM) system (copyright 1983,
 Carnegie Mellon University). Gaussian is a federally registered
 trademark of Gaussian, Inc.
  
 This software contains proprietary and confidential information,
 including trade secrets, belonging to Gaussian, Inc.
  
 This software is provided under written license and may be
 used, copied, transmitted, or stored only in accord with that
 written license.
  
 The following legend is applicable only to US Government
 contracts under FAR:
  
                    RESTRICTED RIGHTS LEGEND
  
 Use, reproduction and disclosure by the US Government is
 subject to restrictions as set forth in subparagraphs (a)
 and (c) of the Commercial Computer Software - Restricted
 Rights clause in FAR 52.227-19.
  
 Gaussian, Inc.
 340 Quinnipiac St., Bldg. 40, Wallingford CT 06492
  
  
 ---------------------------------------------------------------
 Warning -- This program may not be used in any manner that
 competes with the business of Gaussian, Inc. or will provide
 assistance to any competitor of Gaussian, Inc.  The licensee
 of this program is prohibited from giving any competitor of
 Gaussian, Inc. access to this program.  By using this program,
 the user acknowledges that Gaussian, Inc. is engaged in the
 business of creating and licensing software in the field of
 computational chemistry and represents and warrants to the
 licensee that it is not a competitor of Gaussian, Inc. and that
 it will not use this program in any manner prohibited above.
 ---------------------------------------------------------------
  

 Cite this work as:
 Gaussian 16, Revision A.03,
 M. J. Frisch, G. W. Trucks, H. B. Schlegel, G. E. Scuseria, 
 M. A. Robb, J. R. Cheeseman, G. Scalmani, V. Barone, 
 G. A. Petersson, H. Nakatsuji, X. Li, M. Caricato, A. V. Marenich, 
 J. Bloino, B. G. Janesko, R. Gomperts, B. Mennucci, H. P. Hratchian, 
 J. V. Ortiz, A. F. Izmaylov, J. L. Sonnenberg, D. Williams-Young, 
 F. Ding, F. Lipparini, F. Egidi, J. Goings, B. Peng, A. Petrone, 
 T. Henderson, D. Ranasinghe, V. G. Zakrzewski, J. Gao, N. Rega, 
 G. Zheng, W. Liang, M. Hada, M. Ehara, K. Toyota, R. Fukuda, 
 J. Hasegawa, M. Ishida, T. Nakajima, Y. Honda, O. Kitao, H. Nakai, 
 T. Vreven, K. Throssell, J. A. Montgomery, Jr., J. E. Peralta, 
 F. Ogliaro, M. J. Bearpark, J. J. Heyd, E. N. Brothers, K. N. Kudin, 
 V. N. Staroverov, T. A. Keith, R. Kobayashi, J. Normand, 
 K. Raghavachari, A. P. Rendell, J. C. Burant, S. S. Iyengar, 
 J. Tomasi, M. Cossi, J. M. Millam, M. Klene, C. Adamo, R. Cammi, 
 J. W. Ochterski, R. L. Martin, K. Morokuma, O. Farkas, 
 J. B. Foresman, and D. J. Fox, Gaussian, Inc., Wallingford CT, 2016.
 
 ******************************************
 Gaussian 16:  ES64L-G16RevA.03 25-Dec-2016
                11-Feb-2020 
 ******************************************
 %chk=checkpoint.chk
 %mem=3GB
 %nprocshared=4
 Will use up to    4 processors via shared memory.
 -------------------------------------------------------------------
 #t pop=none jul-cc-pvdz guess=read ub97d3 empiricaldispersion=gd3bj
 -------------------------------------------------------------------
 ------------------------------
 theory_abbreviation b97d3_d3bj
 ------------------------------
 Symbolic Z-matrix:
 Charge =  0 Multiplicity = 6
 O                    -0.42312  -0.16964  -0.52877 
 C                    -1.48496  -1.16     -0.32115 
 C                    -2.71594  -0.139    -0.27387 
 C                    -1.89726   1.15331  -0.2518 
 C                    -1.81522   1.97604  -1.48583 
 Fe                    1.37766   0.0267    0.02406 
 Cl                    1.87539   1.98566  -0.8651 
 C                    -1.56555   1.81615   1.03612 
 Cl                    2.41915  -1.73834  -0.74797 
 Cl                    1.40003   0.14769   2.22969 
 H                    -3.23954  -0.19158  -1.23393 
 H                    -2.43884   2.4246    1.31941 
 H                    -1.36959   1.10905   1.84182 
 H                    -0.70943   2.48568   0.92502 
 H                    -2.64417   2.70135  -1.4539 
 H                    -0.8756    2.53409  -1.52025 
 H                    -1.9225    1.3701   -2.38677 
 C                    -3.73475  -0.30642   0.85059 
 H                    -4.50666   0.46944   0.79774 
 H                    -4.2356   -1.27457   0.7529 
 H                    -3.27747  -0.26554   1.84191 
 C                    -1.24708  -1.93911   0.96324 
 H                    -2.06552  -2.64349   1.14433 
 H                    -0.32027  -2.51429   0.86824 
 H                    -1.14192  -1.28538   1.83115 
 C                    -1.52434  -2.07623  -1.53347 
 H                    -0.5821   -2.62825  -1.60776 
 H                    -2.34721  -2.79553  -1.44885 
 H                    -1.65468  -1.49626  -2.45206 
 
                    Distance matrix (angstroms):
                    1          2          3          4          5
     1  O    0.000000
     2  C    1.466766   0.000000
     3  C    2.307148   1.600001   0.000000
     4  C    1.999995   2.350786   1.529964   0.000000
     5  C    2.730905   3.361589   2.598755   1.485407   0.000000
     6  Fe   1.893932   3.118011   4.107770   3.474249   4.034120
     7  Cl   3.168845   4.634969   5.093526   3.911749   3.742454
     8  C    2.774420   3.272026   2.619558   1.485981   2.539318
     9  Cl   3.253822   3.969720   5.399241   5.219114   5.680749
    10  Cl   3.321699   4.066939   4.826100   4.247492   5.242686
    11  H    2.903431   2.202164   1.094814   2.138929   2.605905
    12  H    3.769480   4.055946   3.031070   2.092416   2.908516
    13  H    2.854919   3.136933   2.801148   2.159546   3.467489
    14  H    3.040758   3.930059   3.514593   2.138002   2.700863
    15  H    3.745871   4.187713   3.076558   2.097467   1.101937
    16  H    2.915120   3.931338   3.476446   2.135246   1.093376
    17  H    2.840973   3.295397   2.715008   2.146097   1.091044
    18  C    3.590018   2.676406   1.526572   2.592774   3.788549
    19  H    4.340890   3.610771   2.173757   2.894513   3.837760
    20  H    4.171148   2.955117   2.157109   3.517362   4.629964
    21  H    3.711686   2.948219   2.192682   2.881275   4.270443
    22  C    2.456830   1.520942   2.632184   3.385571   4.652859
    23  H    3.408322   2.164588   2.950737   4.048853   5.321698
    24  H    2.731230   2.145991   3.561701   4.146409   5.285795
    25  H    2.707541   2.183075   2.867556   3.294913   4.700273
    26  C    2.420161   1.520113   2.599878   3.494518   4.062976
    27  H    2.689654   2.150877   3.539622   4.227109   4.768119
    28  H    3.382890   2.165673   2.928086   4.150746   4.801276
    29  H    2.641155   2.163942   2.777219   3.452565   3.607807
                    6          7          8          9         10
     6  Fe   0.000000
     7  Cl   2.208130   0.000000
     8  C    3.590109   3.934902   0.000000
     9  Cl   2.189999   3.765308   5.629849   0.000000
    10  Cl   2.209059   3.630676   3.605975   3.669076   0.000000
    11  H    4.790475   5.571254   3.462129   5.886367   5.799769
    12  H    4.689721   4.855645   1.101404   6.723402   4.555201
    13  H    3.467438   4.315756   1.089739   5.400851   2.957278
    14  H    3.348766   3.183679   1.092505   5.516268   3.408551
    15  H    5.051064   4.613605   2.854337   6.771000   6.037024
    16  H    3.707973   2.880618   2.743448   5.450271   4.993543
    17  H    4.302081   4.137437   3.470245   5.585521   5.817668
    18  C    5.189494   6.298483   3.040586   6.517379   5.336115
    19  H    5.951452   6.767162   3.243542   7.431708   6.086295
    20  H    5.808021   7.112741   4.094127   6.837636   5.997000
    21  H    5.006016   6.240811   2.813073   6.428689   4.711705
    22  C    3.411118   5.338203   3.769439   4.050899   3.600805
    23  H    4.498933   6.402934   4.488885   4.950989   4.580253
    24  H    3.170530   5.298578   4.509064   3.273932   3.449508
    25  H    3.366812   5.203231   3.229710   4.420206   2.945170
    26  C    3.907660   5.338894   4.664239   4.035131   5.259194
    27  H    3.681335   5.280047   5.264027   3.246327   5.134261
    28  H    4.899907   6.405532   5.296570   4.932248   6.019634
    29  H    4.200673   5.206110   4.811179   4.422512   5.826886
                   11         12         13         14         15
    11  H    0.000000
    12  H    3.742336   0.000000
    13  H    3.827341   1.773940   0.000000
    14  H    4.269686   1.774860   1.780858   0.000000
    15  H    2.961745   2.794641   3.875791   3.073923   0.000000
    16  H    3.619315   3.243353   3.684868   2.451382   1.777699
    17  H    2.345740   3.887720   4.272569   3.699191   1.778562
    18  C    2.145607   3.059035   2.929177   4.117520   3.942939
    19  H    2.483993   2.893217   3.367548   4.301209   3.676983
    20  H    2.472335   4.151283   3.883473   5.157805   4.817731
    21  H    3.076955   2.865864   2.351488   3.873596   4.479495
    22  C    3.442564   4.537519   3.174614   4.457497   5.415562
    23  H    3.611962   5.084843   3.879743   5.309945   5.971016
    24  H    4.282081   5.393012   3.895841   5.015419   6.164079
    25  H    3.871833   3.963314   2.405257   3.902442   5.379815
    26  C    2.565835   5.406729   4.643549   5.245881   4.907713
    27  H    3.624787   6.127570   5.146568   5.708191   5.716686
    28  H    2.760970   5.909435   5.199037   6.017370   5.504898
    29  H    2.387008   5.496551   5.030540   5.306036   4.426668
                   16         17         18         19         20
    16  H    0.000000
    17  H    1.789337   0.000000
    18  C    4.675907   4.071301   0.000000
    19  H    4.777072   4.198832   1.095716   0.000000
    20  H    5.564402   4.711919   1.094391   1.765514   0.000000
    21  H    4.991088   4.732123   1.092468   1.772391   1.766943
    22  C    5.129833   4.757063   2.977723   4.056267   3.068723
    23  H    5.943334   5.347717   2.886957   3.971100   2.595460
    24  H    5.612437   5.315150   4.066165   5.141351   4.108529
    25  H    5.088336   5.044978   2.939836   3.933039   3.276215
    26  C    4.655755   3.572654   3.701604   4.561709   3.636073
    27  H    5.171415   4.288400   4.623158   5.548359   4.555567
    28  H    5.529513   4.290983   3.661739   4.513356   3.275209
    29  H    4.209389   2.879589   4.080430   4.749629   4.120923
                   21         22         23         24         25
    21  H    0.000000
    22  C    2.774050   0.000000
    23  H    2.758645   1.094893   0.000000
    24  H    3.840569   1.094921   1.771669   0.000000
    25  H    2.366596   1.091642   1.780233   1.764237   0.000000
    26  C    4.212510   2.515800   2.790208   2.722116   3.477409
    27  H    4.974700   2.743569   3.126459   2.492412   3.734006
    28  H    4.253859   2.786026   2.612861   3.091362   3.806796
    29  H    4.752503   3.467930   3.797227   3.720410   4.318947
                   26         27         28         29
    26  C    0.000000
    27  H    1.094564   0.000000
    28  H    1.096206   1.780132   0.000000
    29  H    1.094147   1.773325   1.781605   0.000000
 Framework group  C1[X(C8H16Cl3FeO)]
 Deg. of freedom    81
                         Standard orientation:                         
 ---------------------------------------------------------------------
 Center     Atomic      Atomic             Coordinates (Angstroms)
 Number     Number       Type             X           Y           Z
 ---------------------------------------------------------------------
      1          8           0       -0.423123   -0.169642   -0.528770
      2          6           0       -1.484958   -1.159998   -0.321153
      3          6           0       -2.715942   -0.138996   -0.273873
      4          6           0       -1.897256    1.153310   -0.251803
      5          6           0       -1.815216    1.976042   -1.485827
      6         26           0        1.377657    0.026701    0.024059
      7         17           0        1.875389    1.985655   -0.865099
      8          6           0       -1.565552    1.816150    1.036124
      9         17           0        2.419146   -1.738342   -0.747965
     10         17           0        1.400031    0.147685    2.229689
     11          1           0       -3.239537   -0.191583   -1.233925
     12          1           0       -2.438835    2.424604    1.319410
     13          1           0       -1.369594    1.109053    1.841819
     14          1           0       -0.709428    2.485682    0.925015
     15          1           0       -2.644172    2.701354   -1.453903
     16          1           0       -0.875604    2.534088   -1.520249
     17          1           0       -1.922504    1.370102   -2.386773
     18          6           0       -3.734752   -0.306422    0.850590
     19          1           0       -4.506659    0.469439    0.797742
     20          1           0       -4.235596   -1.274566    0.752895
     21          1           0       -3.277472   -0.265537    1.841907
     22          6           0       -1.247084   -1.939105    0.963243
     23          1           0       -2.065519   -2.643493    1.144328
     24          1           0       -0.320270   -2.514294    0.868243
     25          1           0       -1.141921   -1.285381    1.831153
     26          6           0       -1.524342   -2.076229   -1.533470
     27          1           0       -0.582097   -2.628250   -1.607757
     28          1           0       -2.347214   -2.795526   -1.448851
     29          1           0       -1.654681   -1.496262   -2.452060
 ---------------------------------------------------------------------
 Rotational constants (GHZ):           0.5757282           0.3644083           0.3242510
   427 basis functions,  1056 primitive gaussians,   461 cartesian basis functions
    77 alpha electrons       72 beta electrons
       nuclear repulsion energy      1663.7547467879 Hartrees.
 NAtoms=   29 NActive=   29 NUniq=   29 SFac= 1.00D+00 NAtFMM=   60 NAOKFM=F Big=F
 Nuclear repulsion after empirical dispersion term =     1663.6539774587 Hartrees.
 Initial guess from the checkpoint file:  "checkpoint.chk"
 B after Tr=     0.000000    0.000000    0.000000
         Rot=    1.000000    0.000000    0.000000    0.000000 Ang=   0.00 deg.
 Initial guess <Sx>= 0.0000 <Sy>= 0.0000 <Sz>= 2.5000 <S**2>= 8.7620 S= 2.5020
 EnCoef did     6 forward-backward iterations
 SCF Done:  E(UB97D3) =  -3034.62540277     A.U. after   16 cycles
            NFock= 16  Conv=0.58D-08     -V/T= 2.0020
 <Sx>= 0.0000 <Sy>= 0.0000 <Sz>= 2.5000 <S**2>= 8.7603 S= 2.5017
 <L.S>= 0.000000000000E+00
 Annihilation of the first spin contaminant:
 S**2 before annihilation     8.7603,   after     8.7500
 1\1\GINC-HOLY7C18604\SP\UB97D3\Jul-CC-pVDZ\C8H16Cl3Fe1O1(6)\EKWAN\11-F
 eb-2020\0\\#t pop=none jul-cc-pvdz guess=read ub97d3 empiricaldispersi
 on=gd3bj\\theory_abbreviation b97d3_d3bj\\0,6\O,0,-0.423123,-0.169642,
 -0.52877\C,0,-1.484958,-1.159998,-0.321153\C,0,-2.715942,-0.138996,-0.
 273873\C,0,-1.897256,1.15331,-0.251803\C,0,-1.815216,1.976042,-1.48582
 7\Fe,0,1.377657,0.026701,0.024059\Cl,0,1.875389,1.985655,-0.865099\C,0
 ,-1.565552,1.81615,1.036124\Cl,0,2.419146,-1.738342,-0.747965\Cl,0,1.4
 00031,0.147685,2.229689\H,0,-3.239537,-0.191583,-1.233925\H,0,-2.43883
 5,2.424604,1.31941\H,0,-1.369594,1.109053,1.841819\H,0,-0.709428,2.485
 682,0.925015\H,0,-2.644172,2.701354,-1.453903\H,0,-0.875604,2.534088,-
 1.520249\H,0,-1.922504,1.370102,-2.386773\C,0,-3.734752,-0.306422,0.85
 059\H,0,-4.506659,0.469439,0.797742\H,0,-4.235596,-1.274566,0.752895\H
 ,0,-3.277472,-0.265537,1.841907\C,0,-1.247084,-1.939105,0.963243\H,0,-
 2.065519,-2.643493,1.144328\H,0,-0.32027,-2.514294,0.868243\H,0,-1.141
 921,-1.285381,1.831153\C,0,-1.524342,-2.076229,-1.53347\H,0,-0.582097,
 -2.62825,-1.607757\H,0,-2.347214,-2.795526,-1.448851\H,0,-1.654681,-1.
 496262,-2.45206\\Version=ES64L-G16RevA.03\HF=-3034.6254028\S2=8.76026\
 S2-1=0.\S2A=8.750033\RMSD=5.825e-09\PG=C01 [X(C8H16Cl3Fe1O1)]\\@


 HE THAT IS UNAWARE OF HIS IGNORANCE WILL BE MISLED BY HIS KNOWLEDGE.

                                        -- WHATLEY
 Job cpu time:       0 days  0 hours 49 minutes 49.9 seconds.
 Elapsed time:       0 days  0 hours 12 minutes 29.7 seconds.
 File lengths (MBytes):  RWF=    174 Int=      0 D2E=      0 Chk=     13 Scr=      1
 Normal termination of Gaussian 16 at Tue Feb 11 22:39:44 2020.
