 Entering Gaussian System, Link 0=g16
 Input=simple-grid-255-270-b3lyp_d3bj-631gd-gas-singlepoint-DFT-juldz2-gas.gjf
 Output=simple-grid-255-270-b3lyp_d3bj-631gd-gas-singlepoint-DFT-juldz2-gas.out
 Initial command:
 /n/sw/g16_nehalem/g16/l1.exe "/scratch/Gau-369951.inp" -scrdir="/scratch/"
 Entering Link 1 = /n/sw/g16_nehalem/g16/l1.exe PID=    369954.
  
 Copyright (c) 1988,1990,1992,1993,1995,1998,2003,2009,2016,
            Gaussian, Inc.  All Rights Reserved.
  
 This is part of the Gaussian(R) 16 program.  It is based on
 the Gaussian(R) 09 system (copyright 2009, Gaussian, Inc.),
 the Gaussian(R) 03 system (copyright 2003, Gaussian, Inc.),
 the Gaussian(R) 98 system (copyright 1998, Gaussian, Inc.),
 the Gaussian(R) 94 system (copyright 1995, Gaussian, Inc.),
 the Gaussian 92(TM) system (copyright 1992, Gaussian, Inc.),
 the Gaussian 90(TM) system (copyright 1990, Gaussian, Inc.),
 the Gaussian 88(TM) system (copyright 1988, Gaussian, Inc.),
 the Gaussian 86(TM) system (copyright 1986, Carnegie Mellon
 University), and the Gaussian 82(TM) system (copyright 1983,
 Carnegie Mellon University). Gaussian is a federally registered
 trademark of Gaussian, Inc.
  
 This software contains proprietary and confidential information,
 including trade secrets, belonging to Gaussian, Inc.
  
 This software is provided under written license and may be
 used, copied, transmitted, or stored only in accord with that
 written license.
  
 The following legend is applicable only to US Government
 contracts under FAR:
  
                    RESTRICTED RIGHTS LEGEND
  
 Use, reproduction and disclosure by the US Government is
 subject to restrictions as set forth in subparagraphs (a)
 and (c) of the Commercial Computer Software - Restricted
 Rights clause in FAR 52.227-19.
  
 Gaussian, Inc.
 340 Quinnipiac St., Bldg. 40, Wallingford CT 06492
  
  
 ---------------------------------------------------------------
 Warning -- This program may not be used in any manner that
 competes with the business of Gaussian, Inc. or will provide
 assistance to any competitor of Gaussian, Inc.  The licensee
 of this program is prohibited from giving any competitor of
 Gaussian, Inc. access to this program.  By using this program,
 the user acknowledges that Gaussian, Inc. is engaged in the
 business of creating and licensing software in the field of
 computational chemistry and represents and warrants to the
 licensee that it is not a competitor of Gaussian, Inc. and that
 it will not use this program in any manner prohibited above.
 ---------------------------------------------------------------
  

 Cite this work as:
 Gaussian 16, Revision A.03,
 M. J. Frisch, G. W. Trucks, H. B. Schlegel, G. E. Scuseria, 
 M. A. Robb, J. R. Cheeseman, G. Scalmani, V. Barone, 
 G. A. Petersson, H. Nakatsuji, X. Li, M. Caricato, A. V. Marenich, 
 J. Bloino, B. G. Janesko, R. Gomperts, B. Mennucci, H. P. Hratchian, 
 J. V. Ortiz, A. F. Izmaylov, J. L. Sonnenberg, D. Williams-Young, 
 F. Ding, F. Lipparini, F. Egidi, J. Goings, B. Peng, A. Petrone, 
 T. Henderson, D. Ranasinghe, V. G. Zakrzewski, J. Gao, N. Rega, 
 G. Zheng, W. Liang, M. Hada, M. Ehara, K. Toyota, R. Fukuda, 
 J. Hasegawa, M. Ishida, T. Nakajima, Y. Honda, O. Kitao, H. Nakai, 
 T. Vreven, K. Throssell, J. A. Montgomery, Jr., J. E. Peralta, 
 F. Ogliaro, M. J. Bearpark, J. J. Heyd, E. N. Brothers, K. N. Kudin, 
 V. N. Staroverov, T. A. Keith, R. Kobayashi, J. Normand, 
 K. Raghavachari, A. P. Rendell, J. C. Burant, S. S. Iyengar, 
 J. Tomasi, M. Cossi, J. M. Millam, M. Klene, C. Adamo, R. Cammi, 
 J. W. Ochterski, R. L. Martin, K. Morokuma, O. Farkas, 
 J. B. Foresman, and D. J. Fox, Gaussian, Inc., Wallingford CT, 2016.
 
 ******************************************
 Gaussian 16:  ES64L-G16RevA.03 25-Dec-2016
                11-Feb-2020 
 ******************************************
 %chk=checkpoint.chk
 %mem=3GB
 %nprocshared=4
 Will use up to    4 processors via shared memory.
 --------------------------------
 #t pop=none jul-cc-pvdz upbe1pbe
 --------------------------------
 ------------------------
 theory_abbreviation pbe0
 ------------------------
 Symbolic Z-matrix:
 Charge =  0 Multiplicity = 6
 O                     0.25487   0.29351  -0.82798 
 C                     1.06054   1.24683  -0.65728 
 C                     3.04635   0.1017    0.45974 
 C                     2.54657  -0.97859  -0.17998 
 C                     2.92752  -1.30566  -1.59611 
 Fe                   -1.45912  -0.13674   0.02125 
 Cl                   -2.08666  -1.99355  -0.92678 
 C                     1.63004  -1.97963   0.45549 
 Cl                   -2.63516   1.63854  -0.49139 
 Cl                   -1.13168  -0.30235   2.18889 
 H                     3.77144   0.70964  -0.08058 
 H                     2.16453  -2.93141   0.58002 
 H                     1.25039  -1.67551   1.4301 
 H                     0.77685  -2.19218  -0.1996 
 H                     3.368    -2.31012  -1.63727 
 H                     2.03774  -1.33275  -2.23879 
 H                     3.65425  -0.60253  -2.01179 
 C                     2.93688   0.38631   1.93507 
 H                     3.75477  -0.11221   2.47272 
 H                     3.0286    1.45575   2.14692 
 H                     1.99822   0.03465   2.37058 
 C                     0.89112   2.1927    0.49195 
 H                     1.77694   2.80742   0.65471 
 H                     0.05598   2.85233   0.21182 
 H                     0.60252   1.67745   1.40783 
 C                     1.83011   1.73092  -1.85184 
 H                     1.1852    2.48118  -2.33278 
 H                     2.76478   2.22126  -1.57665 
 H                     2.00272   0.93194  -2.57023 
 
                    Distance matrix (angstroms):
                    1          2          3          4          5
     1  O    0.000000
     2  C    1.259780   0.000000
     3  C    3.080156   2.550000   0.000000
     4  C    2.700000   2.718190   1.351314   0.000000
     5  C    3.207872   3.298821   2.494257   1.502508   0.000000
     6  Fe   1.960624   2.953525   4.533028   4.098132   4.819213
     7  Cl   3.274626   4.525209   5.714920   4.801527   5.105217
     8  C    2.950513   3.460142   2.517513   1.498640   2.519277
     9  Cl   3.205409   3.720095   5.962049   5.813482   6.390000
    10  Cl   3.373281   3.912342   4.539726   4.426998   5.640031
    11  H    3.619119   2.823145   1.089628   2.088131   2.659033
    12  H    4.003676   4.495267   3.160990   2.130046   2.821488
    13  H    3.157058   3.596285   2.706576   2.181316   3.479586
    14  H    2.616476   3.480901   3.293512   2.145944   2.713215
    15  H    4.138290   4.351627   3.212138   2.138094   1.097571
    16  H    2.795304   3.179666   3.218225   2.150118   1.097939
    17  H    3.709458   3.461524   2.640825   2.173457   1.093308
    18  C    3.851778   3.313822   1.506511   2.547296   3.915620
    19  H    4.827890   4.347735   2.144691   3.040917   4.320189
    20  H    4.230175   3.432269   2.163406   3.401882   4.652513
    21  H    3.651992   3.393607   2.180450   2.798692   4.288899
    22  C    2.398742   1.498043   3.003057   3.639930   4.554725
    23  H    3.291621   2.161016   2.995048   3.952575   4.827778
    24  H    2.769173   2.083778   4.070597   4.586119   5.366870
    25  H    2.652356   2.158681   3.058457   3.654450   4.829934
    26  C    2.365552   1.501189   3.078475   3.263412   3.238910
    27  H    2.813509   2.084817   4.113874   4.296257   4.233025
    28  H    3.252129   2.167759   2.952738   3.498182   3.530723
    29  H    2.549125   2.155516   3.310469   3.107924   2.609796
                    6          7          8          9         10
     6  Fe   0.000000
     7  Cl   2.177222   0.000000
     8  C    3.623214   3.965443   0.000000
     9  Cl   2.190318   3.698981   5.672708   0.000000
    10  Cl   2.198476   3.671444   3.666744   3.634748   0.000000
    11  H    5.299569   6.506967   3.479238   6.486609   5.496832
    12  H    4.610127   4.606813   1.098678   6.713378   4.512808
    13  H    3.419664   4.097796   1.089259   5.456422   2.852295
    14  H    3.045181   2.961072   1.096473   5.138220   3.594272
    15  H    5.547552   5.509842   2.740326   7.276185   6.238410
    16  H    4.331998   4.378213   2.800678   5.806712   5.541772
    17  H    5.522384   6.005854   3.475817   6.847672   6.375023
    18  C    4.822971   6.252187   3.081335   6.205107   4.134226
    19  H    5.761506   7.015580   3.474323   7.258258   4.898381
    20  H    5.214795   6.892833   4.076602   6.250779   4.516699
    21  H    4.183530   5.627826   2.803644   5.677285   3.153231
    22  C    3.342375   5.329604   4.237413   3.702522   3.632708
    23  H    4.420563   6.362213   4.793437   4.705995   4.525968
    24  H    3.356547   5.419400   5.087720   3.034801   3.907859
    25  H    3.076405   5.114525   3.916246   3.753815   2.745383
    26  C    4.220858   5.483479   4.374011   4.668829   5.406835
    27  H    4.403107   5.718835   5.279308   4.323871   5.793222
    28  H    5.094574   6.459363   4.802562   5.538647   5.977472
    29  H    4.454456   5.289849   4.215580   5.131351   5.830708
                   11         12         13         14         15
    11  H    0.000000
    12  H    4.034327   0.000000
    13  H    3.785074   1.770756   0.000000
    14  H    4.171599   1.754980   1.774007   0.000000
    15  H    3.421259   2.598218   3.780976   2.965614   0.000000
    16  H    3.440186   3.243071   3.768042   2.546909   1.756892
    17  H    2.337751   3.789523   4.333181   3.753724   1.771468
    18  C    2.205419   3.666053   2.711152   3.983856   4.496470
    19  H    2.682359   3.749538   3.130957   4.509495   4.676796
    20  H    2.463788   4.738031   3.671599   4.887111   5.349495
    21  H    3.099692   3.468611   2.090072   3.613351   4.841189
    22  C    3.289915   5.280713   3.996535   4.440547   5.562735
    23  H    2.986531   5.752389   4.579862   5.169712   5.828712
    24  H    4.298988   6.167117   4.838618   5.112338   6.406216
    25  H    3.632364   4.936275   3.415058   4.193835   5.728988
    26  C    2.819422   5.269079   4.765607   4.385196   4.329111
    27  H    3.859974   6.224120   5.607280   5.153388   5.310829
    28  H    2.352991   5.617964   5.149630   5.032541   4.571757
    29  H    3.062050   4.987567   4.833993   4.108864   3.639422
                   16         17         18         19         20
    16  H    0.000000
    17  H    1.788252   0.000000
    18  C    4.602679   4.131600   0.000000
    19  H    5.161023   4.512353   1.098430   0.000000
    20  H    5.290738   4.682180   1.094069   1.758401   0.000000
    21  H    4.808074   4.727958   1.092890   1.765636   1.769525
    22  C    4.604399   4.660146   3.087195   4.175716   2.801937
    23  H    5.057793   4.718287   2.974313   3.967523   2.370732
    24  H    5.239061   5.461507   4.165386   5.251790   3.812027
    25  H    4.941556   5.119098   2.719237   3.778041   2.545832
    26  C    3.094980   2.966150   4.168165   5.079694   4.183563
    27  H    3.909177   3.963390   5.066694   6.034999   4.951502
    28  H    3.687538   2.992366   3.965952   4.777291   3.810584
    29  H    2.289082   2.322498   4.633368   5.439789   4.855753
                   21         22         23         24         25
    21  H    0.000000
    22  C    3.067918   0.000000
    23  H    3.268245   1.090430   0.000000
    24  H    4.046223   1.100475   1.777601   0.000000
    25  H    2.360865   1.089768   1.795342   1.763376   0.000000
    26  C    4.553509   2.566774   2.728454   2.943434   3.483574
    27  H    5.363592   2.854617   3.062955   2.808539   3.870098
    28  H    4.577056   2.791151   2.509652   3.306728   3.725339
    29  H    5.021631   3.493161   3.737463   3.900965   4.282678
                   26         27         28         29
    26  C    0.000000
    27  H    1.100044   0.000000
    28  H    1.090762   1.770415   0.000000
    29  H    1.088233   1.767724   1.797297   0.000000
 Framework group  C1[X(C8H16Cl3FeO)]
 Deg. of freedom    81
                         Standard orientation:                         
 ---------------------------------------------------------------------
 Center     Atomic      Atomic             Coordinates (Angstroms)
 Number     Number       Type             X           Y           Z
 ---------------------------------------------------------------------
      1          8           0        0.254869    0.293509   -0.827977
      2          6           0        1.060535    1.246825   -0.657282
      3          6           0        3.046348    0.101702    0.459740
      4          6           0        2.546566   -0.978586   -0.179982
      5          6           0        2.927521   -1.305660   -1.596113
      6         26           0       -1.459117   -0.136743    0.021248
      7         17           0       -2.086663   -1.993550   -0.926777
      8          6           0        1.630041   -1.979626    0.455489
      9         17           0       -2.635158    1.638537   -0.491393
     10         17           0       -1.131679   -0.302351    2.188886
     11          1           0        3.771438    0.709638   -0.080582
     12          1           0        2.164535   -2.931414    0.580024
     13          1           0        1.250390   -1.675513    1.430099
     14          1           0        0.776851   -2.192175   -0.199601
     15          1           0        3.367999   -2.310124   -1.637274
     16          1           0        2.037742   -1.332746   -2.238787
     17          1           0        3.654249   -0.602525   -2.011793
     18          6           0        2.936877    0.386310    1.935067
     19          1           0        3.754774   -0.112214    2.472716
     20          1           0        3.028598    1.455746    2.146920
     21          1           0        1.998223    0.034647    2.370578
     22          6           0        0.891115    2.192703    0.491954
     23          1           0        1.776935    2.807416    0.654708
     24          1           0        0.055977    2.852334    0.211819
     25          1           0        0.602521    1.677454    1.407829
     26          6           0        1.830109    1.730922   -1.851842
     27          1           0        1.185196    2.481175   -2.332783
     28          1           0        2.764775    2.221256   -1.576646
     29          1           0        2.002719    0.931942   -2.570234
 ---------------------------------------------------------------------
 Rotational constants (GHZ):           0.5716156           0.3296560           0.3105824
   427 basis functions,  1056 primitive gaussians,   461 cartesian basis functions
    77 alpha electrons       72 beta electrons
       nuclear repulsion energy      1632.9722516676 Hartrees.
 NAtoms=   29 NActive=   29 NUniq=   29 SFac= 1.00D+00 NAtFMM=   60 NAOKFM=F Big=F
 ExpMin= 1.40D-02 ExpMax= 4.32D+06 ExpMxC= 4.91D+03 IAcc=3 IRadAn=         5 AccDes= 0.00D+00
 Harris functional with IExCor= 1009 and IRadAn=       5 diagonalized for initial guess.
 HarFok:  IExCor= 1009 AccDes= 0.00D+00 IRadAn=         5 IDoV= 1 UseB2=F ITyADJ=14
 ICtDFT=  3500011 ScaDFX=  1.000000  1.000000  1.000000  1.000000
 FoFCou: FMM=F IPFlag=           0 FMFlag=      100000 FMFlg1=           0
         NFxFlg=           0 DoJE=T BraDBF=F KetDBF=T FulRan=T
         wScrn=  0.000000 ICntrl=       500 IOpCl=  0 I1Cent=   200000004 NGrid=           0
         NMat0=    1 NMatS0=      1 NMatT0=    0 NMatD0=    1 NMtDS0=    0 NMtDT0=    0
 Petite list used in FoFCou.
 Initial guess <Sx>= 0.0000 <Sy>= 0.0000 <Sz>= 2.5000 <S**2>= 8.7500 S= 2.5000
 EnCoef did   100 forward-backward iterations
 SCF Done:  E(UPBE1PBE) =  -3033.13015487     A.U. after   20 cycles
            NFock= 20  Conv=0.57D-08     -V/T= 2.0021
 <Sx>= 0.0000 <Sy>= 0.0000 <Sz>= 2.5000 <S**2>= 8.7628 S= 2.5021
 <L.S>= 0.000000000000E+00
 Annihilation of the first spin contaminant:
 S**2 before annihilation     8.7628,   after     8.7501
 1\1\GINC-HOLY7C04409\SP\UPBE1PBE\Jul-CC-pVDZ\C8H16Cl3Fe1O1(6)\EKWAN\11
 -Feb-2020\0\\#t pop=none jul-cc-pvdz upbe1pbe\\theory_abbreviation pbe
 0\\0,6\O,0,0.254869,0.293509,-0.827977\C,0,1.060535,1.246825,-0.657282
 \C,0,3.046348,0.101702,0.45974\C,0,2.546566,-0.978586,-0.179982\C,0,2.
 927521,-1.30566,-1.596113\Fe,0,-1.459117,-0.136743,0.021248\Cl,0,-2.08
 6663,-1.99355,-0.926777\C,0,1.630041,-1.979626,0.455489\Cl,0,-2.635158
 ,1.638537,-0.491393\Cl,0,-1.131679,-0.302351,2.188886\H,0,3.771438,0.7
 09638,-0.080582\H,0,2.164535,-2.931414,0.580024\H,0,1.25039,-1.675513,
 1.430099\H,0,0.776851,-2.192175,-0.199601\H,0,3.367999,-2.310124,-1.63
 7274\H,0,2.037742,-1.332746,-2.238787\H,0,3.654249,-0.602525,-2.011793
 \C,0,2.936877,0.38631,1.935067\H,0,3.754774,-0.112214,2.472716\H,0,3.0
 28598,1.455746,2.14692\H,0,1.998223,0.034647,2.370578\C,0,0.891115,2.1
 92703,0.491954\H,0,1.776935,2.807416,0.654708\H,0,0.055977,2.852334,0.
 211819\H,0,0.602521,1.677454,1.407829\C,0,1.830109,1.730922,-1.851842\
 H,0,1.185196,2.481175,-2.332783\H,0,2.764775,2.221256,-1.576646\H,0,2.
 002719,0.931942,-2.570234\\Version=ES64L-G16RevA.03\HF=-3033.1301549\S
 2=8.76277\S2-1=0.\S2A=8.75005\RMSD=5.680e-09\PG=C01 [X(C8H16Cl3Fe1O1)]
 \\@


 SCIENCE IS A VERY HUMAN FORM OF KNOWLEDGE.
 WE ARE ALWAYS AT THE BRINK OF THE KNOWN,
 WE ALWAYS FEEL FORWARD FOR WHAT IS HOPED.
 EVERY JUDGEMENT IN SCIENCE STANDS ON THE EDGE OF ERROR, AND IS PERSONAL.
 SCIENCE IS A TRIBUTE TO WHAT WE CAN KNOW ALTHOUGH WE ARE FALLIBLE.

                     -- J. BRONOWSKI
 Job cpu time:       0 days  1 hours 21 minutes 17.1 seconds.
 Elapsed time:       0 days  0 hours 20 minutes 26.7 seconds.
 File lengths (MBytes):  RWF=    173 Int=      0 D2E=      0 Chk=     13 Scr=      1
 Normal termination of Gaussian 16 at Tue Feb 11 14:46:04 2020.
 Initial command:
 /n/sw/g16_nehalem/g16/l1.exe "/scratch/Gau-369951.inp" -scrdir="/scratch/"
 Entering Link 1 = /n/sw/g16_nehalem/g16/l1.exe PID=    376331.
  
 Copyright (c) 1988,1990,1992,1993,1995,1998,2003,2009,2016,
            Gaussian, Inc.  All Rights Reserved.
  
 This is part of the Gaussian(R) 16 program.  It is based on
 the Gaussian(R) 09 system (copyright 2009, Gaussian, Inc.),
 the Gaussian(R) 03 system (copyright 2003, Gaussian, Inc.),
 the Gaussian(R) 98 system (copyright 1998, Gaussian, Inc.),
 the Gaussian(R) 94 system (copyright 1995, Gaussian, Inc.),
 the Gaussian 92(TM) system (copyright 1992, Gaussian, Inc.),
 the Gaussian 90(TM) system (copyright 1990, Gaussian, Inc.),
 the Gaussian 88(TM) system (copyright 1988, Gaussian, Inc.),
 the Gaussian 86(TM) system (copyright 1986, Carnegie Mellon
 University), and the Gaussian 82(TM) system (copyright 1983,
 Carnegie Mellon University). Gaussian is a federally registered
 trademark of Gaussian, Inc.
  
 This software contains proprietary and confidential information,
 including trade secrets, belonging to Gaussian, Inc.
  
 This software is provided under written license and may be
 used, copied, transmitted, or stored only in accord with that
 written license.
  
 The following legend is applicable only to US Government
 contracts under FAR:
  
                    RESTRICTED RIGHTS LEGEND
  
 Use, reproduction and disclosure by the US Government is
 subject to restrictions as set forth in subparagraphs (a)
 and (c) of the Commercial Computer Software - Restricted
 Rights clause in FAR 52.227-19.
  
 Gaussian, Inc.
 340 Quinnipiac St., Bldg. 40, Wallingford CT 06492
  
  
 ---------------------------------------------------------------
 Warning -- This program may not be used in any manner that
 competes with the business of Gaussian, Inc. or will provide
 assistance to any competitor of Gaussian, Inc.  The licensee
 of this program is prohibited from giving any competitor of
 Gaussian, Inc. access to this program.  By using this program,
 the user acknowledges that Gaussian, Inc. is engaged in the
 business of creating and licensing software in the field of
 computational chemistry and represents and warrants to the
 licensee that it is not a competitor of Gaussian, Inc. and that
 it will not use this program in any manner prohibited above.
 ---------------------------------------------------------------
  

 Cite this work as:
 Gaussian 16, Revision A.03,
 M. J. Frisch, G. W. Trucks, H. B. Schlegel, G. E. Scuseria, 
 M. A. Robb, J. R. Cheeseman, G. Scalmani, V. Barone, 
 G. A. Petersson, H. Nakatsuji, X. Li, M. Caricato, A. V. Marenich, 
 J. Bloino, B. G. Janesko, R. Gomperts, B. Mennucci, H. P. Hratchian, 
 J. V. Ortiz, A. F. Izmaylov, J. L. Sonnenberg, D. Williams-Young, 
 F. Ding, F. Lipparini, F. Egidi, J. Goings, B. Peng, A. Petrone, 
 T. Henderson, D. Ranasinghe, V. G. Zakrzewski, J. Gao, N. Rega, 
 G. Zheng, W. Liang, M. Hada, M. Ehara, K. Toyota, R. Fukuda, 
 J. Hasegawa, M. Ishida, T. Nakajima, Y. Honda, O. Kitao, H. Nakai, 
 T. Vreven, K. Throssell, J. A. Montgomery, Jr., J. E. Peralta, 
 F. Ogliaro, M. J. Bearpark, J. J. Heyd, E. N. Brothers, K. N. Kudin, 
 V. N. Staroverov, T. A. Keith, R. Kobayashi, J. Normand, 
 K. Raghavachari, A. P. Rendell, J. C. Burant, S. S. Iyengar, 
 J. Tomasi, M. Cossi, J. M. Millam, M. Klene, C. Adamo, R. Cammi, 
 J. W. Ochterski, R. L. Martin, K. Morokuma, O. Farkas, 
 J. B. Foresman, and D. J. Fox, Gaussian, Inc., Wallingford CT, 2016.
 
 ******************************************
 Gaussian 16:  ES64L-G16RevA.03 25-Dec-2016
                11-Feb-2020 
 ******************************************
 %chk=checkpoint.chk
 %mem=3GB
 %nprocshared=4
 Will use up to    4 processors via shared memory.
 ---------------------------------------------------------------------
 #t pop=none jul-cc-pvdz guess=read upbe1pbe empiricaldispersion=gd3bj
 ---------------------------------------------------------------------
 -----------------------------
 theory_abbreviation pbe0_d3bj
 -----------------------------
 Symbolic Z-matrix:
 Charge =  0 Multiplicity = 6
 O                     0.25487   0.29351  -0.82798 
 C                     1.06054   1.24683  -0.65728 
 C                     3.04635   0.1017    0.45974 
 C                     2.54657  -0.97859  -0.17998 
 C                     2.92752  -1.30566  -1.59611 
 Fe                   -1.45912  -0.13674   0.02125 
 Cl                   -2.08666  -1.99355  -0.92678 
 C                     1.63004  -1.97963   0.45549 
 Cl                   -2.63516   1.63854  -0.49139 
 Cl                   -1.13168  -0.30235   2.18889 
 H                     3.77144   0.70964  -0.08058 
 H                     2.16453  -2.93141   0.58002 
 H                     1.25039  -1.67551   1.4301 
 H                     0.77685  -2.19218  -0.1996 
 H                     3.368    -2.31012  -1.63727 
 H                     2.03774  -1.33275  -2.23879 
 H                     3.65425  -0.60253  -2.01179 
 C                     2.93688   0.38631   1.93507 
 H                     3.75477  -0.11221   2.47272 
 H                     3.0286    1.45575   2.14692 
 H                     1.99822   0.03465   2.37058 
 C                     0.89112   2.1927    0.49195 
 H                     1.77694   2.80742   0.65471 
 H                     0.05598   2.85233   0.21182 
 H                     0.60252   1.67745   1.40783 
 C                     1.83011   1.73092  -1.85184 
 H                     1.1852    2.48118  -2.33278 
 H                     2.76478   2.22126  -1.57665 
 H                     2.00272   0.93194  -2.57023 
 
                    Distance matrix (angstroms):
                    1          2          3          4          5
     1  O    0.000000
     2  C    1.259780   0.000000
     3  C    3.080156   2.550000   0.000000
     4  C    2.700000   2.718190   1.351314   0.000000
     5  C    3.207872   3.298821   2.494257   1.502508   0.000000
     6  Fe   1.960624   2.953525   4.533028   4.098132   4.819213
     7  Cl   3.274626   4.525209   5.714920   4.801527   5.105217
     8  C    2.950513   3.460142   2.517513   1.498640   2.519277
     9  Cl   3.205409   3.720095   5.962049   5.813482   6.390000
    10  Cl   3.373281   3.912342   4.539726   4.426998   5.640031
    11  H    3.619119   2.823145   1.089628   2.088131   2.659033
    12  H    4.003676   4.495267   3.160990   2.130046   2.821488
    13  H    3.157058   3.596285   2.706576   2.181316   3.479586
    14  H    2.616476   3.480901   3.293512   2.145944   2.713215
    15  H    4.138290   4.351627   3.212138   2.138094   1.097571
    16  H    2.795304   3.179666   3.218225   2.150118   1.097939
    17  H    3.709458   3.461524   2.640825   2.173457   1.093308
    18  C    3.851778   3.313822   1.506511   2.547296   3.915620
    19  H    4.827890   4.347735   2.144691   3.040917   4.320189
    20  H    4.230175   3.432269   2.163406   3.401882   4.652513
    21  H    3.651992   3.393607   2.180450   2.798692   4.288899
    22  C    2.398742   1.498043   3.003057   3.639930   4.554725
    23  H    3.291621   2.161016   2.995048   3.952575   4.827778
    24  H    2.769173   2.083778   4.070597   4.586119   5.366870
    25  H    2.652356   2.158681   3.058457   3.654450   4.829934
    26  C    2.365552   1.501189   3.078475   3.263412   3.238910
    27  H    2.813509   2.084817   4.113874   4.296257   4.233025
    28  H    3.252129   2.167759   2.952738   3.498182   3.530723
    29  H    2.549125   2.155516   3.310469   3.107924   2.609796
                    6          7          8          9         10
     6  Fe   0.000000
     7  Cl   2.177222   0.000000
     8  C    3.623214   3.965443   0.000000
     9  Cl   2.190318   3.698981   5.672708   0.000000
    10  Cl   2.198476   3.671444   3.666744   3.634748   0.000000
    11  H    5.299569   6.506967   3.479238   6.486609   5.496832
    12  H    4.610127   4.606813   1.098678   6.713378   4.512808
    13  H    3.419664   4.097796   1.089259   5.456422   2.852295
    14  H    3.045181   2.961072   1.096473   5.138220   3.594272
    15  H    5.547552   5.509842   2.740326   7.276185   6.238410
    16  H    4.331998   4.378213   2.800678   5.806712   5.541772
    17  H    5.522384   6.005854   3.475817   6.847672   6.375023
    18  C    4.822971   6.252187   3.081335   6.205107   4.134226
    19  H    5.761506   7.015580   3.474323   7.258258   4.898381
    20  H    5.214795   6.892833   4.076602   6.250779   4.516699
    21  H    4.183530   5.627826   2.803644   5.677285   3.153231
    22  C    3.342375   5.329604   4.237413   3.702522   3.632708
    23  H    4.420563   6.362213   4.793437   4.705995   4.525968
    24  H    3.356547   5.419400   5.087720   3.034801   3.907859
    25  H    3.076405   5.114525   3.916246   3.753815   2.745383
    26  C    4.220858   5.483479   4.374011   4.668829   5.406835
    27  H    4.403107   5.718835   5.279308   4.323871   5.793222
    28  H    5.094574   6.459363   4.802562   5.538647   5.977472
    29  H    4.454456   5.289849   4.215580   5.131351   5.830708
                   11         12         13         14         15
    11  H    0.000000
    12  H    4.034327   0.000000
    13  H    3.785074   1.770756   0.000000
    14  H    4.171599   1.754980   1.774007   0.000000
    15  H    3.421259   2.598218   3.780976   2.965614   0.000000
    16  H    3.440186   3.243071   3.768042   2.546909   1.756892
    17  H    2.337751   3.789523   4.333181   3.753724   1.771468
    18  C    2.205419   3.666053   2.711152   3.983856   4.496470
    19  H    2.682359   3.749538   3.130957   4.509495   4.676796
    20  H    2.463788   4.738031   3.671599   4.887111   5.349495
    21  H    3.099692   3.468611   2.090072   3.613351   4.841189
    22  C    3.289915   5.280713   3.996535   4.440547   5.562735
    23  H    2.986531   5.752389   4.579862   5.169712   5.828712
    24  H    4.298988   6.167117   4.838618   5.112338   6.406216
    25  H    3.632364   4.936275   3.415058   4.193835   5.728988
    26  C    2.819422   5.269079   4.765607   4.385196   4.329111
    27  H    3.859974   6.224120   5.607280   5.153388   5.310829
    28  H    2.352991   5.617964   5.149630   5.032541   4.571757
    29  H    3.062050   4.987567   4.833993   4.108864   3.639422
                   16         17         18         19         20
    16  H    0.000000
    17  H    1.788252   0.000000
    18  C    4.602679   4.131600   0.000000
    19  H    5.161023   4.512353   1.098430   0.000000
    20  H    5.290738   4.682180   1.094069   1.758401   0.000000
    21  H    4.808074   4.727958   1.092890   1.765636   1.769525
    22  C    4.604399   4.660146   3.087195   4.175716   2.801937
    23  H    5.057793   4.718287   2.974313   3.967523   2.370732
    24  H    5.239061   5.461507   4.165386   5.251790   3.812027
    25  H    4.941556   5.119098   2.719237   3.778041   2.545832
    26  C    3.094980   2.966150   4.168165   5.079694   4.183563
    27  H    3.909177   3.963390   5.066694   6.034999   4.951502
    28  H    3.687538   2.992366   3.965952   4.777291   3.810584
    29  H    2.289082   2.322498   4.633368   5.439789   4.855753
                   21         22         23         24         25
    21  H    0.000000
    22  C    3.067918   0.000000
    23  H    3.268245   1.090430   0.000000
    24  H    4.046223   1.100475   1.777601   0.000000
    25  H    2.360865   1.089768   1.795342   1.763376   0.000000
    26  C    4.553509   2.566774   2.728454   2.943434   3.483574
    27  H    5.363592   2.854617   3.062955   2.808539   3.870098
    28  H    4.577056   2.791151   2.509652   3.306728   3.725339
    29  H    5.021631   3.493161   3.737463   3.900965   4.282678
                   26         27         28         29
    26  C    0.000000
    27  H    1.100044   0.000000
    28  H    1.090762   1.770415   0.000000
    29  H    1.088233   1.767724   1.797297   0.000000
 Framework group  C1[X(C8H16Cl3FeO)]
 Deg. of freedom    81
                         Standard orientation:                         
 ---------------------------------------------------------------------
 Center     Atomic      Atomic             Coordinates (Angstroms)
 Number     Number       Type             X           Y           Z
 ---------------------------------------------------------------------
      1          8           0        0.254869    0.293509   -0.827977
      2          6           0        1.060535    1.246825   -0.657282
      3          6           0        3.046348    0.101702    0.459740
      4          6           0        2.546566   -0.978586   -0.179982
      5          6           0        2.927521   -1.305660   -1.596113
      6         26           0       -1.459117   -0.136743    0.021248
      7         17           0       -2.086663   -1.993550   -0.926777
      8          6           0        1.630041   -1.979626    0.455489
      9         17           0       -2.635158    1.638537   -0.491393
     10         17           0       -1.131679   -0.302351    2.188886
     11          1           0        3.771438    0.709638   -0.080582
     12          1           0        2.164535   -2.931414    0.580024
     13          1           0        1.250390   -1.675513    1.430099
     14          1           0        0.776851   -2.192175   -0.199601
     15          1           0        3.367999   -2.310124   -1.637274
     16          1           0        2.037742   -1.332746   -2.238787
     17          1           0        3.654249   -0.602525   -2.011793
     18          6           0        2.936877    0.386310    1.935067
     19          1           0        3.754774   -0.112214    2.472716
     20          1           0        3.028598    1.455746    2.146920
     21          1           0        1.998223    0.034647    2.370578
     22          6           0        0.891115    2.192703    0.491954
     23          1           0        1.776935    2.807416    0.654708
     24          1           0        0.055977    2.852334    0.211819
     25          1           0        0.602521    1.677454    1.407829
     26          6           0        1.830109    1.730922   -1.851842
     27          1           0        1.185196    2.481175   -2.332783
     28          1           0        2.764775    2.221256   -1.576646
     29          1           0        2.002719    0.931942   -2.570234
 ---------------------------------------------------------------------
 Rotational constants (GHZ):           0.5716156           0.3296560           0.3105824
   427 basis functions,  1056 primitive gaussians,   461 cartesian basis functions
    77 alpha electrons       72 beta electrons
       nuclear repulsion energy      1632.9722516676 Hartrees.
 NAtoms=   29 NActive=   29 NUniq=   29 SFac= 1.00D+00 NAtFMM=   60 NAOKFM=F Big=F
 Nuclear repulsion after empirical dispersion term =     1632.9351331557 Hartrees.
 Initial guess from the checkpoint file:  "checkpoint.chk"
 B after Tr=     0.000000    0.000000    0.000000
         Rot=    1.000000    0.000000    0.000000    0.000000 Ang=   0.00 deg.
 Initial guess <Sx>= 0.0000 <Sy>= 0.0000 <Sz>= 2.5000 <S**2>= 8.7628 S= 2.5021
 SCF Done:  E(UPBE1PBE) =  -3033.16727338     A.U. after    1 cycles
            NFock=  1  Conv=0.29D-08     -V/T= 2.0021
 <Sx>= 0.0000 <Sy>= 0.0000 <Sz>= 2.5000 <S**2>= 8.7628 S= 2.5021
 <L.S>= 0.000000000000E+00
 Annihilation of the first spin contaminant:
 S**2 before annihilation     8.7628,   after     8.7501
 1\1\GINC-HOLY7C04409\SP\UPBE1PBE\Jul-CC-pVDZ\C8H16Cl3Fe1O1(6)\EKWAN\11
 -Feb-2020\0\\#t pop=none jul-cc-pvdz guess=read upbe1pbe empiricaldisp
 ersion=gd3bj\\theory_abbreviation pbe0_d3bj\\0,6\O,0,0.254869,0.293509
 ,-0.827977\C,0,1.060535,1.246825,-0.657282\C,0,3.046348,0.101702,0.459
 74\C,0,2.546566,-0.978586,-0.179982\C,0,2.927521,-1.30566,-1.596113\Fe
 ,0,-1.459117,-0.136743,0.021248\Cl,0,-2.086663,-1.99355,-0.926777\C,0,
 1.630041,-1.979626,0.455489\Cl,0,-2.635158,1.638537,-0.491393\Cl,0,-1.
 131679,-0.302351,2.188886\H,0,3.771438,0.709638,-0.080582\H,0,2.164535
 ,-2.931414,0.580024\H,0,1.25039,-1.675513,1.430099\H,0,0.776851,-2.192
 175,-0.199601\H,0,3.367999,-2.310124,-1.637274\H,0,2.037742,-1.332746,
 -2.238787\H,0,3.654249,-0.602525,-2.011793\C,0,2.936877,0.38631,1.9350
 67\H,0,3.754774,-0.112214,2.472716\H,0,3.028598,1.455746,2.14692\H,0,1
 .998223,0.034647,2.370578\C,0,0.891115,2.192703,0.491954\H,0,1.776935,
 2.807416,0.654708\H,0,0.055977,2.852334,0.211819\H,0,0.602521,1.677454
 ,1.407829\C,0,1.830109,1.730922,-1.851842\H,0,1.185196,2.481175,-2.332
 783\H,0,2.764775,2.221256,-1.576646\H,0,2.002719,0.931942,-2.570234\\V
 ersion=ES64L-G16RevA.03\HF=-3033.1672734\S2=8.76277\S2-1=0.\S2A=8.7500
 5\RMSD=2.883e-09\PG=C01 [X(C8H16Cl3Fe1O1)]\\@


 SACRED COWS MAKE GREAT HAMBURGERS -- ROBERT REISNER
 Job cpu time:       0 days  0 hours  4 minutes 24.3 seconds.
 Elapsed time:       0 days  0 hours  1 minutes  6.6 seconds.
 File lengths (MBytes):  RWF=    170 Int=      0 D2E=      0 Chk=     13 Scr=      1
 Normal termination of Gaussian 16 at Tue Feb 11 14:47:11 2020.
 Initial command:
 /n/sw/g16_nehalem/g16/l1.exe "/scratch/Gau-369951.inp" -scrdir="/scratch/"
 Entering Link 1 = /n/sw/g16_nehalem/g16/l1.exe PID=    376678.
  
 Copyright (c) 1988,1990,1992,1993,1995,1998,2003,2009,2016,
            Gaussian, Inc.  All Rights Reserved.
  
 This is part of the Gaussian(R) 16 program.  It is based on
 the Gaussian(R) 09 system (copyright 2009, Gaussian, Inc.),
 the Gaussian(R) 03 system (copyright 2003, Gaussian, Inc.),
 the Gaussian(R) 98 system (copyright 1998, Gaussian, Inc.),
 the Gaussian(R) 94 system (copyright 1995, Gaussian, Inc.),
 the Gaussian 92(TM) system (copyright 1992, Gaussian, Inc.),
 the Gaussian 90(TM) system (copyright 1990, Gaussian, Inc.),
 the Gaussian 88(TM) system (copyright 1988, Gaussian, Inc.),
 the Gaussian 86(TM) system (copyright 1986, Carnegie Mellon
 University), and the Gaussian 82(TM) system (copyright 1983,
 Carnegie Mellon University). Gaussian is a federally registered
 trademark of Gaussian, Inc.
  
 This software contains proprietary and confidential information,
 including trade secrets, belonging to Gaussian, Inc.
  
 This software is provided under written license and may be
 used, copied, transmitted, or stored only in accord with that
 written license.
  
 The following legend is applicable only to US Government
 contracts under FAR:
  
                    RESTRICTED RIGHTS LEGEND
  
 Use, reproduction and disclosure by the US Government is
 subject to restrictions as set forth in subparagraphs (a)
 and (c) of the Commercial Computer Software - Restricted
 Rights clause in FAR 52.227-19.
  
 Gaussian, Inc.
 340 Quinnipiac St., Bldg. 40, Wallingford CT 06492
  
  
 ---------------------------------------------------------------
 Warning -- This program may not be used in any manner that
 competes with the business of Gaussian, Inc. or will provide
 assistance to any competitor of Gaussian, Inc.  The licensee
 of this program is prohibited from giving any competitor of
 Gaussian, Inc. access to this program.  By using this program,
 the user acknowledges that Gaussian, Inc. is engaged in the
 business of creating and licensing software in the field of
 computational chemistry and represents and warrants to the
 licensee that it is not a competitor of Gaussian, Inc. and that
 it will not use this program in any manner prohibited above.
 ---------------------------------------------------------------
  

 Cite this work as:
 Gaussian 16, Revision A.03,
 M. J. Frisch, G. W. Trucks, H. B. Schlegel, G. E. Scuseria, 
 M. A. Robb, J. R. Cheeseman, G. Scalmani, V. Barone, 
 G. A. Petersson, H. Nakatsuji, X. Li, M. Caricato, A. V. Marenich, 
 J. Bloino, B. G. Janesko, R. Gomperts, B. Mennucci, H. P. Hratchian, 
 J. V. Ortiz, A. F. Izmaylov, J. L. Sonnenberg, D. Williams-Young, 
 F. Ding, F. Lipparini, F. Egidi, J. Goings, B. Peng, A. Petrone, 
 T. Henderson, D. Ranasinghe, V. G. Zakrzewski, J. Gao, N. Rega, 
 G. Zheng, W. Liang, M. Hada, M. Ehara, K. Toyota, R. Fukuda, 
 J. Hasegawa, M. Ishida, T. Nakajima, Y. Honda, O. Kitao, H. Nakai, 
 T. Vreven, K. Throssell, J. A. Montgomery, Jr., J. E. Peralta, 
 F. Ogliaro, M. J. Bearpark, J. J. Heyd, E. N. Brothers, K. N. Kudin, 
 V. N. Staroverov, T. A. Keith, R. Kobayashi, J. Normand, 
 K. Raghavachari, A. P. Rendell, J. C. Burant, S. S. Iyengar, 
 J. Tomasi, M. Cossi, J. M. Millam, M. Klene, C. Adamo, R. Cammi, 
 J. W. Ochterski, R. L. Martin, K. Morokuma, O. Farkas, 
 J. B. Foresman, and D. J. Fox, Gaussian, Inc., Wallingford CT, 2016.
 
 ******************************************
 Gaussian 16:  ES64L-G16RevA.03 25-Dec-2016
                11-Feb-2020 
 ******************************************
 %chk=checkpoint.chk
 %mem=3GB
 %nprocshared=4
 Will use up to    4 processors via shared memory.
 -----------------------------------------
 #t pop=none jul-cc-pvdz guess=read ub3lyp
 -----------------------------------------
 -------------------------
 theory_abbreviation b3lyp
 -------------------------
 Symbolic Z-matrix:
 Charge =  0 Multiplicity = 6
 O                     0.25487   0.29351  -0.82798 
 C                     1.06054   1.24683  -0.65728 
 C                     3.04635   0.1017    0.45974 
 C                     2.54657  -0.97859  -0.17998 
 C                     2.92752  -1.30566  -1.59611 
 Fe                   -1.45912  -0.13674   0.02125 
 Cl                   -2.08666  -1.99355  -0.92678 
 C                     1.63004  -1.97963   0.45549 
 Cl                   -2.63516   1.63854  -0.49139 
 Cl                   -1.13168  -0.30235   2.18889 
 H                     3.77144   0.70964  -0.08058 
 H                     2.16453  -2.93141   0.58002 
 H                     1.25039  -1.67551   1.4301 
 H                     0.77685  -2.19218  -0.1996 
 H                     3.368    -2.31012  -1.63727 
 H                     2.03774  -1.33275  -2.23879 
 H                     3.65425  -0.60253  -2.01179 
 C                     2.93688   0.38631   1.93507 
 H                     3.75477  -0.11221   2.47272 
 H                     3.0286    1.45575   2.14692 
 H                     1.99822   0.03465   2.37058 
 C                     0.89112   2.1927    0.49195 
 H                     1.77694   2.80742   0.65471 
 H                     0.05598   2.85233   0.21182 
 H                     0.60252   1.67745   1.40783 
 C                     1.83011   1.73092  -1.85184 
 H                     1.1852    2.48118  -2.33278 
 H                     2.76478   2.22126  -1.57665 
 H                     2.00272   0.93194  -2.57023 
 
                    Distance matrix (angstroms):
                    1          2          3          4          5
     1  O    0.000000
     2  C    1.259780   0.000000
     3  C    3.080156   2.550000   0.000000
     4  C    2.700000   2.718190   1.351314   0.000000
     5  C    3.207872   3.298821   2.494257   1.502508   0.000000
     6  Fe   1.960624   2.953525   4.533028   4.098132   4.819213
     7  Cl   3.274626   4.525209   5.714920   4.801527   5.105217
     8  C    2.950513   3.460142   2.517513   1.498640   2.519277
     9  Cl   3.205409   3.720095   5.962049   5.813482   6.390000
    10  Cl   3.373281   3.912342   4.539726   4.426998   5.640031
    11  H    3.619119   2.823145   1.089628   2.088131   2.659033
    12  H    4.003676   4.495267   3.160990   2.130046   2.821488
    13  H    3.157058   3.596285   2.706576   2.181316   3.479586
    14  H    2.616476   3.480901   3.293512   2.145944   2.713215
    15  H    4.138290   4.351627   3.212138   2.138094   1.097571
    16  H    2.795304   3.179666   3.218225   2.150118   1.097939
    17  H    3.709458   3.461524   2.640825   2.173457   1.093308
    18  C    3.851778   3.313822   1.506511   2.547296   3.915620
    19  H    4.827890   4.347735   2.144691   3.040917   4.320189
    20  H    4.230175   3.432269   2.163406   3.401882   4.652513
    21  H    3.651992   3.393607   2.180450   2.798692   4.288899
    22  C    2.398742   1.498043   3.003057   3.639930   4.554725
    23  H    3.291621   2.161016   2.995048   3.952575   4.827778
    24  H    2.769173   2.083778   4.070597   4.586119   5.366870
    25  H    2.652356   2.158681   3.058457   3.654450   4.829934
    26  C    2.365552   1.501189   3.078475   3.263412   3.238910
    27  H    2.813509   2.084817   4.113874   4.296257   4.233025
    28  H    3.252129   2.167759   2.952738   3.498182   3.530723
    29  H    2.549125   2.155516   3.310469   3.107924   2.609796
                    6          7          8          9         10
     6  Fe   0.000000
     7  Cl   2.177222   0.000000
     8  C    3.623214   3.965443   0.000000
     9  Cl   2.190318   3.698981   5.672708   0.000000
    10  Cl   2.198476   3.671444   3.666744   3.634748   0.000000
    11  H    5.299569   6.506967   3.479238   6.486609   5.496832
    12  H    4.610127   4.606813   1.098678   6.713378   4.512808
    13  H    3.419664   4.097796   1.089259   5.456422   2.852295
    14  H    3.045181   2.961072   1.096473   5.138220   3.594272
    15  H    5.547552   5.509842   2.740326   7.276185   6.238410
    16  H    4.331998   4.378213   2.800678   5.806712   5.541772
    17  H    5.522384   6.005854   3.475817   6.847672   6.375023
    18  C    4.822971   6.252187   3.081335   6.205107   4.134226
    19  H    5.761506   7.015580   3.474323   7.258258   4.898381
    20  H    5.214795   6.892833   4.076602   6.250779   4.516699
    21  H    4.183530   5.627826   2.803644   5.677285   3.153231
    22  C    3.342375   5.329604   4.237413   3.702522   3.632708
    23  H    4.420563   6.362213   4.793437   4.705995   4.525968
    24  H    3.356547   5.419400   5.087720   3.034801   3.907859
    25  H    3.076405   5.114525   3.916246   3.753815   2.745383
    26  C    4.220858   5.483479   4.374011   4.668829   5.406835
    27  H    4.403107   5.718835   5.279308   4.323871   5.793222
    28  H    5.094574   6.459363   4.802562   5.538647   5.977472
    29  H    4.454456   5.289849   4.215580   5.131351   5.830708
                   11         12         13         14         15
    11  H    0.000000
    12  H    4.034327   0.000000
    13  H    3.785074   1.770756   0.000000
    14  H    4.171599   1.754980   1.774007   0.000000
    15  H    3.421259   2.598218   3.780976   2.965614   0.000000
    16  H    3.440186   3.243071   3.768042   2.546909   1.756892
    17  H    2.337751   3.789523   4.333181   3.753724   1.771468
    18  C    2.205419   3.666053   2.711152   3.983856   4.496470
    19  H    2.682359   3.749538   3.130957   4.509495   4.676796
    20  H    2.463788   4.738031   3.671599   4.887111   5.349495
    21  H    3.099692   3.468611   2.090072   3.613351   4.841189
    22  C    3.289915   5.280713   3.996535   4.440547   5.562735
    23  H    2.986531   5.752389   4.579862   5.169712   5.828712
    24  H    4.298988   6.167117   4.838618   5.112338   6.406216
    25  H    3.632364   4.936275   3.415058   4.193835   5.728988
    26  C    2.819422   5.269079   4.765607   4.385196   4.329111
    27  H    3.859974   6.224120   5.607280   5.153388   5.310829
    28  H    2.352991   5.617964   5.149630   5.032541   4.571757
    29  H    3.062050   4.987567   4.833993   4.108864   3.639422
                   16         17         18         19         20
    16  H    0.000000
    17  H    1.788252   0.000000
    18  C    4.602679   4.131600   0.000000
    19  H    5.161023   4.512353   1.098430   0.000000
    20  H    5.290738   4.682180   1.094069   1.758401   0.000000
    21  H    4.808074   4.727958   1.092890   1.765636   1.769525
    22  C    4.604399   4.660146   3.087195   4.175716   2.801937
    23  H    5.057793   4.718287   2.974313   3.967523   2.370732
    24  H    5.239061   5.461507   4.165386   5.251790   3.812027
    25  H    4.941556   5.119098   2.719237   3.778041   2.545832
    26  C    3.094980   2.966150   4.168165   5.079694   4.183563
    27  H    3.909177   3.963390   5.066694   6.034999   4.951502
    28  H    3.687538   2.992366   3.965952   4.777291   3.810584
    29  H    2.289082   2.322498   4.633368   5.439789   4.855753
                   21         22         23         24         25
    21  H    0.000000
    22  C    3.067918   0.000000
    23  H    3.268245   1.090430   0.000000
    24  H    4.046223   1.100475   1.777601   0.000000
    25  H    2.360865   1.089768   1.795342   1.763376   0.000000
    26  C    4.553509   2.566774   2.728454   2.943434   3.483574
    27  H    5.363592   2.854617   3.062955   2.808539   3.870098
    28  H    4.577056   2.791151   2.509652   3.306728   3.725339
    29  H    5.021631   3.493161   3.737463   3.900965   4.282678
                   26         27         28         29
    26  C    0.000000
    27  H    1.100044   0.000000
    28  H    1.090762   1.770415   0.000000
    29  H    1.088233   1.767724   1.797297   0.000000
 Framework group  C1[X(C8H16Cl3FeO)]
 Deg. of freedom    81
                         Standard orientation:                         
 ---------------------------------------------------------------------
 Center     Atomic      Atomic             Coordinates (Angstroms)
 Number     Number       Type             X           Y           Z
 ---------------------------------------------------------------------
      1          8           0        0.254869    0.293509   -0.827977
      2          6           0        1.060535    1.246825   -0.657282
      3          6           0        3.046348    0.101702    0.459740
      4          6           0        2.546566   -0.978586   -0.179982
      5          6           0        2.927521   -1.305660   -1.596113
      6         26           0       -1.459117   -0.136743    0.021248
      7         17           0       -2.086663   -1.993550   -0.926777
      8          6           0        1.630041   -1.979626    0.455489
      9         17           0       -2.635158    1.638537   -0.491393
     10         17           0       -1.131679   -0.302351    2.188886
     11          1           0        3.771438    0.709638   -0.080582
     12          1           0        2.164535   -2.931414    0.580024
     13          1           0        1.250390   -1.675513    1.430099
     14          1           0        0.776851   -2.192175   -0.199601
     15          1           0        3.367999   -2.310124   -1.637274
     16          1           0        2.037742   -1.332746   -2.238787
     17          1           0        3.654249   -0.602525   -2.011793
     18          6           0        2.936877    0.386310    1.935067
     19          1           0        3.754774   -0.112214    2.472716
     20          1           0        3.028598    1.455746    2.146920
     21          1           0        1.998223    0.034647    2.370578
     22          6           0        0.891115    2.192703    0.491954
     23          1           0        1.776935    2.807416    0.654708
     24          1           0        0.055977    2.852334    0.211819
     25          1           0        0.602521    1.677454    1.407829
     26          6           0        1.830109    1.730922   -1.851842
     27          1           0        1.185196    2.481175   -2.332783
     28          1           0        2.764775    2.221256   -1.576646
     29          1           0        2.002719    0.931942   -2.570234
 ---------------------------------------------------------------------
 Rotational constants (GHZ):           0.5716156           0.3296560           0.3105824
   427 basis functions,  1056 primitive gaussians,   461 cartesian basis functions
    77 alpha electrons       72 beta electrons
       nuclear repulsion energy      1632.9722516676 Hartrees.
 NAtoms=   29 NActive=   29 NUniq=   29 SFac= 1.00D+00 NAtFMM=   60 NAOKFM=F Big=F
 Initial guess from the checkpoint file:  "checkpoint.chk"
 B after Tr=     0.000000    0.000000    0.000000
         Rot=    1.000000    0.000000    0.000000    0.000000 Ang=   0.00 deg.
 Initial guess <Sx>= 0.0000 <Sy>= 0.0000 <Sz>= 2.5000 <S**2>= 8.7628 S= 2.5021
 SCF Done:  E(UB3LYP) =  -3034.34729999     A.U. after   13 cycles
            NFock= 13  Conv=0.71D-08     -V/T= 2.0024
 <Sx>= 0.0000 <Sy>= 0.0000 <Sz>= 2.5000 <S**2>= 8.7620 S= 2.5020
 <L.S>= 0.000000000000E+00
 Annihilation of the first spin contaminant:
 S**2 before annihilation     8.7620,   after     8.7500
 1\1\GINC-HOLY7C04409\SP\UB3LYP\Jul-CC-pVDZ\C8H16Cl3Fe1O1(6)\EKWAN\11-F
 eb-2020\0\\#t pop=none jul-cc-pvdz guess=read ub3lyp\\theory_abbreviat
 ion b3lyp\\0,6\O,0,0.254869,0.293509,-0.827977\C,0,1.060535,1.246825,-
 0.657282\C,0,3.046348,0.101702,0.45974\C,0,2.546566,-0.978586,-0.17998
 2\C,0,2.927521,-1.30566,-1.596113\Fe,0,-1.459117,-0.136743,0.021248\Cl
 ,0,-2.086663,-1.99355,-0.926777\C,0,1.630041,-1.979626,0.455489\Cl,0,-
 2.635158,1.638537,-0.491393\Cl,0,-1.131679,-0.302351,2.188886\H,0,3.77
 1438,0.709638,-0.080582\H,0,2.164535,-2.931414,0.580024\H,0,1.25039,-1
 .675513,1.430099\H,0,0.776851,-2.192175,-0.199601\H,0,3.367999,-2.3101
 24,-1.637274\H,0,2.037742,-1.332746,-2.238787\H,0,3.654249,-0.602525,-
 2.011793\C,0,2.936877,0.38631,1.935067\H,0,3.754774,-0.112214,2.472716
 \H,0,3.028598,1.455746,2.14692\H,0,1.998223,0.034647,2.370578\C,0,0.89
 1115,2.192703,0.491954\H,0,1.776935,2.807416,0.654708\H,0,0.055977,2.8
 52334,0.211819\H,0,0.602521,1.677454,1.407829\C,0,1.830109,1.730922,-1
 .851842\H,0,1.185196,2.481175,-2.332783\H,0,2.764775,2.221256,-1.57664
 6\H,0,2.002719,0.931942,-2.570234\\Version=ES64L-G16RevA.03\HF=-3034.3
 473\S2=8.762048\S2-1=0.\S2A=8.750045\RMSD=7.134e-09\PG=C01 [X(C8H16Cl3
 Fe1O1)]\\@


 ERROR IS THE FORCE THAT WELDS MEN TOGETHER....
 TRUTH IS COMMUNICATED TO MEN ONLY BY DEEDS OF TRUTH.
           TOLSTOI,MY RELIGION
 Job cpu time:       0 days  0 hours 52 minutes  2.5 seconds.
 Elapsed time:       0 days  0 hours 13 minutes  4.1 seconds.
 File lengths (MBytes):  RWF=    174 Int=      0 D2E=      0 Chk=     13 Scr=      1
 Normal termination of Gaussian 16 at Tue Feb 11 15:00:16 2020.
 Initial command:
 /n/sw/g16_nehalem/g16/l1.exe "/scratch/Gau-369951.inp" -scrdir="/scratch/"
 Entering Link 1 = /n/sw/g16_nehalem/g16/l1.exe PID=    381536.
  
 Copyright (c) 1988,1990,1992,1993,1995,1998,2003,2009,2016,
            Gaussian, Inc.  All Rights Reserved.
  
 This is part of the Gaussian(R) 16 program.  It is based on
 the Gaussian(R) 09 system (copyright 2009, Gaussian, Inc.),
 the Gaussian(R) 03 system (copyright 2003, Gaussian, Inc.),
 the Gaussian(R) 98 system (copyright 1998, Gaussian, Inc.),
 the Gaussian(R) 94 system (copyright 1995, Gaussian, Inc.),
 the Gaussian 92(TM) system (copyright 1992, Gaussian, Inc.),
 the Gaussian 90(TM) system (copyright 1990, Gaussian, Inc.),
 the Gaussian 88(TM) system (copyright 1988, Gaussian, Inc.),
 the Gaussian 86(TM) system (copyright 1986, Carnegie Mellon
 University), and the Gaussian 82(TM) system (copyright 1983,
 Carnegie Mellon University). Gaussian is a federally registered
 trademark of Gaussian, Inc.
  
 This software contains proprietary and confidential information,
 including trade secrets, belonging to Gaussian, Inc.
  
 This software is provided under written license and may be
 used, copied, transmitted, or stored only in accord with that
 written license.
  
 The following legend is applicable only to US Government
 contracts under FAR:
  
                    RESTRICTED RIGHTS LEGEND
  
 Use, reproduction and disclosure by the US Government is
 subject to restrictions as set forth in subparagraphs (a)
 and (c) of the Commercial Computer Software - Restricted
 Rights clause in FAR 52.227-19.
  
 Gaussian, Inc.
 340 Quinnipiac St., Bldg. 40, Wallingford CT 06492
  
  
 ---------------------------------------------------------------
 Warning -- This program may not be used in any manner that
 competes with the business of Gaussian, Inc. or will provide
 assistance to any competitor of Gaussian, Inc.  The licensee
 of this program is prohibited from giving any competitor of
 Gaussian, Inc. access to this program.  By using this program,
 the user acknowledges that Gaussian, Inc. is engaged in the
 business of creating and licensing software in the field of
 computational chemistry and represents and warrants to the
 licensee that it is not a competitor of Gaussian, Inc. and that
 it will not use this program in any manner prohibited above.
 ---------------------------------------------------------------
  

 Cite this work as:
 Gaussian 16, Revision A.03,
 M. J. Frisch, G. W. Trucks, H. B. Schlegel, G. E. Scuseria, 
 M. A. Robb, J. R. Cheeseman, G. Scalmani, V. Barone, 
 G. A. Petersson, H. Nakatsuji, X. Li, M. Caricato, A. V. Marenich, 
 J. Bloino, B. G. Janesko, R. Gomperts, B. Mennucci, H. P. Hratchian, 
 J. V. Ortiz, A. F. Izmaylov, J. L. Sonnenberg, D. Williams-Young, 
 F. Ding, F. Lipparini, F. Egidi, J. Goings, B. Peng, A. Petrone, 
 T. Henderson, D. Ranasinghe, V. G. Zakrzewski, J. Gao, N. Rega, 
 G. Zheng, W. Liang, M. Hada, M. Ehara, K. Toyota, R. Fukuda, 
 J. Hasegawa, M. Ishida, T. Nakajima, Y. Honda, O. Kitao, H. Nakai, 
 T. Vreven, K. Throssell, J. A. Montgomery, Jr., J. E. Peralta, 
 F. Ogliaro, M. J. Bearpark, J. J. Heyd, E. N. Brothers, K. N. Kudin, 
 V. N. Staroverov, T. A. Keith, R. Kobayashi, J. Normand, 
 K. Raghavachari, A. P. Rendell, J. C. Burant, S. S. Iyengar, 
 J. Tomasi, M. Cossi, J. M. Millam, M. Klene, C. Adamo, R. Cammi, 
 J. W. Ochterski, R. L. Martin, K. Morokuma, O. Farkas, 
 J. B. Foresman, and D. J. Fox, Gaussian, Inc., Wallingford CT, 2016.
 
 ******************************************
 Gaussian 16:  ES64L-G16RevA.03 25-Dec-2016
                11-Feb-2020 
 ******************************************
 %chk=checkpoint.chk
 %mem=3GB
 %nprocshared=4
 Will use up to    4 processors via shared memory.
 -------------------------------------------------------------------
 #t pop=none jul-cc-pvdz guess=read ub3lyp empiricaldispersion=gd3bj
 -------------------------------------------------------------------
 ------------------------------
 theory_abbreviation b3lyp_d3bj
 ------------------------------
 Symbolic Z-matrix:
 Charge =  0 Multiplicity = 6
 O                     0.25487   0.29351  -0.82798 
 C                     1.06054   1.24683  -0.65728 
 C                     3.04635   0.1017    0.45974 
 C                     2.54657  -0.97859  -0.17998 
 C                     2.92752  -1.30566  -1.59611 
 Fe                   -1.45912  -0.13674   0.02125 
 Cl                   -2.08666  -1.99355  -0.92678 
 C                     1.63004  -1.97963   0.45549 
 Cl                   -2.63516   1.63854  -0.49139 
 Cl                   -1.13168  -0.30235   2.18889 
 H                     3.77144   0.70964  -0.08058 
 H                     2.16453  -2.93141   0.58002 
 H                     1.25039  -1.67551   1.4301 
 H                     0.77685  -2.19218  -0.1996 
 H                     3.368    -2.31012  -1.63727 
 H                     2.03774  -1.33275  -2.23879 
 H                     3.65425  -0.60253  -2.01179 
 C                     2.93688   0.38631   1.93507 
 H                     3.75477  -0.11221   2.47272 
 H                     3.0286    1.45575   2.14692 
 H                     1.99822   0.03465   2.37058 
 C                     0.89112   2.1927    0.49195 
 H                     1.77694   2.80742   0.65471 
 H                     0.05598   2.85233   0.21182 
 H                     0.60252   1.67745   1.40783 
 C                     1.83011   1.73092  -1.85184 
 H                     1.1852    2.48118  -2.33278 
 H                     2.76478   2.22126  -1.57665 
 H                     2.00272   0.93194  -2.57023 
 
                    Distance matrix (angstroms):
                    1          2          3          4          5
     1  O    0.000000
     2  C    1.259780   0.000000
     3  C    3.080156   2.550000   0.000000
     4  C    2.700000   2.718190   1.351314   0.000000
     5  C    3.207872   3.298821   2.494257   1.502508   0.000000
     6  Fe   1.960624   2.953525   4.533028   4.098132   4.819213
     7  Cl   3.274626   4.525209   5.714920   4.801527   5.105217
     8  C    2.950513   3.460142   2.517513   1.498640   2.519277
     9  Cl   3.205409   3.720095   5.962049   5.813482   6.390000
    10  Cl   3.373281   3.912342   4.539726   4.426998   5.640031
    11  H    3.619119   2.823145   1.089628   2.088131   2.659033
    12  H    4.003676   4.495267   3.160990   2.130046   2.821488
    13  H    3.157058   3.596285   2.706576   2.181316   3.479586
    14  H    2.616476   3.480901   3.293512   2.145944   2.713215
    15  H    4.138290   4.351627   3.212138   2.138094   1.097571
    16  H    2.795304   3.179666   3.218225   2.150118   1.097939
    17  H    3.709458   3.461524   2.640825   2.173457   1.093308
    18  C    3.851778   3.313822   1.506511   2.547296   3.915620
    19  H    4.827890   4.347735   2.144691   3.040917   4.320189
    20  H    4.230175   3.432269   2.163406   3.401882   4.652513
    21  H    3.651992   3.393607   2.180450   2.798692   4.288899
    22  C    2.398742   1.498043   3.003057   3.639930   4.554725
    23  H    3.291621   2.161016   2.995048   3.952575   4.827778
    24  H    2.769173   2.083778   4.070597   4.586119   5.366870
    25  H    2.652356   2.158681   3.058457   3.654450   4.829934
    26  C    2.365552   1.501189   3.078475   3.263412   3.238910
    27  H    2.813509   2.084817   4.113874   4.296257   4.233025
    28  H    3.252129   2.167759   2.952738   3.498182   3.530723
    29  H    2.549125   2.155516   3.310469   3.107924   2.609796
                    6          7          8          9         10
     6  Fe   0.000000
     7  Cl   2.177222   0.000000
     8  C    3.623214   3.965443   0.000000
     9  Cl   2.190318   3.698981   5.672708   0.000000
    10  Cl   2.198476   3.671444   3.666744   3.634748   0.000000
    11  H    5.299569   6.506967   3.479238   6.486609   5.496832
    12  H    4.610127   4.606813   1.098678   6.713378   4.512808
    13  H    3.419664   4.097796   1.089259   5.456422   2.852295
    14  H    3.045181   2.961072   1.096473   5.138220   3.594272
    15  H    5.547552   5.509842   2.740326   7.276185   6.238410
    16  H    4.331998   4.378213   2.800678   5.806712   5.541772
    17  H    5.522384   6.005854   3.475817   6.847672   6.375023
    18  C    4.822971   6.252187   3.081335   6.205107   4.134226
    19  H    5.761506   7.015580   3.474323   7.258258   4.898381
    20  H    5.214795   6.892833   4.076602   6.250779   4.516699
    21  H    4.183530   5.627826   2.803644   5.677285   3.153231
    22  C    3.342375   5.329604   4.237413   3.702522   3.632708
    23  H    4.420563   6.362213   4.793437   4.705995   4.525968
    24  H    3.356547   5.419400   5.087720   3.034801   3.907859
    25  H    3.076405   5.114525   3.916246   3.753815   2.745383
    26  C    4.220858   5.483479   4.374011   4.668829   5.406835
    27  H    4.403107   5.718835   5.279308   4.323871   5.793222
    28  H    5.094574   6.459363   4.802562   5.538647   5.977472
    29  H    4.454456   5.289849   4.215580   5.131351   5.830708
                   11         12         13         14         15
    11  H    0.000000
    12  H    4.034327   0.000000
    13  H    3.785074   1.770756   0.000000
    14  H    4.171599   1.754980   1.774007   0.000000
    15  H    3.421259   2.598218   3.780976   2.965614   0.000000
    16  H    3.440186   3.243071   3.768042   2.546909   1.756892
    17  H    2.337751   3.789523   4.333181   3.753724   1.771468
    18  C    2.205419   3.666053   2.711152   3.983856   4.496470
    19  H    2.682359   3.749538   3.130957   4.509495   4.676796
    20  H    2.463788   4.738031   3.671599   4.887111   5.349495
    21  H    3.099692   3.468611   2.090072   3.613351   4.841189
    22  C    3.289915   5.280713   3.996535   4.440547   5.562735
    23  H    2.986531   5.752389   4.579862   5.169712   5.828712
    24  H    4.298988   6.167117   4.838618   5.112338   6.406216
    25  H    3.632364   4.936275   3.415058   4.193835   5.728988
    26  C    2.819422   5.269079   4.765607   4.385196   4.329111
    27  H    3.859974   6.224120   5.607280   5.153388   5.310829
    28  H    2.352991   5.617964   5.149630   5.032541   4.571757
    29  H    3.062050   4.987567   4.833993   4.108864   3.639422
                   16         17         18         19         20
    16  H    0.000000
    17  H    1.788252   0.000000
    18  C    4.602679   4.131600   0.000000
    19  H    5.161023   4.512353   1.098430   0.000000
    20  H    5.290738   4.682180   1.094069   1.758401   0.000000
    21  H    4.808074   4.727958   1.092890   1.765636   1.769525
    22  C    4.604399   4.660146   3.087195   4.175716   2.801937
    23  H    5.057793   4.718287   2.974313   3.967523   2.370732
    24  H    5.239061   5.461507   4.165386   5.251790   3.812027
    25  H    4.941556   5.119098   2.719237   3.778041   2.545832
    26  C    3.094980   2.966150   4.168165   5.079694   4.183563
    27  H    3.909177   3.963390   5.066694   6.034999   4.951502
    28  H    3.687538   2.992366   3.965952   4.777291   3.810584
    29  H    2.289082   2.322498   4.633368   5.439789   4.855753
                   21         22         23         24         25
    21  H    0.000000
    22  C    3.067918   0.000000
    23  H    3.268245   1.090430   0.000000
    24  H    4.046223   1.100475   1.777601   0.000000
    25  H    2.360865   1.089768   1.795342   1.763376   0.000000
    26  C    4.553509   2.566774   2.728454   2.943434   3.483574
    27  H    5.363592   2.854617   3.062955   2.808539   3.870098
    28  H    4.577056   2.791151   2.509652   3.306728   3.725339
    29  H    5.021631   3.493161   3.737463   3.900965   4.282678
                   26         27         28         29
    26  C    0.000000
    27  H    1.100044   0.000000
    28  H    1.090762   1.770415   0.000000
    29  H    1.088233   1.767724   1.797297   0.000000
 Framework group  C1[X(C8H16Cl3FeO)]
 Deg. of freedom    81
                         Standard orientation:                         
 ---------------------------------------------------------------------
 Center     Atomic      Atomic             Coordinates (Angstroms)
 Number     Number       Type             X           Y           Z
 ---------------------------------------------------------------------
      1          8           0        0.254869    0.293509   -0.827977
      2          6           0        1.060535    1.246825   -0.657282
      3          6           0        3.046348    0.101702    0.459740
      4          6           0        2.546566   -0.978586   -0.179982
      5          6           0        2.927521   -1.305660   -1.596113
      6         26           0       -1.459117   -0.136743    0.021248
      7         17           0       -2.086663   -1.993550   -0.926777
      8          6           0        1.630041   -1.979626    0.455489
      9         17           0       -2.635158    1.638537   -0.491393
     10         17           0       -1.131679   -0.302351    2.188886
     11          1           0        3.771438    0.709638   -0.080582
     12          1           0        2.164535   -2.931414    0.580024
     13          1           0        1.250390   -1.675513    1.430099
     14          1           0        0.776851   -2.192175   -0.199601
     15          1           0        3.367999   -2.310124   -1.637274
     16          1           0        2.037742   -1.332746   -2.238787
     17          1           0        3.654249   -0.602525   -2.011793
     18          6           0        2.936877    0.386310    1.935067
     19          1           0        3.754774   -0.112214    2.472716
     20          1           0        3.028598    1.455746    2.146920
     21          1           0        1.998223    0.034647    2.370578
     22          6           0        0.891115    2.192703    0.491954
     23          1           0        1.776935    2.807416    0.654708
     24          1           0        0.055977    2.852334    0.211819
     25          1           0        0.602521    1.677454    1.407829
     26          6           0        1.830109    1.730922   -1.851842
     27          1           0        1.185196    2.481175   -2.332783
     28          1           0        2.764775    2.221256   -1.576646
     29          1           0        2.002719    0.931942   -2.570234
 ---------------------------------------------------------------------
 Rotational constants (GHZ):           0.5716156           0.3296560           0.3105824
   427 basis functions,  1056 primitive gaussians,   461 cartesian basis functions
    77 alpha electrons       72 beta electrons
       nuclear repulsion energy      1632.9722516676 Hartrees.
 NAtoms=   29 NActive=   29 NUniq=   29 SFac= 1.00D+00 NAtFMM=   60 NAOKFM=F Big=F
 Nuclear repulsion after empirical dispersion term =     1632.9033129329 Hartrees.
 Initial guess from the checkpoint file:  "checkpoint.chk"
 B after Tr=     0.000000    0.000000    0.000000
         Rot=    1.000000    0.000000    0.000000    0.000000 Ang=   0.00 deg.
 Initial guess <Sx>= 0.0000 <Sy>= 0.0000 <Sz>= 2.5000 <S**2>= 8.7620 S= 2.5020
 SCF Done:  E(UB3LYP) =  -3034.41623872     A.U. after    1 cycles
            NFock=  1  Conv=0.49D-08     -V/T= 2.0024
 <Sx>= 0.0000 <Sy>= 0.0000 <Sz>= 2.5000 <S**2>= 8.7620 S= 2.5020
 <L.S>= 0.000000000000E+00
 Annihilation of the first spin contaminant:
 S**2 before annihilation     8.7620,   after     8.7500
 1\1\GINC-HOLY7C04409\SP\UB3LYP\Jul-CC-pVDZ\C8H16Cl3Fe1O1(6)\EKWAN\11-F
 eb-2020\0\\#t pop=none jul-cc-pvdz guess=read ub3lyp empiricaldispersi
 on=gd3bj\\theory_abbreviation b3lyp_d3bj\\0,6\O,0,0.254869,0.293509,-0
 .827977\C,0,1.060535,1.246825,-0.657282\C,0,3.046348,0.101702,0.45974\
 C,0,2.546566,-0.978586,-0.179982\C,0,2.927521,-1.30566,-1.596113\Fe,0,
 -1.459117,-0.136743,0.021248\Cl,0,-2.086663,-1.99355,-0.926777\C,0,1.6
 30041,-1.979626,0.455489\Cl,0,-2.635158,1.638537,-0.491393\Cl,0,-1.131
 679,-0.302351,2.188886\H,0,3.771438,0.709638,-0.080582\H,0,2.164535,-2
 .931414,0.580024\H,0,1.25039,-1.675513,1.430099\H,0,0.776851,-2.192175
 ,-0.199601\H,0,3.367999,-2.310124,-1.637274\H,0,2.037742,-1.332746,-2.
 238787\H,0,3.654249,-0.602525,-2.011793\C,0,2.936877,0.38631,1.935067\
 H,0,3.754774,-0.112214,2.472716\H,0,3.028598,1.455746,2.14692\H,0,1.99
 8223,0.034647,2.370578\C,0,0.891115,2.192703,0.491954\H,0,1.776935,2.8
 07416,0.654708\H,0,0.055977,2.852334,0.211819\H,0,0.602521,1.677454,1.
 407829\C,0,1.830109,1.730922,-1.851842\H,0,1.185196,2.481175,-2.332783
 \H,0,2.764775,2.221256,-1.576646\H,0,2.002719,0.931942,-2.570234\\Vers
 ion=ES64L-G16RevA.03\HF=-3034.4162387\S2=8.762048\S2-1=0.\S2A=8.750045
 \RMSD=4.854e-09\PG=C01 [X(C8H16Cl3Fe1O1)]\\@


 MY DESCRIPTION OF EXPERIENCE IS NOT WHAT HAPPENS
 TO A MAN.  EXPERIENCE IS WHAT A MAN DOES WITH WHAT
 HAPPENS TO HIM.
                         - CHUCK KNOX, SEATTLE SEAHAWKS, 1985
 Job cpu time:       0 days  0 hours  4 minutes 19.5 seconds.
 Elapsed time:       0 days  0 hours  1 minutes  5.3 seconds.
 File lengths (MBytes):  RWF=    170 Int=      0 D2E=      0 Chk=     13 Scr=      1
 Normal termination of Gaussian 16 at Tue Feb 11 15:01:22 2020.
 Initial command:
 /n/sw/g16_nehalem/g16/l1.exe "/scratch/Gau-369951.inp" -scrdir="/scratch/"
 Entering Link 1 = /n/sw/g16_nehalem/g16/l1.exe PID=    381911.
  
 Copyright (c) 1988,1990,1992,1993,1995,1998,2003,2009,2016,
            Gaussian, Inc.  All Rights Reserved.
  
 This is part of the Gaussian(R) 16 program.  It is based on
 the Gaussian(R) 09 system (copyright 2009, Gaussian, Inc.),
 the Gaussian(R) 03 system (copyright 2003, Gaussian, Inc.),
 the Gaussian(R) 98 system (copyright 1998, Gaussian, Inc.),
 the Gaussian(R) 94 system (copyright 1995, Gaussian, Inc.),
 the Gaussian 92(TM) system (copyright 1992, Gaussian, Inc.),
 the Gaussian 90(TM) system (copyright 1990, Gaussian, Inc.),
 the Gaussian 88(TM) system (copyright 1988, Gaussian, Inc.),
 the Gaussian 86(TM) system (copyright 1986, Carnegie Mellon
 University), and the Gaussian 82(TM) system (copyright 1983,
 Carnegie Mellon University). Gaussian is a federally registered
 trademark of Gaussian, Inc.
  
 This software contains proprietary and confidential information,
 including trade secrets, belonging to Gaussian, Inc.
  
 This software is provided under written license and may be
 used, copied, transmitted, or stored only in accord with that
 written license.
  
 The following legend is applicable only to US Government
 contracts under FAR:
  
                    RESTRICTED RIGHTS LEGEND
  
 Use, reproduction and disclosure by the US Government is
 subject to restrictions as set forth in subparagraphs (a)
 and (c) of the Commercial Computer Software - Restricted
 Rights clause in FAR 52.227-19.
  
 Gaussian, Inc.
 340 Quinnipiac St., Bldg. 40, Wallingford CT 06492
  
  
 ---------------------------------------------------------------
 Warning -- This program may not be used in any manner that
 competes with the business of Gaussian, Inc. or will provide
 assistance to any competitor of Gaussian, Inc.  The licensee
 of this program is prohibited from giving any competitor of
 Gaussian, Inc. access to this program.  By using this program,
 the user acknowledges that Gaussian, Inc. is engaged in the
 business of creating and licensing software in the field of
 computational chemistry and represents and warrants to the
 licensee that it is not a competitor of Gaussian, Inc. and that
 it will not use this program in any manner prohibited above.
 ---------------------------------------------------------------
  

 Cite this work as:
 Gaussian 16, Revision A.03,
 M. J. Frisch, G. W. Trucks, H. B. Schlegel, G. E. Scuseria, 
 M. A. Robb, J. R. Cheeseman, G. Scalmani, V. Barone, 
 G. A. Petersson, H. Nakatsuji, X. Li, M. Caricato, A. V. Marenich, 
 J. Bloino, B. G. Janesko, R. Gomperts, B. Mennucci, H. P. Hratchian, 
 J. V. Ortiz, A. F. Izmaylov, J. L. Sonnenberg, D. Williams-Young, 
 F. Ding, F. Lipparini, F. Egidi, J. Goings, B. Peng, A. Petrone, 
 T. Henderson, D. Ranasinghe, V. G. Zakrzewski, J. Gao, N. Rega, 
 G. Zheng, W. Liang, M. Hada, M. Ehara, K. Toyota, R. Fukuda, 
 J. Hasegawa, M. Ishida, T. Nakajima, Y. Honda, O. Kitao, H. Nakai, 
 T. Vreven, K. Throssell, J. A. Montgomery, Jr., J. E. Peralta, 
 F. Ogliaro, M. J. Bearpark, J. J. Heyd, E. N. Brothers, K. N. Kudin, 
 V. N. Staroverov, T. A. Keith, R. Kobayashi, J. Normand, 
 K. Raghavachari, A. P. Rendell, J. C. Burant, S. S. Iyengar, 
 J. Tomasi, M. Cossi, J. M. Millam, M. Klene, C. Adamo, R. Cammi, 
 J. W. Ochterski, R. L. Martin, K. Morokuma, O. Farkas, 
 J. B. Foresman, and D. J. Fox, Gaussian, Inc., Wallingford CT, 2016.
 
 ******************************************
 Gaussian 16:  ES64L-G16RevA.03 25-Dec-2016
                11-Feb-2020 
 ******************************************
 %chk=checkpoint.chk
 %mem=3GB
 %nprocshared=4
 Will use up to    4 processors via shared memory.
 ----------------------------------------
 #t pop=none jul-cc-pvdz guess=read ub97d
 ----------------------------------------
 ------------------------
 theory_abbreviation b97d
 ------------------------
 Symbolic Z-matrix:
 Charge =  0 Multiplicity = 6
 O                     0.25487   0.29351  -0.82798 
 C                     1.06054   1.24683  -0.65728 
 C                     3.04635   0.1017    0.45974 
 C                     2.54657  -0.97859  -0.17998 
 C                     2.92752  -1.30566  -1.59611 
 Fe                   -1.45912  -0.13674   0.02125 
 Cl                   -2.08666  -1.99355  -0.92678 
 C                     1.63004  -1.97963   0.45549 
 Cl                   -2.63516   1.63854  -0.49139 
 Cl                   -1.13168  -0.30235   2.18889 
 H                     3.77144   0.70964  -0.08058 
 H                     2.16453  -2.93141   0.58002 
 H                     1.25039  -1.67551   1.4301 
 H                     0.77685  -2.19218  -0.1996 
 H                     3.368    -2.31012  -1.63727 
 H                     2.03774  -1.33275  -2.23879 
 H                     3.65425  -0.60253  -2.01179 
 C                     2.93688   0.38631   1.93507 
 H                     3.75477  -0.11221   2.47272 
 H                     3.0286    1.45575   2.14692 
 H                     1.99822   0.03465   2.37058 
 C                     0.89112   2.1927    0.49195 
 H                     1.77694   2.80742   0.65471 
 H                     0.05598   2.85233   0.21182 
 H                     0.60252   1.67745   1.40783 
 C                     1.83011   1.73092  -1.85184 
 H                     1.1852    2.48118  -2.33278 
 H                     2.76478   2.22126  -1.57665 
 H                     2.00272   0.93194  -2.57023 
 
                    Distance matrix (angstroms):
                    1          2          3          4          5
     1  O    0.000000
     2  C    1.259780   0.000000
     3  C    3.080156   2.550000   0.000000
     4  C    2.700000   2.718190   1.351314   0.000000
     5  C    3.207872   3.298821   2.494257   1.502508   0.000000
     6  Fe   1.960624   2.953525   4.533028   4.098132   4.819213
     7  Cl   3.274626   4.525209   5.714920   4.801527   5.105217
     8  C    2.950513   3.460142   2.517513   1.498640   2.519277
     9  Cl   3.205409   3.720095   5.962049   5.813482   6.390000
    10  Cl   3.373281   3.912342   4.539726   4.426998   5.640031
    11  H    3.619119   2.823145   1.089628   2.088131   2.659033
    12  H    4.003676   4.495267   3.160990   2.130046   2.821488
    13  H    3.157058   3.596285   2.706576   2.181316   3.479586
    14  H    2.616476   3.480901   3.293512   2.145944   2.713215
    15  H    4.138290   4.351627   3.212138   2.138094   1.097571
    16  H    2.795304   3.179666   3.218225   2.150118   1.097939
    17  H    3.709458   3.461524   2.640825   2.173457   1.093308
    18  C    3.851778   3.313822   1.506511   2.547296   3.915620
    19  H    4.827890   4.347735   2.144691   3.040917   4.320189
    20  H    4.230175   3.432269   2.163406   3.401882   4.652513
    21  H    3.651992   3.393607   2.180450   2.798692   4.288899
    22  C    2.398742   1.498043   3.003057   3.639930   4.554725
    23  H    3.291621   2.161016   2.995048   3.952575   4.827778
    24  H    2.769173   2.083778   4.070597   4.586119   5.366870
    25  H    2.652356   2.158681   3.058457   3.654450   4.829934
    26  C    2.365552   1.501189   3.078475   3.263412   3.238910
    27  H    2.813509   2.084817   4.113874   4.296257   4.233025
    28  H    3.252129   2.167759   2.952738   3.498182   3.530723
    29  H    2.549125   2.155516   3.310469   3.107924   2.609796
                    6          7          8          9         10
     6  Fe   0.000000
     7  Cl   2.177222   0.000000
     8  C    3.623214   3.965443   0.000000
     9  Cl   2.190318   3.698981   5.672708   0.000000
    10  Cl   2.198476   3.671444   3.666744   3.634748   0.000000
    11  H    5.299569   6.506967   3.479238   6.486609   5.496832
    12  H    4.610127   4.606813   1.098678   6.713378   4.512808
    13  H    3.419664   4.097796   1.089259   5.456422   2.852295
    14  H    3.045181   2.961072   1.096473   5.138220   3.594272
    15  H    5.547552   5.509842   2.740326   7.276185   6.238410
    16  H    4.331998   4.378213   2.800678   5.806712   5.541772
    17  H    5.522384   6.005854   3.475817   6.847672   6.375023
    18  C    4.822971   6.252187   3.081335   6.205107   4.134226
    19  H    5.761506   7.015580   3.474323   7.258258   4.898381
    20  H    5.214795   6.892833   4.076602   6.250779   4.516699
    21  H    4.183530   5.627826   2.803644   5.677285   3.153231
    22  C    3.342375   5.329604   4.237413   3.702522   3.632708
    23  H    4.420563   6.362213   4.793437   4.705995   4.525968
    24  H    3.356547   5.419400   5.087720   3.034801   3.907859
    25  H    3.076405   5.114525   3.916246   3.753815   2.745383
    26  C    4.220858   5.483479   4.374011   4.668829   5.406835
    27  H    4.403107   5.718835   5.279308   4.323871   5.793222
    28  H    5.094574   6.459363   4.802562   5.538647   5.977472
    29  H    4.454456   5.289849   4.215580   5.131351   5.830708
                   11         12         13         14         15
    11  H    0.000000
    12  H    4.034327   0.000000
    13  H    3.785074   1.770756   0.000000
    14  H    4.171599   1.754980   1.774007   0.000000
    15  H    3.421259   2.598218   3.780976   2.965614   0.000000
    16  H    3.440186   3.243071   3.768042   2.546909   1.756892
    17  H    2.337751   3.789523   4.333181   3.753724   1.771468
    18  C    2.205419   3.666053   2.711152   3.983856   4.496470
    19  H    2.682359   3.749538   3.130957   4.509495   4.676796
    20  H    2.463788   4.738031   3.671599   4.887111   5.349495
    21  H    3.099692   3.468611   2.090072   3.613351   4.841189
    22  C    3.289915   5.280713   3.996535   4.440547   5.562735
    23  H    2.986531   5.752389   4.579862   5.169712   5.828712
    24  H    4.298988   6.167117   4.838618   5.112338   6.406216
    25  H    3.632364   4.936275   3.415058   4.193835   5.728988
    26  C    2.819422   5.269079   4.765607   4.385196   4.329111
    27  H    3.859974   6.224120   5.607280   5.153388   5.310829
    28  H    2.352991   5.617964   5.149630   5.032541   4.571757
    29  H    3.062050   4.987567   4.833993   4.108864   3.639422
                   16         17         18         19         20
    16  H    0.000000
    17  H    1.788252   0.000000
    18  C    4.602679   4.131600   0.000000
    19  H    5.161023   4.512353   1.098430   0.000000
    20  H    5.290738   4.682180   1.094069   1.758401   0.000000
    21  H    4.808074   4.727958   1.092890   1.765636   1.769525
    22  C    4.604399   4.660146   3.087195   4.175716   2.801937
    23  H    5.057793   4.718287   2.974313   3.967523   2.370732
    24  H    5.239061   5.461507   4.165386   5.251790   3.812027
[...]
 Rotational constants (GHZ):           0.5716156           0.3296560           0.3105824
   427 basis functions,  1056 primitive gaussians,   461 cartesian basis functions
    77 alpha electrons       72 beta electrons
       nuclear repulsion energy      1632.9722516676 Hartrees.
 NAtoms=   29 NActive=   29 NUniq=   29 SFac= 1.00D+00 NAtFMM=   60 NAOKFM=F Big=F
 Nuclear repulsion after empirical dispersion term =     1632.9697769143 Hartrees.
 Initial guess from the checkpoint file:  "checkpoint.chk"
 B after Tr=     0.000000    0.000000    0.000000
         Rot=    1.000000    0.000000    0.000000    0.000000 Ang=   0.00 deg.
 Initial guess <Sx>= 0.0000 <Sy>= 0.0000 <Sz>= 2.5000 <S**2>= 8.7617 S= 2.5020
 SCF Done:  E(UM06L) =  -3034.21616421     A.U. after   17 cycles
            NFock= 17  Conv=0.73D-08     -V/T= 2.0020
 <Sx>= 0.0000 <Sy>= 0.0000 <Sz>= 2.5000 <S**2>= 8.7616 S= 2.5019
 <L.S>= 0.000000000000E+00
 Annihilation of the first spin contaminant:
 S**2 before annihilation     8.7616,   after     8.7500
 1\1\GINC-HOLY7C04409\SP\UM06L\Jul-CC-pVDZ\C8H16Cl3Fe1O1(6)\EKWAN\11-Fe
 b-2020\0\\#t pop=none jul-cc-pvdz guess=read um06l empiricaldispersion
 =gd3\\theory_abbreviation m06l_d3\\0,6\O,0,0.254869,0.293509,-0.827977
 \C,0,1.060535,1.246825,-0.657282\C,0,3.046348,0.101702,0.45974\C,0,2.5
 46566,-0.978586,-0.179982\C,0,2.927521,-1.30566,-1.596113\Fe,0,-1.4591
 17,-0.136743,0.021248\Cl,0,-2.086663,-1.99355,-0.926777\C,0,1.630041,-
 1.979626,0.455489\Cl,0,-2.635158,1.638537,-0.491393\Cl,0,-1.131679,-0.
 302351,2.188886\H,0,3.771438,0.709638,-0.080582\H,0,2.164535,-2.931414
 ,0.580024\H,0,1.25039,-1.675513,1.430099\H,0,0.776851,-2.192175,-0.199
 601\H,0,3.367999,-2.310124,-1.637274\H,0,2.037742,-1.332746,-2.238787\
 H,0,3.654249,-0.602525,-2.011793\C,0,2.936877,0.38631,1.935067\H,0,3.7
 54774,-0.112214,2.472716\H,0,3.028598,1.455746,2.14692\H,0,1.998223,0.
 034647,2.370578\C,0,0.891115,2.192703,0.491954\H,0,1.776935,2.807416,0
 .654708\H,0,0.055977,2.852334,0.211819\H,0,0.602521,1.677454,1.407829\
 C,0,1.830109,1.730922,-1.851842\H,0,1.185196,2.481175,-2.332783\H,0,2.
 764775,2.221256,-1.576646\H,0,2.002719,0.931942,-2.570234\\Version=ES6
 4L-G16RevA.03\HF=-3034.2161642\S2=8.761631\S2-1=0.\S2A=8.750043\RMSD=7
 .321e-09\PG=C01 [X(C8H16Cl3Fe1O1)]\\@


 THE WORLD IS MADE UP OF THE WILLS, THE WON'TS, AND THE CANT'S:
 THE WILLS DO EVERYTHING,
 THE WON'TS DO NOTHING,
 THE CAN'TS CAN'T DO ANYTHING.

                               -- FROM WALT DISNEY'S "BLACK HOLE"
 Job cpu time:       0 days  1 hours 15 minutes  4.6 seconds.
 Elapsed time:       0 days  0 hours 18 minutes 49.1 seconds.
 File lengths (MBytes):  RWF=    174 Int=      0 D2E=      0 Chk=     13 Scr=      1
 Normal termination of Gaussian 16 at Tue Feb 11 23:51:36 2020.
 Initial command:
 /n/sw/g16_nehalem/g16/l1.exe "/scratch/Gau-369951.inp" -scrdir="/scratch/"
 Entering Link 1 = /n/sw/g16_nehalem/g16/l1.exe PID=    428284.
  
 Copyright (c) 1988,1990,1992,1993,1995,1998,2003,2009,2016,
            Gaussian, Inc.  All Rights Reserved.
  
 This is part of the Gaussian(R) 16 program.  It is based on
 the Gaussian(R) 09 system (copyright 2009, Gaussian, Inc.),
 the Gaussian(R) 03 system (copyright 2003, Gaussian, Inc.),
 the Gaussian(R) 98 system (copyright 1998, Gaussian, Inc.),
 the Gaussian(R) 94 system (copyright 1995, Gaussian, Inc.),
 the Gaussian 92(TM) system (copyright 1992, Gaussian, Inc.),
 the Gaussian 90(TM) system (copyright 1990, Gaussian, Inc.),
 the Gaussian 88(TM) system (copyright 1988, Gaussian, Inc.),
 the Gaussian 86(TM) system (copyright 1986, Carnegie Mellon
 University), and the Gaussian 82(TM) system (copyright 1983,
 Carnegie Mellon University). Gaussian is a federally registered
 trademark of Gaussian, Inc.
  
 This software contains proprietary and confidential information,
 including trade secrets, belonging to Gaussian, Inc.
  
 This software is provided under written license and may be
 used, copied, transmitted, or stored only in accord with that
 written license.
  
 The following legend is applicable only to US Government
 contracts under FAR:
  
                    RESTRICTED RIGHTS LEGEND
  
 Use, reproduction and disclosure by the US Government is
 subject to restrictions as set forth in subparagraphs (a)
 and (c) of the Commercial Computer Software - Restricted
 Rights clause in FAR 52.227-19.
  
 Gaussian, Inc.
 340 Quinnipiac St., Bldg. 40, Wallingford CT 06492
  
  
 ---------------------------------------------------------------
 Warning -- This program may not be used in any manner that
 competes with the business of Gaussian, Inc. or will provide
 assistance to any competitor of Gaussian, Inc.  The licensee
 of this program is prohibited from giving any competitor of
 Gaussian, Inc. access to this program.  By using this program,
 the user acknowledges that Gaussian, Inc. is engaged in the
 business of creating and licensing software in the field of
 computational chemistry and represents and warrants to the
 licensee that it is not a competitor of Gaussian, Inc. and that
 it will not use this program in any manner prohibited above.
 ---------------------------------------------------------------
  

 Cite this work as:
 Gaussian 16, Revision A.03,
 M. J. Frisch, G. W. Trucks, H. B. Schlegel, G. E. Scuseria, 
 M. A. Robb, J. R. Cheeseman, G. Scalmani, V. Barone, 
 G. A. Petersson, H. Nakatsuji, X. Li, M. Caricato, A. V. Marenich, 
 J. Bloino, B. G. Janesko, R. Gomperts, B. Mennucci, H. P. Hratchian, 
 J. V. Ortiz, A. F. Izmaylov, J. L. Sonnenberg, D. Williams-Young, 
 F. Ding, F. Lipparini, F. Egidi, J. Goings, B. Peng, A. Petrone, 
 T. Henderson, D. Ranasinghe, V. G. Zakrzewski, J. Gao, N. Rega, 
 G. Zheng, W. Liang, M. Hada, M. Ehara, K. Toyota, R. Fukuda, 
 J. Hasegawa, M. Ishida, T. Nakajima, Y. Honda, O. Kitao, H. Nakai, 
 T. Vreven, K. Throssell, J. A. Montgomery, Jr., J. E. Peralta, 
 F. Ogliaro, M. J. Bearpark, J. J. Heyd, E. N. Brothers, K. N. Kudin, 
 V. N. Staroverov, T. A. Keith, R. Kobayashi, J. Normand, 
 K. Raghavachari, A. P. Rendell, J. C. Burant, S. S. Iyengar, 
 J. Tomasi, M. Cossi, J. M. Millam, M. Klene, C. Adamo, R. Cammi, 
 J. W. Ochterski, R. L. Martin, K. Morokuma, O. Farkas, 
 J. B. Foresman, and D. J. Fox, Gaussian, Inc., Wallingford CT, 2016.
 
 ******************************************
 Gaussian 16:  ES64L-G16RevA.03 25-Dec-2016
                11-Feb-2020 
 ******************************************
 %chk=checkpoint.chk
 %mem=3GB
 %nprocshared=4
 Will use up to    4 processors via shared memory.
 -------------------------------------------------------------------
 #t pop=none jul-cc-pvdz guess=read ub97d3 empiricaldispersion=gd3bj
 -------------------------------------------------------------------
 ------------------------------
 theory_abbreviation b97d3_d3bj
 ------------------------------
 Symbolic Z-matrix:
 Charge =  0 Multiplicity = 6
 O                     0.25487   0.29351  -0.82798 
 C                     1.06054   1.24683  -0.65728 
 C                     3.04635   0.1017    0.45974 
 C                     2.54657  -0.97859  -0.17998 
 C                     2.92752  -1.30566  -1.59611 
 Fe                   -1.45912  -0.13674   0.02125 
 Cl                   -2.08666  -1.99355  -0.92678 
 C                     1.63004  -1.97963   0.45549 
 Cl                   -2.63516   1.63854  -0.49139 
 Cl                   -1.13168  -0.30235   2.18889 
 H                     3.77144   0.70964  -0.08058 
 H                     2.16453  -2.93141   0.58002 
 H                     1.25039  -1.67551   1.4301 
 H                     0.77685  -2.19218  -0.1996 
 H                     3.368    -2.31012  -1.63727 
 H                     2.03774  -1.33275  -2.23879 
 H                     3.65425  -0.60253  -2.01179 
 C                     2.93688   0.38631   1.93507 
 H                     3.75477  -0.11221   2.47272 
 H                     3.0286    1.45575   2.14692 
 H                     1.99822   0.03465   2.37058 
 C                     0.89112   2.1927    0.49195 
 H                     1.77694   2.80742   0.65471 
 H                     0.05598   2.85233   0.21182 
 H                     0.60252   1.67745   1.40783 
 C                     1.83011   1.73092  -1.85184 
 H                     1.1852    2.48118  -2.33278 
 H                     2.76478   2.22126  -1.57665 
 H                     2.00272   0.93194  -2.57023 
 
                    Distance matrix (angstroms):
                    1          2          3          4          5
     1  O    0.000000
     2  C    1.259780   0.000000
     3  C    3.080156   2.550000   0.000000
     4  C    2.700000   2.718190   1.351314   0.000000
     5  C    3.207872   3.298821   2.494257   1.502508   0.000000
     6  Fe   1.960624   2.953525   4.533028   4.098132   4.819213
     7  Cl   3.274626   4.525209   5.714920   4.801527   5.105217
     8  C    2.950513   3.460142   2.517513   1.498640   2.519277
     9  Cl   3.205409   3.720095   5.962049   5.813482   6.390000
    10  Cl   3.373281   3.912342   4.539726   4.426998   5.640031
    11  H    3.619119   2.823145   1.089628   2.088131   2.659033
    12  H    4.003676   4.495267   3.160990   2.130046   2.821488
    13  H    3.157058   3.596285   2.706576   2.181316   3.479586
    14  H    2.616476   3.480901   3.293512   2.145944   2.713215
    15  H    4.138290   4.351627   3.212138   2.138094   1.097571
    16  H    2.795304   3.179666   3.218225   2.150118   1.097939
    17  H    3.709458   3.461524   2.640825   2.173457   1.093308
    18  C    3.851778   3.313822   1.506511   2.547296   3.915620
    19  H    4.827890   4.347735   2.144691   3.040917   4.320189
    20  H    4.230175   3.432269   2.163406   3.401882   4.652513
    21  H    3.651992   3.393607   2.180450   2.798692   4.288899
    22  C    2.398742   1.498043   3.003057   3.639930   4.554725
    23  H    3.291621   2.161016   2.995048   3.952575   4.827778
    24  H    2.769173   2.083778   4.070597   4.586119   5.366870
    25  H    2.652356   2.158681   3.058457   3.654450   4.829934
    26  C    2.365552   1.501189   3.078475   3.263412   3.238910
    27  H    2.813509   2.084817   4.113874   4.296257   4.233025
    28  H    3.252129   2.167759   2.952738   3.498182   3.530723
    29  H    2.549125   2.155516   3.310469   3.107924   2.609796
                    6          7          8          9         10
     6  Fe   0.000000
     7  Cl   2.177222   0.000000
     8  C    3.623214   3.965443   0.000000
     9  Cl   2.190318   3.698981   5.672708   0.000000
    10  Cl   2.198476   3.671444   3.666744   3.634748   0.000000
    11  H    5.299569   6.506967   3.479238   6.486609   5.496832
    12  H    4.610127   4.606813   1.098678   6.713378   4.512808
    13  H    3.419664   4.097796   1.089259   5.456422   2.852295
    14  H    3.045181   2.961072   1.096473   5.138220   3.594272
    15  H    5.547552   5.509842   2.740326   7.276185   6.238410
    16  H    4.331998   4.378213   2.800678   5.806712   5.541772
    17  H    5.522384   6.005854   3.475817   6.847672   6.375023
    18  C    4.822971   6.252187   3.081335   6.205107   4.134226
    19  H    5.761506   7.015580   3.474323   7.258258   4.898381
    20  H    5.214795   6.892833   4.076602   6.250779   4.516699
    21  H    4.183530   5.627826   2.803644   5.677285   3.153231
    22  C    3.342375   5.329604   4.237413   3.702522   3.632708
    23  H    4.420563   6.362213   4.793437   4.705995   4.525968
    24  H    3.356547   5.419400   5.087720   3.034801   3.907859
    25  H    3.076405   5.114525   3.916246   3.753815   2.745383
    26  C    4.220858   5.483479   4.374011   4.668829   5.406835
    27  H    4.403107   5.718835   5.279308   4.323871   5.793222
    28  H    5.094574   6.459363   4.802562   5.538647   5.977472
    29  H    4.454456   5.289849   4.215580   5.131351   5.830708
                   11         12         13         14         15
    11  H    0.000000
    12  H    4.034327   0.000000
    13  H    3.785074   1.770756   0.000000
    14  H    4.171599   1.754980   1.774007   0.000000
    15  H    3.421259   2.598218   3.780976   2.965614   0.000000
    16  H    3.440186   3.243071   3.768042   2.546909   1.756892
    17  H    2.337751   3.789523   4.333181   3.753724   1.771468
    18  C    2.205419   3.666053   2.711152   3.983856   4.496470
    19  H    2.682359   3.749538   3.130957   4.509495   4.676796
    20  H    2.463788   4.738031   3.671599   4.887111   5.349495
    21  H    3.099692   3.468611   2.090072   3.613351   4.841189
    22  C    3.289915   5.280713   3.996535   4.440547   5.562735
    23  H    2.986531   5.752389   4.579862   5.169712   5.828712
    24  H    4.298988   6.167117   4.838618   5.112338   6.406216
    25  H    3.632364   4.936275   3.415058   4.193835   5.728988
    26  C    2.819422   5.269079   4.765607   4.385196   4.329111
    27  H    3.859974   6.224120   5.607280   5.153388   5.310829
    28  H    2.352991   5.617964   5.149630   5.032541   4.571757
    29  H    3.062050   4.987567   4.833993   4.108864   3.639422
                   16         17         18         19         20
    16  H    0.000000
    17  H    1.788252   0.000000
    18  C    4.602679   4.131600   0.000000
    19  H    5.161023   4.512353   1.098430   0.000000
    20  H    5.290738   4.682180   1.094069   1.758401   0.000000
    21  H    4.808074   4.727958   1.092890   1.765636   1.769525
    22  C    4.604399   4.660146   3.087195   4.175716   2.801937
    23  H    5.057793   4.718287   2.974313   3.967523   2.370732
    24  H    5.239061   5.461507   4.165386   5.251790   3.812027
    25  H    4.941556   5.119098   2.719237   3.778041   2.545832
    26  C    3.094980   2.966150   4.168165   5.079694   4.183563
    27  H    3.909177   3.963390   5.066694   6.034999   4.951502
    28  H    3.687538   2.992366   3.965952   4.777291   3.810584
    29  H    2.289082   2.322498   4.633368   5.439789   4.855753
                   21         22         23         24         25
    21  H    0.000000
    22  C    3.067918   0.000000
    23  H    3.268245   1.090430   0.000000
    24  H    4.046223   1.100475   1.777601   0.000000
    25  H    2.360865   1.089768   1.795342   1.763376   0.000000
    26  C    4.553509   2.566774   2.728454   2.943434   3.483574
    27  H    5.363592   2.854617   3.062955   2.808539   3.870098
    28  H    4.577056   2.791151   2.509652   3.306728   3.725339
    29  H    5.021631   3.493161   3.737463   3.900965   4.282678
                   26         27         28         29
    26  C    0.000000
    27  H    1.100044   0.000000
    28  H    1.090762   1.770415   0.000000
    29  H    1.088233   1.767724   1.797297   0.000000
 Framework group  C1[X(C8H16Cl3FeO)]
 Deg. of freedom    81
                         Standard orientation:                         
 ---------------------------------------------------------------------
 Center     Atomic      Atomic             Coordinates (Angstroms)
 Number     Number       Type             X           Y           Z
 ---------------------------------------------------------------------
      1          8           0        0.254869    0.293509   -0.827977
      2          6           0        1.060535    1.246825   -0.657282
      3          6           0        3.046348    0.101702    0.459740
      4          6           0        2.546566   -0.978586   -0.179982
      5          6           0        2.927521   -1.305660   -1.596113
      6         26           0       -1.459117   -0.136743    0.021248
      7         17           0       -2.086663   -1.993550   -0.926777
      8          6           0        1.630041   -1.979626    0.455489
      9         17           0       -2.635158    1.638537   -0.491393
     10         17           0       -1.131679   -0.302351    2.188886
     11          1           0        3.771438    0.709638   -0.080582
     12          1           0        2.164535   -2.931414    0.580024
     13          1           0        1.250390   -1.675513    1.430099
     14          1           0        0.776851   -2.192175   -0.199601
     15          1           0        3.367999   -2.310124   -1.637274
     16          1           0        2.037742   -1.332746   -2.238787
     17          1           0        3.654249   -0.602525   -2.011793
     18          6           0        2.936877    0.386310    1.935067
     19          1           0        3.754774   -0.112214    2.472716
     20          1           0        3.028598    1.455746    2.146920
     21          1           0        1.998223    0.034647    2.370578
     22          6           0        0.891115    2.192703    0.491954
     23          1           0        1.776935    2.807416    0.654708
     24          1           0        0.055977    2.852334    0.211819
     25          1           0        0.602521    1.677454    1.407829
     26          6           0        1.830109    1.730922   -1.851842
     27          1           0        1.185196    2.481175   -2.332783
     28          1           0        2.764775    2.221256   -1.576646
     29          1           0        2.002719    0.931942   -2.570234
 ---------------------------------------------------------------------
 Rotational constants (GHZ):           0.5716156           0.3296560           0.3105824
   427 basis functions,  1056 primitive gaussians,   461 cartesian basis functions
    77 alpha electrons       72 beta electrons
       nuclear repulsion energy      1632.9722516676 Hartrees.
 NAtoms=   29 NActive=   29 NUniq=   29 SFac= 1.00D+00 NAtFMM=   60 NAOKFM=F Big=F
 Nuclear repulsion after empirical dispersion term =     1632.8712596558 Hartrees.
 Initial guess from the checkpoint file:  "checkpoint.chk"
 B after Tr=     0.000000    0.000000    0.000000
         Rot=    1.000000    0.000000    0.000000    0.000000 Ang=   0.00 deg.
 Initial guess <Sx>= 0.0000 <Sy>= 0.0000 <Sz>= 2.5000 <S**2>= 8.7616 S= 2.5019
 SCF Done:  E(UB97D3) =  -3034.63595706     A.U. after   17 cycles
            NFock= 17  Conv=0.37D-08     -V/T= 2.0019
 <Sx>= 0.0000 <Sy>= 0.0000 <Sz>= 2.5000 <S**2>= 8.7598 S= 2.5016
 <L.S>= 0.000000000000E+00
 Annihilation of the first spin contaminant:
 S**2 before annihilation     8.7598,   after     8.7500
 1\1\GINC-HOLY7C04409\SP\UB97D3\Jul-CC-pVDZ\C8H16Cl3Fe1O1(6)\EKWAN\12-F
 eb-2020\0\\#t pop=none jul-cc-pvdz guess=read ub97d3 empiricaldispersi
 on=gd3bj\\theory_abbreviation b97d3_d3bj\\0,6\O,0,0.254869,0.293509,-0
 .827977\C,0,1.060535,1.246825,-0.657282\C,0,3.046348,0.101702,0.45974\
 C,0,2.546566,-0.978586,-0.179982\C,0,2.927521,-1.30566,-1.596113\Fe,0,
 -1.459117,-0.136743,0.021248\Cl,0,-2.086663,-1.99355,-0.926777\C,0,1.6
 30041,-1.979626,0.455489\Cl,0,-2.635158,1.638537,-0.491393\Cl,0,-1.131
 679,-0.302351,2.188886\H,0,3.771438,0.709638,-0.080582\H,0,2.164535,-2
 .931414,0.580024\H,0,1.25039,-1.675513,1.430099\H,0,0.776851,-2.192175
 ,-0.199601\H,0,3.367999,-2.310124,-1.637274\H,0,2.037742,-1.332746,-2.
 238787\H,0,3.654249,-0.602525,-2.011793\C,0,2.936877,0.38631,1.935067\
 H,0,3.754774,-0.112214,2.472716\H,0,3.028598,1.455746,2.14692\H,0,1.99
 8223,0.034647,2.370578\C,0,0.891115,2.192703,0.491954\H,0,1.776935,2.8
 07416,0.654708\H,0,0.055977,2.852334,0.211819\H,0,0.602521,1.677454,1.
 407829\C,0,1.830109,1.730922,-1.851842\H,0,1.185196,2.481175,-2.332783
 \H,0,2.764775,2.221256,-1.576646\H,0,2.002719,0.931942,-2.570234\\Vers
 ion=ES64L-G16RevA.03\HF=-3034.6359571\S2=8.759776\S2-1=0.\S2A=8.75003\
 RMSD=3.693e-09\PG=C01 [X(C8H16Cl3Fe1O1)]\\@


 THE FIRST AND LAST THING REQUIRED OF GENIUS IS THE LOVE OF TRUTH.

                          -- GOETHE
 Job cpu time:       0 days  0 hours 56 minutes  3.1 seconds.
 Elapsed time:       0 days  0 hours 14 minutes 12.0 seconds.
 File lengths (MBytes):  RWF=    174 Int=      0 D2E=      0 Chk=     13 Scr=      1
 Normal termination of Gaussian 16 at Wed Feb 12 00:05:49 2020.
