 Entering Gaussian System, Link 0=g16
 Input=simple-grid-200-280-b3lyp_d3bj-631gd-gas-singlepoint-DFT-juldz2-gas.gjf
 Output=simple-grid-200-280-b3lyp_d3bj-631gd-gas-singlepoint-DFT-juldz2-gas.out
 Initial command:
 /n/sw/g16_nehalem/g16/l1.exe "/scratch/Gau-98688.inp" -scrdir="/scratch/"
 Entering Link 1 = /n/sw/g16_nehalem/g16/l1.exe PID=     98697.
  
 Copyright (c) 1988,1990,1992,1993,1995,1998,2003,2009,2016,
            Gaussian, Inc.  All Rights Reserved.
  
 This is part of the Gaussian(R) 16 program.  It is based on
 the Gaussian(R) 09 system (copyright 2009, Gaussian, Inc.),
 the Gaussian(R) 03 system (copyright 2003, Gaussian, Inc.),
 the Gaussian(R) 98 system (copyright 1998, Gaussian, Inc.),
 the Gaussian(R) 94 system (copyright 1995, Gaussian, Inc.),
 the Gaussian 92(TM) system (copyright 1992, Gaussian, Inc.),
 the Gaussian 90(TM) system (copyright 1990, Gaussian, Inc.),
 the Gaussian 88(TM) system (copyright 1988, Gaussian, Inc.),
 the Gaussian 86(TM) system (copyright 1986, Carnegie Mellon
 University), and the Gaussian 82(TM) system (copyright 1983,
 Carnegie Mellon University). Gaussian is a federally registered
 trademark of Gaussian, Inc.
  
 This software contains proprietary and confidential information,
 including trade secrets, belonging to Gaussian, Inc.
  
 This software is provided under written license and may be
 used, copied, transmitted, or stored only in accord with that
 written license.
  
 The following legend is applicable only to US Government
 contracts under FAR:
  
                    RESTRICTED RIGHTS LEGEND
  
 Use, reproduction and disclosure by the US Government is
 subject to restrictions as set forth in subparagraphs (a)
 and (c) of the Commercial Computer Software - Restricted
 Rights clause in FAR 52.227-19.
  
 Gaussian, Inc.
 340 Quinnipiac St., Bldg. 40, Wallingford CT 06492
  
  
 ---------------------------------------------------------------
 Warning -- This program may not be used in any manner that
 competes with the business of Gaussian, Inc. or will provide
 assistance to any competitor of Gaussian, Inc.  The licensee
 of this program is prohibited from giving any competitor of
 Gaussian, Inc. access to this program.  By using this program,
 the user acknowledges that Gaussian, Inc. is engaged in the
 business of creating and licensing software in the field of
 computational chemistry and represents and warrants to the
 licensee that it is not a competitor of Gaussian, Inc. and that
 it will not use this program in any manner prohibited above.
 ---------------------------------------------------------------
  

 Cite this work as:
 Gaussian 16, Revision A.03,
 M. J. Frisch, G. W. Trucks, H. B. Schlegel, G. E. Scuseria, 
 M. A. Robb, J. R. Cheeseman, G. Scalmani, V. Barone, 
 G. A. Petersson, H. Nakatsuji, X. Li, M. Caricato, A. V. Marenich, 
 J. Bloino, B. G. Janesko, R. Gomperts, B. Mennucci, H. P. Hratchian, 
 J. V. Ortiz, A. F. Izmaylov, J. L. Sonnenberg, D. Williams-Young, 
 F. Ding, F. Lipparini, F. Egidi, J. Goings, B. Peng, A. Petrone, 
 T. Henderson, D. Ranasinghe, V. G. Zakrzewski, J. Gao, N. Rega, 
 G. Zheng, W. Liang, M. Hada, M. Ehara, K. Toyota, R. Fukuda, 
 J. Hasegawa, M. Ishida, T. Nakajima, Y. Honda, O. Kitao, H. Nakai, 
 T. Vreven, K. Throssell, J. A. Montgomery, Jr., J. E. Peralta, 
 F. Ogliaro, M. J. Bearpark, J. J. Heyd, E. N. Brothers, K. N. Kudin, 
 V. N. Staroverov, T. A. Keith, R. Kobayashi, J. Normand, 
 K. Raghavachari, A. P. Rendell, J. C. Burant, S. S. Iyengar, 
 J. Tomasi, M. Cossi, J. M. Millam, M. Klene, C. Adamo, R. Cammi, 
 J. W. Ochterski, R. L. Martin, K. Morokuma, O. Farkas, 
 J. B. Foresman, and D. J. Fox, Gaussian, Inc., Wallingford CT, 2016.
 
 ******************************************
 Gaussian 16:  ES64L-G16RevA.03 25-Dec-2016
                11-Feb-2020 
 ******************************************
 %chk=checkpoint.chk
 %mem=3GB
 %nprocshared=4
 Will use up to    4 processors via shared memory.
 --------------------------------
 #t pop=none jul-cc-pvdz upbe1pbe
 --------------------------------
 ------------------------
 theory_abbreviation pbe0
 ------------------------
 Symbolic Z-matrix:
 Charge =  0 Multiplicity = 6
 O                    -0.32537  -0.15721  -0.4799 
 C                    -1.17818  -1.12047  -0.28939 
 C                    -2.64867  -0.31688   0.80235 
 C                    -2.95186   0.72016  -0.0654 
 C                    -3.98688   0.57833  -1.13195 
 Fe                    1.5045    0.17586  -0.08586 
 Cl                    1.82511   2.16347  -0.95628 
 C                    -2.19795   1.9931   -0.02357 
 Cl                    2.55399  -1.49743  -1.04812 
 Cl                    1.75173   0.16798   2.10709 
 H                    -3.33276  -1.16467   0.77038 
 H                    -2.6465    2.77149  -0.64442 
 H                    -2.04552   2.36323   0.99417 
 H                    -1.18946   1.7677   -0.41895 
 H                    -4.80689   1.27434  -0.90367 
 H                    -3.59499   0.88281  -2.11051 
 H                    -4.40205  -0.42891  -1.19787 
 C                    -2.02188  -0.02486   2.15438 
 H                    -2.64123   0.69294   2.70457 
 H                    -1.95552  -0.93075   2.75882 
 H                    -1.01714   0.39505   2.06603 
 C                    -0.75624  -2.22447   0.67144 
 H                    -1.58379  -2.88637   0.93761 
 H                    -0.001    -2.81039   0.13156 
 H                    -0.28125  -1.82919   1.56835 
 C                    -1.82372  -1.64293  -1.56172 
 H                    -1.07215  -2.27407  -2.05108 
 H                    -2.70825  -2.25467  -1.36598 
 H                    -2.06732  -0.83355  -2.2499 
 
                    Distance matrix (angstroms):
                    1          2          3          4          5
     1  O    0.000000
     2  C    1.300553   0.000000
     3  C    2.658459   2.000001   0.000000
     4  C    2.800010   2.565932   1.385770   0.000000
     5  C    3.791153   3.388894   2.516693   1.492953   0.000000
     6  Fe   1.901218   2.986413   4.275576   4.489526   5.604598
     7  Cl   3.199544   4.499862   5.409222   5.069156   6.026838
     8  C    2.887669   3.287075   2.494250   1.480037   2.535807
     9  Cl   3.226418   3.827124   5.646737   6.016465   6.862856
    10  Cl   3.333562   3.998450   4.615293   5.210410   6.602378
    11  H    3.409188   2.401515   1.089839   2.096706   2.661730
    12  H    3.740589   4.174844   3.410453   2.153252   2.616152
    13  H    3.388875   3.812607   2.753830   2.154959   3.387498
    14  H    2.110836   2.891087   2.822471   2.080486   3.122264
    15  H    4.723652   4.390889   3.178107   2.109721   1.099520
    16  H    3.798804   3.629123   3.289309   2.150013   1.097209
    17  H    4.148322   3.420070   2.662283   2.169300   1.091443
    18  C    3.136097   2.807883   1.518594   2.519394   3.876219
    19  H    4.028251   3.793778   2.153652   2.787464   4.067286
    20  H    3.707437   3.151485   2.164498   3.419706   4.641320
    21  H    2.695422   2.805479   2.183023   2.896861   4.368065
    22  C    2.405160   1.523174   2.690234   3.746269   4.641656
    23  H    3.322839   2.188257   2.784704   3.985562   4.697033
    24  H    2.741975   2.102093   3.698342   4.605555   5.382112
    25  H    2.644386   2.181278   2.911793   4.037385   5.178755
    26  C    2.371232   1.519378   2.833341   3.015939   3.130175
    27  H    2.739954   2.108456   3.802381   4.054828   4.180506
    28  H    3.295842   2.187824   2.908651   3.255830   3.116977
    29  H    2.573852   2.171747   3.149790   2.822848   2.632096
                    6          7          8          9         10
     6  Fe   0.000000
     7  Cl   2.193400   0.000000
     8  C    4.124849   4.133285   0.000000
     9  Cl   2.197106   3.733882   5.984517   0.000000
    10  Cl   2.206863   3.656722   4.844662   3.656856   0.000000
    11  H    5.092076   6.376639   3.448135   6.170209   5.423536
    12  H    4.927480   4.523523   1.092037   6.740307   5.804607
    13  H    4.307404   4.338895   1.093636   6.342807   4.525132
    14  H    3.146788   3.087554   1.106435   5.007023   4.194107
    15  H    6.458254   6.691544   2.845649   7.866769   7.300966
    16  H    5.532063   5.687690   2.745862   6.678631   6.847372
    17  H    6.040661   6.749543   3.478952   7.039219   7.010560
    18  C    4.182619   5.409651   2.974327   5.776074   3.778821
    19  H    5.024034   5.959232   3.054446   6.772789   4.464368
    20  H    4.613953   6.137538   4.043433   5.928713   3.921180
    21  H    3.322252   4.509998   2.883486   5.102194   2.778468
    22  C    3.383200   5.344799   4.511038   3.800405   3.751644
    23  H    4.467916   6.380306   5.011016   4.795150   4.671447
    24  H    3.351337   5.409001   5.284329   3.105389   3.980635
    25  H    3.153650   5.172214   4.562657   3.872275   2.900329
    26  C    4.069792   5.307471   3.965687   4.410134   5.433545
    27  H    4.062431   5.411510   4.856636   3.841612   5.588228
    28  H    5.029259   6.343437   4.483967   5.325941   6.150031
    29  H    4.296496   5.080023   3.600492   4.820947   5.879761
                   11         12         13         14         15
    11  H    0.000000
    12  H    4.238630   0.000000
    13  H    3.762068   1.792438   0.000000
    14  H    3.821914   1.783652   1.756256   0.000000
    15  H    3.305183   2.641206   3.523156   3.682956   0.000000
    16  H    3.544078   2.572192   3.772474   3.070990   1.754558
    17  H    2.357692   3.691994   4.260785   3.968945   1.775243
    18  C    2.221047   4.005373   2.655111   3.244720   4.335419
    19  H    2.769482   3.941589   2.463774   3.608199   4.248232
    20  H    2.430102   5.076029   3.737966   4.238713   5.138724
    21  H    3.077903   3.955856   2.465803   2.844110   4.894321
    22  C    2.787728   5.501292   4.776343   4.161013   5.579458
    23  H    2.459904   5.970225   5.270176   4.863753   5.575855
    24  H    3.770559   6.225606   5.629434   4.761756   6.391652
    25  H    3.223363   5.626456   4.584621   4.208535   6.018650
    26  C    2.818622   4.583183   4.757223   3.652480   4.224072
    27  H    3.781767   5.469453   5.632546   4.360441   5.277875
    28  H    2.478334   5.078063   5.228244   4.402614   4.131809
    29  H    3.291363   3.988652   4.554549   3.299926   3.709548
                   16         17         18         19         20
    16  H    0.000000
    17  H    1.790219   0.000000
    18  C    4.635500   4.131105   0.000000
    19  H    4.912303   4.425837   1.096146   0.000000
    20  H    5.448600   4.678962   1.091049   1.763378   0.000000
    21  H    4.932206   4.773831   1.092525   1.770344   1.765858
    22  C    5.045090   4.473282   2.939263   4.024688   2.732980
    23  H    5.248114   4.306038   3.140180   4.129386   2.698050
    24  H    5.619905   5.177648   3.991860   5.085717   3.775677
    25  H    5.645336   5.156909   2.574654   3.636160   2.242239
    26  C    3.133361   2.872982   4.057937   4.932126   4.380828
    27  H    4.041547   3.901384   4.862802   5.820769   5.071491
    28  H    3.344306   2.496115   4.223283   5.026158   4.396971
    29  H    2.301973   2.592578   4.478142   5.215968   5.010912
                   21         22         23         24         25
    21  H    0.000000
    22  C    2.979067   0.000000
    23  H    3.515982   1.092608   0.000000
    24  H    3.879373   1.097797   1.777840   0.000000
    25  H    2.395091   1.089181   1.792228   1.762286   0.000000
    26  C    4.238452   2.542575   2.801846   2.748170   3.494457
    27  H    4.906911   2.741235   3.093373   2.489762   3.731448
    28  H    4.653978   2.821762   2.640075   3.143355   3.831667
    29  H    4.608639   3.491105   3.822053   3.721413   4.331325
                   26         27         28         29
    26  C    0.000000
    27  H    1.096657   0.000000
    28  H    1.093129   1.773859   0.000000
    29  H    1.089972   1.762095   1.792116   0.000000
 Framework group  C1[X(C8H16Cl3FeO)]
 Deg. of freedom    81
                         Standard orientation:                         
 ---------------------------------------------------------------------
 Center     Atomic      Atomic             Coordinates (Angstroms)
 Number     Number       Type             X           Y           Z
 ---------------------------------------------------------------------
      1          8           0       -0.325371   -0.157212   -0.479904
      2          6           0       -1.178182   -1.120465   -0.289393
      3          6           0       -2.648672   -0.316878    0.802353
      4          6           0       -2.951864    0.720156   -0.065399
      5          6           0       -3.986879    0.578334   -1.131954
      6         26           0        1.504499    0.175862   -0.085863
      7         17           0        1.825114    2.163470   -0.956280
      8          6           0       -2.197954    1.993097   -0.023572
      9         17           0        2.553990   -1.497429   -1.048120
     10         17           0        1.751725    0.167982    2.107094
     11          1           0       -3.332759   -1.164670    0.770379
     12          1           0       -2.646498    2.771492   -0.644421
     13          1           0       -2.045524    2.363233    0.994173
     14          1           0       -1.189456    1.767696   -0.418951
     15          1           0       -4.806887    1.274335   -0.903669
     16          1           0       -3.594985    0.882811   -2.110514
     17          1           0       -4.402047   -0.428909   -1.197866
     18          6           0       -2.021876   -0.024857    2.154381
     19          1           0       -2.641226    0.692943    2.704568
     20          1           0       -1.955524   -0.930748    2.758820
     21          1           0       -1.017145    0.395048    2.066026
     22          6           0       -0.756239   -2.224472    0.671436
     23          1           0       -1.583786   -2.886372    0.937606
     24          1           0       -0.000996   -2.810385    0.131555
     25          1           0       -0.281245   -1.829188    1.568345
     26          6           0       -1.823718   -1.642934   -1.561721
     27          1           0       -1.072149   -2.274065   -2.051083
     28          1           0       -2.708253   -2.254666   -1.365982
     29          1           0       -2.067321   -0.833550   -2.249902
 ---------------------------------------------------------------------
 Rotational constants (GHZ):           0.5939930           0.3125739           0.2984184
   427 basis functions,  1056 primitive gaussians,   461 cartesian basis functions
    77 alpha electrons       72 beta electrons
       nuclear repulsion energy      1629.6907118795 Hartrees.
 NAtoms=   29 NActive=   29 NUniq=   29 SFac= 1.00D+00 NAtFMM=   60 NAOKFM=F Big=F
 ExpMin= 1.40D-02 ExpMax= 4.32D+06 ExpMxC= 4.91D+03 IAcc=3 IRadAn=         5 AccDes= 0.00D+00
 Harris functional with IExCor= 1009 and IRadAn=       5 diagonalized for initial guess.
 HarFok:  IExCor= 1009 AccDes= 0.00D+00 IRadAn=         5 IDoV= 1 UseB2=F ITyADJ=14
 ICtDFT=  3500011 ScaDFX=  1.000000  1.000000  1.000000  1.000000
 FoFCou: FMM=F IPFlag=           0 FMFlag=      100000 FMFlg1=           0
         NFxFlg=           0 DoJE=T BraDBF=F KetDBF=T FulRan=T
         wScrn=  0.000000 ICntrl=       500 IOpCl=  0 I1Cent=   200000004 NGrid=           0
         NMat0=    1 NMatS0=      1 NMatT0=    0 NMatD0=    1 NMtDS0=    0 NMtDT0=    0
 Petite list used in FoFCou.
 Initial guess <Sx>= 0.0000 <Sy>= 0.0000 <Sz>= 2.5000 <S**2>= 8.7500 S= 2.5000
 EnCoef did   100 forward-backward iterations
 Restarting incremental Fock formation.
 SCF Done:  E(UPBE1PBE) =  -3033.11589406     A.U. after   21 cycles
            NFock= 21  Conv=0.61D-08     -V/T= 2.0021
 <Sx>= 0.0000 <Sy>= 0.0000 <Sz>= 2.5000 <S**2>= 8.7627 S= 2.5021
 <L.S>= 0.000000000000E+00
 Annihilation of the first spin contaminant:
 S**2 before annihilation     8.7627,   after     8.7501
 1\1\GINC-HOLY7C08607\SP\UPBE1PBE\Jul-CC-pVDZ\C8H16Cl3Fe1O1(6)\EKWAN\11
 -Feb-2020\0\\#t pop=none jul-cc-pvdz upbe1pbe\\theory_abbreviation pbe
 0\\0,6\O,0,-0.325371,-0.157212,-0.479904\C,0,-1.178182,-1.120465,-0.28
 9393\C,0,-2.648672,-0.316878,0.802353\C,0,-2.951864,0.720156,-0.065399
 \C,0,-3.986879,0.578334,-1.131954\Fe,0,1.504499,0.175862,-0.085863\Cl,
 0,1.825114,2.16347,-0.95628\C,0,-2.197954,1.993097,-0.023572\Cl,0,2.55
 399,-1.497429,-1.04812\Cl,0,1.751725,0.167982,2.107094\H,0,-3.332759,-
 1.16467,0.770379\H,0,-2.646498,2.771492,-0.644421\H,0,-2.045524,2.3632
 33,0.994173\H,0,-1.189456,1.767696,-0.418951\H,0,-4.806887,1.274335,-0
 .903669\H,0,-3.594985,0.882811,-2.110514\H,0,-4.402047,-0.428909,-1.19
 7866\C,0,-2.021876,-0.024857,2.154381\H,0,-2.641226,0.692943,2.704568\
 H,0,-1.955524,-0.930748,2.75882\H,0,-1.017145,0.395048,2.066026\C,0,-0
 .756239,-2.224472,0.671436\H,0,-1.583786,-2.886372,0.937606\H,0,-0.000
 996,-2.810385,0.131555\H,0,-0.281245,-1.829188,1.568345\C,0,-1.823718,
 -1.642934,-1.561721\H,0,-1.072149,-2.274065,-2.051083\H,0,-2.708253,-2
 .254666,-1.365982\H,0,-2.067321,-0.83355,-2.249902\\Version=ES64L-G16R
 evA.03\HF=-3033.1158941\S2=8.762708\S2-1=0.\S2A=8.75005\RMSD=6.142e-09
 \PG=C01 [X(C8H16Cl3Fe1O1)]\\@


 THIS CURIOUS WORLD WHICH WE INHABIT IS MORE WONDERFUL THAN IT IS CONVENIENT;
 MORE BEAUTIFUL THAN IT IS USEFUL;
 IT IS MORE TO BE ADMIRED THAN IT IS TO BE USED.

                                                                 -- THOREAU
 Job cpu time:       0 days  1 hours 30 minutes 45.6 seconds.
 Elapsed time:       0 days  0 hours 22 minutes 45.8 seconds.
 File lengths (MBytes):  RWF=    173 Int=      0 D2E=      0 Chk=     13 Scr=      1
 Normal termination of Gaussian 16 at Tue Feb 11 13:59:05 2020.
 Initial command:
 /n/sw/g16_nehalem/g16/l1.exe "/scratch/Gau-98688.inp" -scrdir="/scratch/"
 Entering Link 1 = /n/sw/g16_nehalem/g16/l1.exe PID=    100743.
  
 Copyright (c) 1988,1990,1992,1993,1995,1998,2003,2009,2016,
            Gaussian, Inc.  All Rights Reserved.
  
 This is part of the Gaussian(R) 16 program.  It is based on
 the Gaussian(R) 09 system (copyright 2009, Gaussian, Inc.),
 the Gaussian(R) 03 system (copyright 2003, Gaussian, Inc.),
 the Gaussian(R) 98 system (copyright 1998, Gaussian, Inc.),
 the Gaussian(R) 94 system (copyright 1995, Gaussian, Inc.),
 the Gaussian 92(TM) system (copyright 1992, Gaussian, Inc.),
 the Gaussian 90(TM) system (copyright 1990, Gaussian, Inc.),
 the Gaussian 88(TM) system (copyright 1988, Gaussian, Inc.),
 the Gaussian 86(TM) system (copyright 1986, Carnegie Mellon
 University), and the Gaussian 82(TM) system (copyright 1983,
 Carnegie Mellon University). Gaussian is a federally registered
 trademark of Gaussian, Inc.
  
 This software contains proprietary and confidential information,
 including trade secrets, belonging to Gaussian, Inc.
  
 This software is provided under written license and may be
 used, copied, transmitted, or stored only in accord with that
 written license.
  
 The following legend is applicable only to US Government
 contracts under FAR:
  
                    RESTRICTED RIGHTS LEGEND
  
 Use, reproduction and disclosure by the US Government is
 subject to restrictions as set forth in subparagraphs (a)
 and (c) of the Commercial Computer Software - Restricted
 Rights clause in FAR 52.227-19.
  
 Gaussian, Inc.
 340 Quinnipiac St., Bldg. 40, Wallingford CT 06492
  
  
 ---------------------------------------------------------------
 Warning -- This program may not be used in any manner that
 competes with the business of Gaussian, Inc. or will provide
 assistance to any competitor of Gaussian, Inc.  The licensee
 of this program is prohibited from giving any competitor of
 Gaussian, Inc. access to this program.  By using this program,
 the user acknowledges that Gaussian, Inc. is engaged in the
 business of creating and licensing software in the field of
 computational chemistry and represents and warrants to the
 licensee that it is not a competitor of Gaussian, Inc. and that
 it will not use this program in any manner prohibited above.
 ---------------------------------------------------------------
  

 Cite this work as:
 Gaussian 16, Revision A.03,
 M. J. Frisch, G. W. Trucks, H. B. Schlegel, G. E. Scuseria, 
 M. A. Robb, J. R. Cheeseman, G. Scalmani, V. Barone, 
 G. A. Petersson, H. Nakatsuji, X. Li, M. Caricato, A. V. Marenich, 
 J. Bloino, B. G. Janesko, R. Gomperts, B. Mennucci, H. P. Hratchian, 
 J. V. Ortiz, A. F. Izmaylov, J. L. Sonnenberg, D. Williams-Young, 
 F. Ding, F. Lipparini, F. Egidi, J. Goings, B. Peng, A. Petrone, 
 T. Henderson, D. Ranasinghe, V. G. Zakrzewski, J. Gao, N. Rega, 
 G. Zheng, W. Liang, M. Hada, M. Ehara, K. Toyota, R. Fukuda, 
 J. Hasegawa, M. Ishida, T. Nakajima, Y. Honda, O. Kitao, H. Nakai, 
 T. Vreven, K. Throssell, J. A. Montgomery, Jr., J. E. Peralta, 
 F. Ogliaro, M. J. Bearpark, J. J. Heyd, E. N. Brothers, K. N. Kudin, 
 V. N. Staroverov, T. A. Keith, R. Kobayashi, J. Normand, 
 K. Raghavachari, A. P. Rendell, J. C. Burant, S. S. Iyengar, 
 J. Tomasi, M. Cossi, J. M. Millam, M. Klene, C. Adamo, R. Cammi, 
 J. W. Ochterski, R. L. Martin, K. Morokuma, O. Farkas, 
 J. B. Foresman, and D. J. Fox, Gaussian, Inc., Wallingford CT, 2016.
 
 ******************************************
 Gaussian 16:  ES64L-G16RevA.03 25-Dec-2016
                11-Feb-2020 
 ******************************************
 %chk=checkpoint.chk
 %mem=3GB
 %nprocshared=4
 Will use up to    4 processors via shared memory.
 ---------------------------------------------------------------------
 #t pop=none jul-cc-pvdz guess=read upbe1pbe empiricaldispersion=gd3bj
 ---------------------------------------------------------------------
 -----------------------------
 theory_abbreviation pbe0_d3bj
 -----------------------------
 Symbolic Z-matrix:
 Charge =  0 Multiplicity = 6
 O                    -0.32537  -0.15721  -0.4799 
 C                    -1.17818  -1.12047  -0.28939 
 C                    -2.64867  -0.31688   0.80235 
 C                    -2.95186   0.72016  -0.0654 
 C                    -3.98688   0.57833  -1.13195 
 Fe                    1.5045    0.17586  -0.08586 
 Cl                    1.82511   2.16347  -0.95628 
 C                    -2.19795   1.9931   -0.02357 
 Cl                    2.55399  -1.49743  -1.04812 
 Cl                    1.75173   0.16798   2.10709 
 H                    -3.33276  -1.16467   0.77038 
 H                    -2.6465    2.77149  -0.64442 
 H                    -2.04552   2.36323   0.99417 
 H                    -1.18946   1.7677   -0.41895 
 H                    -4.80689   1.27434  -0.90367 
 H                    -3.59499   0.88281  -2.11051 
 H                    -4.40205  -0.42891  -1.19787 
 C                    -2.02188  -0.02486   2.15438 
 H                    -2.64123   0.69294   2.70457 
 H                    -1.95552  -0.93075   2.75882 
 H                    -1.01714   0.39505   2.06603 
 C                    -0.75624  -2.22447   0.67144 
 H                    -1.58379  -2.88637   0.93761 
 H                    -0.001    -2.81039   0.13156 
 H                    -0.28125  -1.82919   1.56835 
 C                    -1.82372  -1.64293  -1.56172 
 H                    -1.07215  -2.27407  -2.05108 
 H                    -2.70825  -2.25467  -1.36598 
 H                    -2.06732  -0.83355  -2.2499 
 
                    Distance matrix (angstroms):
                    1          2          3          4          5
     1  O    0.000000
     2  C    1.300553   0.000000
     3  C    2.658459   2.000001   0.000000
     4  C    2.800010   2.565932   1.385770   0.000000
     5  C    3.791153   3.388894   2.516693   1.492953   0.000000
     6  Fe   1.901218   2.986413   4.275576   4.489526   5.604598
     7  Cl   3.199544   4.499862   5.409222   5.069156   6.026838
     8  C    2.887669   3.287075   2.494250   1.480037   2.535807
     9  Cl   3.226418   3.827124   5.646737   6.016465   6.862856
    10  Cl   3.333562   3.998450   4.615293   5.210410   6.602378
    11  H    3.409188   2.401515   1.089839   2.096706   2.661730
    12  H    3.740589   4.174844   3.410453   2.153252   2.616152
    13  H    3.388875   3.812607   2.753830   2.154959   3.387498
    14  H    2.110836   2.891087   2.822471   2.080486   3.122264
    15  H    4.723652   4.390889   3.178107   2.109721   1.099520
    16  H    3.798804   3.629123   3.289309   2.150013   1.097209
    17  H    4.148322   3.420070   2.662283   2.169300   1.091443
    18  C    3.136097   2.807883   1.518594   2.519394   3.876219
    19  H    4.028251   3.793778   2.153652   2.787464   4.067286
    20  H    3.707437   3.151485   2.164498   3.419706   4.641320
    21  H    2.695422   2.805479   2.183023   2.896861   4.368065
    22  C    2.405160   1.523174   2.690234   3.746269   4.641656
    23  H    3.322839   2.188257   2.784704   3.985562   4.697033
    24  H    2.741975   2.102093   3.698342   4.605555   5.382112
    25  H    2.644386   2.181278   2.911793   4.037385   5.178755
    26  C    2.371232   1.519378   2.833341   3.015939   3.130175
    27  H    2.739954   2.108456   3.802381   4.054828   4.180506
    28  H    3.295842   2.187824   2.908651   3.255830   3.116977
    29  H    2.573852   2.171747   3.149790   2.822848   2.632096
                    6          7          8          9         10
     6  Fe   0.000000
     7  Cl   2.193400   0.000000
     8  C    4.124849   4.133285   0.000000
     9  Cl   2.197106   3.733882   5.984517   0.000000
    10  Cl   2.206863   3.656722   4.844662   3.656856   0.000000
    11  H    5.092076   6.376639   3.448135   6.170209   5.423536
    12  H    4.927480   4.523523   1.092037   6.740307   5.804607
    13  H    4.307404   4.338895   1.093636   6.342807   4.525132
    14  H    3.146788   3.087554   1.106435   5.007023   4.194107
    15  H    6.458254   6.691544   2.845649   7.866769   7.300966
    16  H    5.532063   5.687690   2.745862   6.678631   6.847372
    17  H    6.040661   6.749543   3.478952   7.039219   7.010560
    18  C    4.182619   5.409651   2.974327   5.776074   3.778821
    19  H    5.024034   5.959232   3.054446   6.772789   4.464368
    20  H    4.613953   6.137538   4.043433   5.928713   3.921180
    21  H    3.322252   4.509998   2.883486   5.102194   2.778468
    22  C    3.383200   5.344799   4.511038   3.800405   3.751644
    23  H    4.467916   6.380306   5.011016   4.795150   4.671447
    24  H    3.351337   5.409001   5.284329   3.105389   3.980635
    25  H    3.153650   5.172214   4.562657   3.872275   2.900329
    26  C    4.069792   5.307471   3.965687   4.410134   5.433545
    27  H    4.062431   5.411510   4.856636   3.841612   5.588228
    28  H    5.029259   6.343437   4.483967   5.325941   6.150031
    29  H    4.296496   5.080023   3.600492   4.820947   5.879761
                   11         12         13         14         15
    11  H    0.000000
    12  H    4.238630   0.000000
    13  H    3.762068   1.792438   0.000000
    14  H    3.821914   1.783652   1.756256   0.000000
    15  H    3.305183   2.641206   3.523156   3.682956   0.000000
    16  H    3.544078   2.572192   3.772474   3.070990   1.754558
    17  H    2.357692   3.691994   4.260785   3.968945   1.775243
    18  C    2.221047   4.005373   2.655111   3.244720   4.335419
    19  H    2.769482   3.941589   2.463774   3.608199   4.248232
    20  H    2.430102   5.076029   3.737966   4.238713   5.138724
    21  H    3.077903   3.955856   2.465803   2.844110   4.894321
    22  C    2.787728   5.501292   4.776343   4.161013   5.579458
    23  H    2.459904   5.970225   5.270176   4.863753   5.575855
    24  H    3.770559   6.225606   5.629434   4.761756   6.391652
    25  H    3.223363   5.626456   4.584621   4.208535   6.018650
    26  C    2.818622   4.583183   4.757223   3.652480   4.224072
    27  H    3.781767   5.469453   5.632546   4.360441   5.277875
    28  H    2.478334   5.078063   5.228244   4.402614   4.131809
    29  H    3.291363   3.988652   4.554549   3.299926   3.709548
                   16         17         18         19         20
    16  H    0.000000
    17  H    1.790219   0.000000
    18  C    4.635500   4.131105   0.000000
    19  H    4.912303   4.425837   1.096146   0.000000
    20  H    5.448600   4.678962   1.091049   1.763378   0.000000
    21  H    4.932206   4.773831   1.092525   1.770344   1.765858
    22  C    5.045090   4.473282   2.939263   4.024688   2.732980
    23  H    5.248114   4.306038   3.140180   4.129386   2.698050
    24  H    5.619905   5.177648   3.991860   5.085717   3.775677
    25  H    5.645336   5.156909   2.574654   3.636160   2.242239
    26  C    3.133361   2.872982   4.057937   4.932126   4.380828
    27  H    4.041547   3.901384   4.862802   5.820769   5.071491
    28  H    3.344306   2.496115   4.223283   5.026158   4.396971
    29  H    2.301973   2.592578   4.478142   5.215968   5.010912
                   21         22         23         24         25
    21  H    0.000000
    22  C    2.979067   0.000000
    23  H    3.515982   1.092608   0.000000
    24  H    3.879373   1.097797   1.777840   0.000000
    25  H    2.395091   1.089181   1.792228   1.762286   0.000000
    26  C    4.238452   2.542575   2.801846   2.748170   3.494457
    27  H    4.906911   2.741235   3.093373   2.489762   3.731448
    28  H    4.653978   2.821762   2.640075   3.143355   3.831667
    29  H    4.608639   3.491105   3.822053   3.721413   4.331325
                   26         27         28         29
    26  C    0.000000
    27  H    1.096657   0.000000
    28  H    1.093129   1.773859   0.000000
    29  H    1.089972   1.762095   1.792116   0.000000
 Framework group  C1[X(C8H16Cl3FeO)]
 Deg. of freedom    81
                         Standard orientation:                         
 ---------------------------------------------------------------------
 Center     Atomic      Atomic             Coordinates (Angstroms)
 Number     Number       Type             X           Y           Z
 ---------------------------------------------------------------------
      1          8           0       -0.325371   -0.157212   -0.479904
      2          6           0       -1.178182   -1.120465   -0.289393
      3          6           0       -2.648672   -0.316878    0.802353
      4          6           0       -2.951864    0.720156   -0.065399
      5          6           0       -3.986879    0.578334   -1.131954
      6         26           0        1.504499    0.175862   -0.085863
      7         17           0        1.825114    2.163470   -0.956280
      8          6           0       -2.197954    1.993097   -0.023572
      9         17           0        2.553990   -1.497429   -1.048120
     10         17           0        1.751725    0.167982    2.107094
     11          1           0       -3.332759   -1.164670    0.770379
     12          1           0       -2.646498    2.771492   -0.644421
     13          1           0       -2.045524    2.363233    0.994173
     14          1           0       -1.189456    1.767696   -0.418951
     15          1           0       -4.806887    1.274335   -0.903669
     16          1           0       -3.594985    0.882811   -2.110514
     17          1           0       -4.402047   -0.428909   -1.197866
     18          6           0       -2.021876   -0.024857    2.154381
     19          1           0       -2.641226    0.692943    2.704568
     20          1           0       -1.955524   -0.930748    2.758820
     21          1           0       -1.017145    0.395048    2.066026
     22          6           0       -0.756239   -2.224472    0.671436
     23          1           0       -1.583786   -2.886372    0.937606
     24          1           0       -0.000996   -2.810385    0.131555
     25          1           0       -0.281245   -1.829188    1.568345
     26          6           0       -1.823718   -1.642934   -1.561721
     27          1           0       -1.072149   -2.274065   -2.051083
     28          1           0       -2.708253   -2.254666   -1.365982
     29          1           0       -2.067321   -0.833550   -2.249902
 ---------------------------------------------------------------------
 Rotational constants (GHZ):           0.5939930           0.3125739           0.2984184
   427 basis functions,  1056 primitive gaussians,   461 cartesian basis functions
    77 alpha electrons       72 beta electrons
       nuclear repulsion energy      1629.6907118795 Hartrees.
 NAtoms=   29 NActive=   29 NUniq=   29 SFac= 1.00D+00 NAtFMM=   60 NAOKFM=F Big=F
 Nuclear repulsion after empirical dispersion term =     1629.6545326643 Hartrees.
 Initial guess from the checkpoint file:  "checkpoint.chk"
 B after Tr=     0.000000    0.000000    0.000000
         Rot=    1.000000    0.000000    0.000000    0.000000 Ang=   0.00 deg.
 Initial guess <Sx>= 0.0000 <Sy>= 0.0000 <Sz>= 2.5000 <S**2>= 8.7627 S= 2.5021
 SCF Done:  E(UPBE1PBE) =  -3033.15207328     A.U. after    1 cycles
            NFock=  1  Conv=0.28D-08     -V/T= 2.0021
 <Sx>= 0.0000 <Sy>= 0.0000 <Sz>= 2.5000 <S**2>= 8.7627 S= 2.5021
 <L.S>= 0.000000000000E+00
 Annihilation of the first spin contaminant:
 S**2 before annihilation     8.7627,   after     8.7501
 1\1\GINC-HOLY7C08607\SP\UPBE1PBE\Jul-CC-pVDZ\C8H16Cl3Fe1O1(6)\EKWAN\11
 -Feb-2020\0\\#t pop=none jul-cc-pvdz guess=read upbe1pbe empiricaldisp
 ersion=gd3bj\\theory_abbreviation pbe0_d3bj\\0,6\O,0,-0.325371,-0.1572
 12,-0.479904\C,0,-1.178182,-1.120465,-0.289393\C,0,-2.648672,-0.316878
 ,0.802353\C,0,-2.951864,0.720156,-0.065399\C,0,-3.986879,0.578334,-1.1
 31954\Fe,0,1.504499,0.175862,-0.085863\Cl,0,1.825114,2.16347,-0.95628\
 C,0,-2.197954,1.993097,-0.023572\Cl,0,2.55399,-1.497429,-1.04812\Cl,0,
 1.751725,0.167982,2.107094\H,0,-3.332759,-1.16467,0.770379\H,0,-2.6464
 98,2.771492,-0.644421\H,0,-2.045524,2.363233,0.994173\H,0,-1.189456,1.
 767696,-0.418951\H,0,-4.806887,1.274335,-0.903669\H,0,-3.594985,0.8828
 11,-2.110514\H,0,-4.402047,-0.428909,-1.197866\C,0,-2.021876,-0.024857
 ,2.154381\H,0,-2.641226,0.692943,2.704568\H,0,-1.955524,-0.930748,2.75
 882\H,0,-1.017145,0.395048,2.066026\C,0,-0.756239,-2.224472,0.671436\H
 ,0,-1.583786,-2.886372,0.937606\H,0,-0.000996,-2.810385,0.131555\H,0,-
 0.281245,-1.829188,1.568345\C,0,-1.823718,-1.642934,-1.561721\H,0,-1.0
 72149,-2.274065,-2.051083\H,0,-2.708253,-2.254666,-1.365982\H,0,-2.067
 321,-0.83355,-2.249902\\Version=ES64L-G16RevA.03\HF=-3033.1520733\S2=8
 .762708\S2-1=0.\S2A=8.75005\RMSD=2.819e-09\PG=C01 [X(C8H16Cl3Fe1O1)]\\
 @


 FOR THE NATURE OF THE CHEMICAL BOND
 IS THE PROBLEM AT THE HEART OF ALL CHEMISTRY.

                     -- BRYCE CRAWFORD, JR., 1953
 Job cpu time:       0 days  0 hours  4 minutes 39.3 seconds.
 Elapsed time:       0 days  0 hours  1 minutes 10.5 seconds.
 File lengths (MBytes):  RWF=    170 Int=      0 D2E=      0 Chk=     13 Scr=      1
 Normal termination of Gaussian 16 at Tue Feb 11 14:00:17 2020.
 Initial command:
 /n/sw/g16_nehalem/g16/l1.exe "/scratch/Gau-98688.inp" -scrdir="/scratch/"
 Entering Link 1 = /n/sw/g16_nehalem/g16/l1.exe PID=    101608.
  
 Copyright (c) 1988,1990,1992,1993,1995,1998,2003,2009,2016,
            Gaussian, Inc.  All Rights Reserved.
  
 This is part of the Gaussian(R) 16 program.  It is based on
 the Gaussian(R) 09 system (copyright 2009, Gaussian, Inc.),
 the Gaussian(R) 03 system (copyright 2003, Gaussian, Inc.),
 the Gaussian(R) 98 system (copyright 1998, Gaussian, Inc.),
 the Gaussian(R) 94 system (copyright 1995, Gaussian, Inc.),
 the Gaussian 92(TM) system (copyright 1992, Gaussian, Inc.),
 the Gaussian 90(TM) system (copyright 1990, Gaussian, Inc.),
 the Gaussian 88(TM) system (copyright 1988, Gaussian, Inc.),
 the Gaussian 86(TM) system (copyright 1986, Carnegie Mellon
 University), and the Gaussian 82(TM) system (copyright 1983,
 Carnegie Mellon University). Gaussian is a federally registered
 trademark of Gaussian, Inc.
  
 This software contains proprietary and confidential information,
 including trade secrets, belonging to Gaussian, Inc.
  
 This software is provided under written license and may be
 used, copied, transmitted, or stored only in accord with that
 written license.
  
 The following legend is applicable only to US Government
 contracts under FAR:
  
                    RESTRICTED RIGHTS LEGEND
  
 Use, reproduction and disclosure by the US Government is
 subject to restrictions as set forth in subparagraphs (a)
 and (c) of the Commercial Computer Software - Restricted
 Rights clause in FAR 52.227-19.
  
 Gaussian, Inc.
 340 Quinnipiac St., Bldg. 40, Wallingford CT 06492
  
  
 ---------------------------------------------------------------
 Warning -- This program may not be used in any manner that
 competes with the business of Gaussian, Inc. or will provide
 assistance to any competitor of Gaussian, Inc.  The licensee
 of this program is prohibited from giving any competitor of
 Gaussian, Inc. access to this program.  By using this program,
 the user acknowledges that Gaussian, Inc. is engaged in the
 business of creating and licensing software in the field of
 computational chemistry and represents and warrants to the
 licensee that it is not a competitor of Gaussian, Inc. and that
 it will not use this program in any manner prohibited above.
 ---------------------------------------------------------------
  

 Cite this work as:
 Gaussian 16, Revision A.03,
 M. J. Frisch, G. W. Trucks, H. B. Schlegel, G. E. Scuseria, 
 M. A. Robb, J. R. Cheeseman, G. Scalmani, V. Barone, 
 G. A. Petersson, H. Nakatsuji, X. Li, M. Caricato, A. V. Marenich, 
 J. Bloino, B. G. Janesko, R. Gomperts, B. Mennucci, H. P. Hratchian, 
 J. V. Ortiz, A. F. Izmaylov, J. L. Sonnenberg, D. Williams-Young, 
 F. Ding, F. Lipparini, F. Egidi, J. Goings, B. Peng, A. Petrone, 
 T. Henderson, D. Ranasinghe, V. G. Zakrzewski, J. Gao, N. Rega, 
 G. Zheng, W. Liang, M. Hada, M. Ehara, K. Toyota, R. Fukuda, 
 J. Hasegawa, M. Ishida, T. Nakajima, Y. Honda, O. Kitao, H. Nakai, 
 T. Vreven, K. Throssell, J. A. Montgomery, Jr., J. E. Peralta, 
 F. Ogliaro, M. J. Bearpark, J. J. Heyd, E. N. Brothers, K. N. Kudin, 
 V. N. Staroverov, T. A. Keith, R. Kobayashi, J. Normand, 
 K. Raghavachari, A. P. Rendell, J. C. Burant, S. S. Iyengar, 
 J. Tomasi, M. Cossi, J. M. Millam, M. Klene, C. Adamo, R. Cammi, 
 J. W. Ochterski, R. L. Martin, K. Morokuma, O. Farkas, 
 J. B. Foresman, and D. J. Fox, Gaussian, Inc., Wallingford CT, 2016.
 
 ******************************************
 Gaussian 16:  ES64L-G16RevA.03 25-Dec-2016
                11-Feb-2020 
 ******************************************
 %chk=checkpoint.chk
 %mem=3GB
 %nprocshared=4
 Will use up to    4 processors via shared memory.
 -----------------------------------------
 #t pop=none jul-cc-pvdz guess=read ub3lyp
 -----------------------------------------
 -------------------------
 theory_abbreviation b3lyp
 -------------------------
 Symbolic Z-matrix:
 Charge =  0 Multiplicity = 6
 O                    -0.32537  -0.15721  -0.4799 
 C                    -1.17818  -1.12047  -0.28939 
 C                    -2.64867  -0.31688   0.80235 
 C                    -2.95186   0.72016  -0.0654 
 C                    -3.98688   0.57833  -1.13195 
 Fe                    1.5045    0.17586  -0.08586 
 Cl                    1.82511   2.16347  -0.95628 
 C                    -2.19795   1.9931   -0.02357 
 Cl                    2.55399  -1.49743  -1.04812 
 Cl                    1.75173   0.16798   2.10709 
 H                    -3.33276  -1.16467   0.77038 
 H                    -2.6465    2.77149  -0.64442 
 H                    -2.04552   2.36323   0.99417 
 H                    -1.18946   1.7677   -0.41895 
 H                    -4.80689   1.27434  -0.90367 
 H                    -3.59499   0.88281  -2.11051 
 H                    -4.40205  -0.42891  -1.19787 
 C                    -2.02188  -0.02486   2.15438 
 H                    -2.64123   0.69294   2.70457 
 H                    -1.95552  -0.93075   2.75882 
 H                    -1.01714   0.39505   2.06603 
 C                    -0.75624  -2.22447   0.67144 
 H                    -1.58379  -2.88637   0.93761 
 H                    -0.001    -2.81039   0.13156 
 H                    -0.28125  -1.82919   1.56835 
 C                    -1.82372  -1.64293  -1.56172 
 H                    -1.07215  -2.27407  -2.05108 
 H                    -2.70825  -2.25467  -1.36598 
 H                    -2.06732  -0.83355  -2.2499 
 
                    Distance matrix (angstroms):
                    1          2          3          4          5
     1  O    0.000000
     2  C    1.300553   0.000000
     3  C    2.658459   2.000001   0.000000
     4  C    2.800010   2.565932   1.385770   0.000000
     5  C    3.791153   3.388894   2.516693   1.492953   0.000000
     6  Fe   1.901218   2.986413   4.275576   4.489526   5.604598
     7  Cl   3.199544   4.499862   5.409222   5.069156   6.026838
     8  C    2.887669   3.287075   2.494250   1.480037   2.535807
     9  Cl   3.226418   3.827124   5.646737   6.016465   6.862856
    10  Cl   3.333562   3.998450   4.615293   5.210410   6.602378
    11  H    3.409188   2.401515   1.089839   2.096706   2.661730
    12  H    3.740589   4.174844   3.410453   2.153252   2.616152
    13  H    3.388875   3.812607   2.753830   2.154959   3.387498
    14  H    2.110836   2.891087   2.822471   2.080486   3.122264
    15  H    4.723652   4.390889   3.178107   2.109721   1.099520
    16  H    3.798804   3.629123   3.289309   2.150013   1.097209
    17  H    4.148322   3.420070   2.662283   2.169300   1.091443
    18  C    3.136097   2.807883   1.518594   2.519394   3.876219
    19  H    4.028251   3.793778   2.153652   2.787464   4.067286
    20  H    3.707437   3.151485   2.164498   3.419706   4.641320
    21  H    2.695422   2.805479   2.183023   2.896861   4.368065
    22  C    2.405160   1.523174   2.690234   3.746269   4.641656
    23  H    3.322839   2.188257   2.784704   3.985562   4.697033
    24  H    2.741975   2.102093   3.698342   4.605555   5.382112
    25  H    2.644386   2.181278   2.911793   4.037385   5.178755
    26  C    2.371232   1.519378   2.833341   3.015939   3.130175
    27  H    2.739954   2.108456   3.802381   4.054828   4.180506
    28  H    3.295842   2.187824   2.908651   3.255830   3.116977
    29  H    2.573852   2.171747   3.149790   2.822848   2.632096
                    6          7          8          9         10
     6  Fe   0.000000
     7  Cl   2.193400   0.000000
     8  C    4.124849   4.133285   0.000000
     9  Cl   2.197106   3.733882   5.984517   0.000000
    10  Cl   2.206863   3.656722   4.844662   3.656856   0.000000
    11  H    5.092076   6.376639   3.448135   6.170209   5.423536
    12  H    4.927480   4.523523   1.092037   6.740307   5.804607
    13  H    4.307404   4.338895   1.093636   6.342807   4.525132
    14  H    3.146788   3.087554   1.106435   5.007023   4.194107
    15  H    6.458254   6.691544   2.845649   7.866769   7.300966
    16  H    5.532063   5.687690   2.745862   6.678631   6.847372
    17  H    6.040661   6.749543   3.478952   7.039219   7.010560
    18  C    4.182619   5.409651   2.974327   5.776074   3.778821
    19  H    5.024034   5.959232   3.054446   6.772789   4.464368
    20  H    4.613953   6.137538   4.043433   5.928713   3.921180
    21  H    3.322252   4.509998   2.883486   5.102194   2.778468
    22  C    3.383200   5.344799   4.511038   3.800405   3.751644
    23  H    4.467916   6.380306   5.011016   4.795150   4.671447
    24  H    3.351337   5.409001   5.284329   3.105389   3.980635
    25  H    3.153650   5.172214   4.562657   3.872275   2.900329
    26  C    4.069792   5.307471   3.965687   4.410134   5.433545
    27  H    4.062431   5.411510   4.856636   3.841612   5.588228
    28  H    5.029259   6.343437   4.483967   5.325941   6.150031
    29  H    4.296496   5.080023   3.600492   4.820947   5.879761
                   11         12         13         14         15
    11  H    0.000000
    12  H    4.238630   0.000000
    13  H    3.762068   1.792438   0.000000
    14  H    3.821914   1.783652   1.756256   0.000000
    15  H    3.305183   2.641206   3.523156   3.682956   0.000000
    16  H    3.544078   2.572192   3.772474   3.070990   1.754558
    17  H    2.357692   3.691994   4.260785   3.968945   1.775243
    18  C    2.221047   4.005373   2.655111   3.244720   4.335419
    19  H    2.769482   3.941589   2.463774   3.608199   4.248232
    20  H    2.430102   5.076029   3.737966   4.238713   5.138724
    21  H    3.077903   3.955856   2.465803   2.844110   4.894321
    22  C    2.787728   5.501292   4.776343   4.161013   5.579458
    23  H    2.459904   5.970225   5.270176   4.863753   5.575855
    24  H    3.770559   6.225606   5.629434   4.761756   6.391652
    25  H    3.223363   5.626456   4.584621   4.208535   6.018650
    26  C    2.818622   4.583183   4.757223   3.652480   4.224072
    27  H    3.781767   5.469453   5.632546   4.360441   5.277875
    28  H    2.478334   5.078063   5.228244   4.402614   4.131809
    29  H    3.291363   3.988652   4.554549   3.299926   3.709548
                   16         17         18         19         20
    16  H    0.000000
    17  H    1.790219   0.000000
    18  C    4.635500   4.131105   0.000000
    19  H    4.912303   4.425837   1.096146   0.000000
    20  H    5.448600   4.678962   1.091049   1.763378   0.000000
    21  H    4.932206   4.773831   1.092525   1.770344   1.765858
    22  C    5.045090   4.473282   2.939263   4.024688   2.732980
    23  H    5.248114   4.306038   3.140180   4.129386   2.698050
    24  H    5.619905   5.177648   3.991860   5.085717   3.775677
    25  H    5.645336   5.156909   2.574654   3.636160   2.242239
    26  C    3.133361   2.872982   4.057937   4.932126   4.380828
    27  H    4.041547   3.901384   4.862802   5.820769   5.071491
    28  H    3.344306   2.496115   4.223283   5.026158   4.396971
    29  H    2.301973   2.592578   4.478142   5.215968   5.010912
                   21         22         23         24         25
    21  H    0.000000
    22  C    2.979067   0.000000
    23  H    3.515982   1.092608   0.000000
    24  H    3.879373   1.097797   1.777840   0.000000
    25  H    2.395091   1.089181   1.792228   1.762286   0.000000
    26  C    4.238452   2.542575   2.801846   2.748170   3.494457
    27  H    4.906911   2.741235   3.093373   2.489762   3.731448
    28  H    4.653978   2.821762   2.640075   3.143355   3.831667
    29  H    4.608639   3.491105   3.822053   3.721413   4.331325
                   26         27         28         29
    26  C    0.000000
    27  H    1.096657   0.000000
    28  H    1.093129   1.773859   0.000000
    29  H    1.089972   1.762095   1.792116   0.000000
 Framework group  C1[X(C8H16Cl3FeO)]
 Deg. of freedom    81
                         Standard orientation:                         
 ---------------------------------------------------------------------
 Center     Atomic      Atomic             Coordinates (Angstroms)
 Number     Number       Type             X           Y           Z
 ---------------------------------------------------------------------
      1          8           0       -0.325371   -0.157212   -0.479904
      2          6           0       -1.178182   -1.120465   -0.289393
      3          6           0       -2.648672   -0.316878    0.802353
      4          6           0       -2.951864    0.720156   -0.065399
      5          6           0       -3.986879    0.578334   -1.131954
      6         26           0        1.504499    0.175862   -0.085863
      7         17           0        1.825114    2.163470   -0.956280
      8          6           0       -2.197954    1.993097   -0.023572
      9         17           0        2.553990   -1.497429   -1.048120
     10         17           0        1.751725    0.167982    2.107094
     11          1           0       -3.332759   -1.164670    0.770379
     12          1           0       -2.646498    2.771492   -0.644421
     13          1           0       -2.045524    2.363233    0.994173
     14          1           0       -1.189456    1.767696   -0.418951
     15          1           0       -4.806887    1.274335   -0.903669
     16          1           0       -3.594985    0.882811   -2.110514
     17          1           0       -4.402047   -0.428909   -1.197866
     18          6           0       -2.021876   -0.024857    2.154381
     19          1           0       -2.641226    0.692943    2.704568
     20          1           0       -1.955524   -0.930748    2.758820
     21          1           0       -1.017145    0.395048    2.066026
     22          6           0       -0.756239   -2.224472    0.671436
     23          1           0       -1.583786   -2.886372    0.937606
     24          1           0       -0.000996   -2.810385    0.131555
     25          1           0       -0.281245   -1.829188    1.568345
     26          6           0       -1.823718   -1.642934   -1.561721
     27          1           0       -1.072149   -2.274065   -2.051083
     28          1           0       -2.708253   -2.254666   -1.365982
     29          1           0       -2.067321   -0.833550   -2.249902
 ---------------------------------------------------------------------
 Rotational constants (GHZ):           0.5939930           0.3125739           0.2984184
   427 basis functions,  1056 primitive gaussians,   461 cartesian basis functions
    77 alpha electrons       72 beta electrons
       nuclear repulsion energy      1629.6907118795 Hartrees.
 NAtoms=   29 NActive=   29 NUniq=   29 SFac= 1.00D+00 NAtFMM=   60 NAOKFM=F Big=F
 Initial guess from the checkpoint file:  "checkpoint.chk"
 B after Tr=     0.000000    0.000000    0.000000
         Rot=    1.000000    0.000000    0.000000    0.000000 Ang=   0.00 deg.
 Initial guess <Sx>= 0.0000 <Sy>= 0.0000 <Sz>= 2.5000 <S**2>= 8.7627 S= 2.5021
 SCF Done:  E(UB3LYP) =  -3034.33035986     A.U. after   15 cycles
            NFock= 15  Conv=0.67D-08     -V/T= 2.0024
 <Sx>= 0.0000 <Sy>= 0.0000 <Sz>= 2.5000 <S**2>= 8.7620 S= 2.5020
 <L.S>= 0.000000000000E+00
 Annihilation of the first spin contaminant:
 S**2 before annihilation     8.7620,   after     8.7500
 1\1\GINC-HOLY7C08607\SP\UB3LYP\Jul-CC-pVDZ\C8H16Cl3Fe1O1(6)\EKWAN\11-F
 eb-2020\0\\#t pop=none jul-cc-pvdz guess=read ub3lyp\\theory_abbreviat
 ion b3lyp\\0,6\O,0,-0.325371,-0.157212,-0.479904\C,0,-1.178182,-1.1204
 65,-0.289393\C,0,-2.648672,-0.316878,0.802353\C,0,-2.951864,0.720156,-
 0.065399\C,0,-3.986879,0.578334,-1.131954\Fe,0,1.504499,0.175862,-0.08
 5863\Cl,0,1.825114,2.16347,-0.95628\C,0,-2.197954,1.993097,-0.023572\C
 l,0,2.55399,-1.497429,-1.04812\Cl,0,1.751725,0.167982,2.107094\H,0,-3.
 332759,-1.16467,0.770379\H,0,-2.646498,2.771492,-0.644421\H,0,-2.04552
 4,2.363233,0.994173\H,0,-1.189456,1.767696,-0.418951\H,0,-4.806887,1.2
 74335,-0.903669\H,0,-3.594985,0.882811,-2.110514\H,0,-4.402047,-0.4289
 09,-1.197866\C,0,-2.021876,-0.024857,2.154381\H,0,-2.641226,0.692943,2
 .704568\H,0,-1.955524,-0.930748,2.75882\H,0,-1.017145,0.395048,2.06602
 6\C,0,-0.756239,-2.224472,0.671436\H,0,-1.583786,-2.886372,0.937606\H,
 0,-0.000996,-2.810385,0.131555\H,0,-0.281245,-1.829188,1.568345\C,0,-1
 .823718,-1.642934,-1.561721\H,0,-1.072149,-2.274065,-2.051083\H,0,-2.7
 08253,-2.254666,-1.365982\H,0,-2.067321,-0.83355,-2.249902\\Version=ES
 64L-G16RevA.03\HF=-3034.3303599\S2=8.761986\S2-1=0.\S2A=8.750045\RMSD=
 6.720e-09\PG=C01 [X(C8H16Cl3Fe1O1)]\\@


 There are more things in heaven and earth, Horatio,
 than are dreamt of in your philosophy.
                   -- Hamlet, Act I, Scene 5
 Job cpu time:       0 days  1 hours  2 minutes 48.3 seconds.
 Elapsed time:       0 days  0 hours 15 minutes 44.8 seconds.
 File lengths (MBytes):  RWF=    174 Int=      0 D2E=      0 Chk=     13 Scr=      1
 Normal termination of Gaussian 16 at Tue Feb 11 14:16:02 2020.
 Initial command:
 /n/sw/g16_nehalem/g16/l1.exe "/scratch/Gau-98688.inp" -scrdir="/scratch/"
 Entering Link 1 = /n/sw/g16_nehalem/g16/l1.exe PID=    102915.
  
 Copyright (c) 1988,1990,1992,1993,1995,1998,2003,2009,2016,
            Gaussian, Inc.  All Rights Reserved.
  
 This is part of the Gaussian(R) 16 program.  It is based on
 the Gaussian(R) 09 system (copyright 2009, Gaussian, Inc.),
 the Gaussian(R) 03 system (copyright 2003, Gaussian, Inc.),
 the Gaussian(R) 98 system (copyright 1998, Gaussian, Inc.),
 the Gaussian(R) 94 system (copyright 1995, Gaussian, Inc.),
 the Gaussian 92(TM) system (copyright 1992, Gaussian, Inc.),
 the Gaussian 90(TM) system (copyright 1990, Gaussian, Inc.),
 the Gaussian 88(TM) system (copyright 1988, Gaussian, Inc.),
 the Gaussian 86(TM) system (copyright 1986, Carnegie Mellon
 University), and the Gaussian 82(TM) system (copyright 1983,
 Carnegie Mellon University). Gaussian is a federally registered
 trademark of Gaussian, Inc.
  
 This software contains proprietary and confidential information,
 including trade secrets, belonging to Gaussian, Inc.
  
 This software is provided under written license and may be
 used, copied, transmitted, or stored only in accord with that
 written license.
  
 The following legend is applicable only to US Government
 contracts under FAR:
  
                    RESTRICTED RIGHTS LEGEND
  
 Use, reproduction and disclosure by the US Government is
 subject to restrictions as set forth in subparagraphs (a)
 and (c) of the Commercial Computer Software - Restricted
 Rights clause in FAR 52.227-19.
  
 Gaussian, Inc.
 340 Quinnipiac St., Bldg. 40, Wallingford CT 06492
  
  
 ---------------------------------------------------------------
 Warning -- This program may not be used in any manner that
 competes with the business of Gaussian, Inc. or will provide
 assistance to any competitor of Gaussian, Inc.  The licensee
 of this program is prohibited from giving any competitor of
 Gaussian, Inc. access to this program.  By using this program,
 the user acknowledges that Gaussian, Inc. is engaged in the
 business of creating and licensing software in the field of
 computational chemistry and represents and warrants to the
 licensee that it is not a competitor of Gaussian, Inc. and that
 it will not use this program in any manner prohibited above.
 ---------------------------------------------------------------
  

 Cite this work as:
 Gaussian 16, Revision A.03,
 M. J. Frisch, G. W. Trucks, H. B. Schlegel, G. E. Scuseria, 
 M. A. Robb, J. R. Cheeseman, G. Scalmani, V. Barone, 
 G. A. Petersson, H. Nakatsuji, X. Li, M. Caricato, A. V. Marenich, 
 J. Bloino, B. G. Janesko, R. Gomperts, B. Mennucci, H. P. Hratchian, 
 J. V. Ortiz, A. F. Izmaylov, J. L. Sonnenberg, D. Williams-Young, 
 F. Ding, F. Lipparini, F. Egidi, J. Goings, B. Peng, A. Petrone, 
 T. Henderson, D. Ranasinghe, V. G. Zakrzewski, J. Gao, N. Rega, 
 G. Zheng, W. Liang, M. Hada, M. Ehara, K. Toyota, R. Fukuda, 
 J. Hasegawa, M. Ishida, T. Nakajima, Y. Honda, O. Kitao, H. Nakai, 
 T. Vreven, K. Throssell, J. A. Montgomery, Jr., J. E. Peralta, 
 F. Ogliaro, M. J. Bearpark, J. J. Heyd, E. N. Brothers, K. N. Kudin, 
 V. N. Staroverov, T. A. Keith, R. Kobayashi, J. Normand, 
 K. Raghavachari, A. P. Rendell, J. C. Burant, S. S. Iyengar, 
 J. Tomasi, M. Cossi, J. M. Millam, M. Klene, C. Adamo, R. Cammi, 
 J. W. Ochterski, R. L. Martin, K. Morokuma, O. Farkas, 
 J. B. Foresman, and D. J. Fox, Gaussian, Inc., Wallingford CT, 2016.
 
 ******************************************
 Gaussian 16:  ES64L-G16RevA.03 25-Dec-2016
                11-Feb-2020 
 ******************************************
 %chk=checkpoint.chk
 %mem=3GB
 %nprocshared=4
 Will use up to    4 processors via shared memory.
 -------------------------------------------------------------------
 #t pop=none jul-cc-pvdz guess=read ub3lyp empiricaldispersion=gd3bj
 -------------------------------------------------------------------
 ------------------------------
 theory_abbreviation b3lyp_d3bj
 ------------------------------
 Symbolic Z-matrix:
 Charge =  0 Multiplicity = 6
 O                    -0.32537  -0.15721  -0.4799 
 C                    -1.17818  -1.12047  -0.28939 
 C                    -2.64867  -0.31688   0.80235 
 C                    -2.95186   0.72016  -0.0654 
 C                    -3.98688   0.57833  -1.13195 
 Fe                    1.5045    0.17586  -0.08586 
 Cl                    1.82511   2.16347  -0.95628 
 C                    -2.19795   1.9931   -0.02357 
 Cl                    2.55399  -1.49743  -1.04812 
 Cl                    1.75173   0.16798   2.10709 
 H                    -3.33276  -1.16467   0.77038 
 H                    -2.6465    2.77149  -0.64442 
 H                    -2.04552   2.36323   0.99417 
 H                    -1.18946   1.7677   -0.41895 
 H                    -4.80689   1.27434  -0.90367 
 H                    -3.59499   0.88281  -2.11051 
 H                    -4.40205  -0.42891  -1.19787 
 C                    -2.02188  -0.02486   2.15438 
 H                    -2.64123   0.69294   2.70457 
 H                    -1.95552  -0.93075   2.75882 
 H                    -1.01714   0.39505   2.06603 
 C                    -0.75624  -2.22447   0.67144 
 H                    -1.58379  -2.88637   0.93761 
 H                    -0.001    -2.81039   0.13156 
 H                    -0.28125  -1.82919   1.56835 
 C                    -1.82372  -1.64293  -1.56172 
 H                    -1.07215  -2.27407  -2.05108 
 H                    -2.70825  -2.25467  -1.36598 
 H                    -2.06732  -0.83355  -2.2499 
 
                    Distance matrix (angstroms):
                    1          2          3          4          5
     1  O    0.000000
     2  C    1.300553   0.000000
     3  C    2.658459   2.000001   0.000000
     4  C    2.800010   2.565932   1.385770   0.000000
     5  C    3.791153   3.388894   2.516693   1.492953   0.000000
     6  Fe   1.901218   2.986413   4.275576   4.489526   5.604598
     7  Cl   3.199544   4.499862   5.409222   5.069156   6.026838
     8  C    2.887669   3.287075   2.494250   1.480037   2.535807
     9  Cl   3.226418   3.827124   5.646737   6.016465   6.862856
    10  Cl   3.333562   3.998450   4.615293   5.210410   6.602378
    11  H    3.409188   2.401515   1.089839   2.096706   2.661730
    12  H    3.740589   4.174844   3.410453   2.153252   2.616152
    13  H    3.388875   3.812607   2.753830   2.154959   3.387498
    14  H    2.110836   2.891087   2.822471   2.080486   3.122264
    15  H    4.723652   4.390889   3.178107   2.109721   1.099520
    16  H    3.798804   3.629123   3.289309   2.150013   1.097209
    17  H    4.148322   3.420070   2.662283   2.169300   1.091443
    18  C    3.136097   2.807883   1.518594   2.519394   3.876219
    19  H    4.028251   3.793778   2.153652   2.787464   4.067286
    20  H    3.707437   3.151485   2.164498   3.419706   4.641320
    21  H    2.695422   2.805479   2.183023   2.896861   4.368065
    22  C    2.405160   1.523174   2.690234   3.746269   4.641656
    23  H    3.322839   2.188257   2.784704   3.985562   4.697033
    24  H    2.741975   2.102093   3.698342   4.605555   5.382112
    25  H    2.644386   2.181278   2.911793   4.037385   5.178755
    26  C    2.371232   1.519378   2.833341   3.015939   3.130175
    27  H    2.739954   2.108456   3.802381   4.054828   4.180506
    28  H    3.295842   2.187824   2.908651   3.255830   3.116977
    29  H    2.573852   2.171747   3.149790   2.822848   2.632096
                    6          7          8          9         10
     6  Fe   0.000000
     7  Cl   2.193400   0.000000
     8  C    4.124849   4.133285   0.000000
     9  Cl   2.197106   3.733882   5.984517   0.000000
    10  Cl   2.206863   3.656722   4.844662   3.656856   0.000000
    11  H    5.092076   6.376639   3.448135   6.170209   5.423536
    12  H    4.927480   4.523523   1.092037   6.740307   5.804607
    13  H    4.307404   4.338895   1.093636   6.342807   4.525132
    14  H    3.146788   3.087554   1.106435   5.007023   4.194107
    15  H    6.458254   6.691544   2.845649   7.866769   7.300966
    16  H    5.532063   5.687690   2.745862   6.678631   6.847372
    17  H    6.040661   6.749543   3.478952   7.039219   7.010560
    18  C    4.182619   5.409651   2.974327   5.776074   3.778821
    19  H    5.024034   5.959232   3.054446   6.772789   4.464368
    20  H    4.613953   6.137538   4.043433   5.928713   3.921180
    21  H    3.322252   4.509998   2.883486   5.102194   2.778468
    22  C    3.383200   5.344799   4.511038   3.800405   3.751644
    23  H    4.467916   6.380306   5.011016   4.795150   4.671447
    24  H    3.351337   5.409001   5.284329   3.105389   3.980635
    25  H    3.153650   5.172214   4.562657   3.872275   2.900329
    26  C    4.069792   5.307471   3.965687   4.410134   5.433545
    27  H    4.062431   5.411510   4.856636   3.841612   5.588228
    28  H    5.029259   6.343437   4.483967   5.325941   6.150031
    29  H    4.296496   5.080023   3.600492   4.820947   5.879761
                   11         12         13         14         15
    11  H    0.000000
    12  H    4.238630   0.000000
    13  H    3.762068   1.792438   0.000000
    14  H    3.821914   1.783652   1.756256   0.000000
    15  H    3.305183   2.641206   3.523156   3.682956   0.000000
    16  H    3.544078   2.572192   3.772474   3.070990   1.754558
    17  H    2.357692   3.691994   4.260785   3.968945   1.775243
    18  C    2.221047   4.005373   2.655111   3.244720   4.335419
    19  H    2.769482   3.941589   2.463774   3.608199   4.248232
    20  H    2.430102   5.076029   3.737966   4.238713   5.138724
    21  H    3.077903   3.955856   2.465803   2.844110   4.894321
    22  C    2.787728   5.501292   4.776343   4.161013   5.579458
    23  H    2.459904   5.970225   5.270176   4.863753   5.575855
    24  H    3.770559   6.225606   5.629434   4.761756   6.391652
    25  H    3.223363   5.626456   4.584621   4.208535   6.018650
    26  C    2.818622   4.583183   4.757223   3.652480   4.224072
    27  H    3.781767   5.469453   5.632546   4.360441   5.277875
    28  H    2.478334   5.078063   5.228244   4.402614   4.131809
    29  H    3.291363   3.988652   4.554549   3.299926   3.709548
                   16         17         18         19         20
    16  H    0.000000
    17  H    1.790219   0.000000
    18  C    4.635500   4.131105   0.000000
    19  H    4.912303   4.425837   1.096146   0.000000
    20  H    5.448600   4.678962   1.091049   1.763378   0.000000
    21  H    4.932206   4.773831   1.092525   1.770344   1.765858
    22  C    5.045090   4.473282   2.939263   4.024688   2.732980
    23  H    5.248114   4.306038   3.140180   4.129386   2.698050
    24  H    5.619905   5.177648   3.991860   5.085717   3.775677
    25  H    5.645336   5.156909   2.574654   3.636160   2.242239
    26  C    3.133361   2.872982   4.057937   4.932126   4.380828
    27  H    4.041547   3.901384   4.862802   5.820769   5.071491
    28  H    3.344306   2.496115   4.223283   5.026158   4.396971
    29  H    2.301973   2.592578   4.478142   5.215968   5.010912
                   21         22         23         24         25
    21  H    0.000000
    22  C    2.979067   0.000000
    23  H    3.515982   1.092608   0.000000
    24  H    3.879373   1.097797   1.777840   0.000000
    25  H    2.395091   1.089181   1.792228   1.762286   0.000000
    26  C    4.238452   2.542575   2.801846   2.748170   3.494457
    27  H    4.906911   2.741235   3.093373   2.489762   3.731448
    28  H    4.653978   2.821762   2.640075   3.143355   3.831667
    29  H    4.608639   3.491105   3.822053   3.721413   4.331325
                   26         27         28         29
    26  C    0.000000
    27  H    1.096657   0.000000
    28  H    1.093129   1.773859   0.000000
    29  H    1.089972   1.762095   1.792116   0.000000
 Framework group  C1[X(C8H16Cl3FeO)]
 Deg. of freedom    81
                         Standard orientation:                         
 ---------------------------------------------------------------------
 Center     Atomic      Atomic             Coordinates (Angstroms)
 Number     Number       Type             X           Y           Z
 ---------------------------------------------------------------------
      1          8           0       -0.325371   -0.157212   -0.479904
      2          6           0       -1.178182   -1.120465   -0.289393
      3          6           0       -2.648672   -0.316878    0.802353
      4          6           0       -2.951864    0.720156   -0.065399
      5          6           0       -3.986879    0.578334   -1.131954
      6         26           0        1.504499    0.175862   -0.085863
      7         17           0        1.825114    2.163470   -0.956280
      8          6           0       -2.197954    1.993097   -0.023572
      9         17           0        2.553990   -1.497429   -1.048120
     10         17           0        1.751725    0.167982    2.107094
     11          1           0       -3.332759   -1.164670    0.770379
     12          1           0       -2.646498    2.771492   -0.644421
     13          1           0       -2.045524    2.363233    0.994173
     14          1           0       -1.189456    1.767696   -0.418951
     15          1           0       -4.806887    1.274335   -0.903669
     16          1           0       -3.594985    0.882811   -2.110514
     17          1           0       -4.402047   -0.428909   -1.197866
     18          6           0       -2.021876   -0.024857    2.154381
     19          1           0       -2.641226    0.692943    2.704568
     20          1           0       -1.955524   -0.930748    2.758820
     21          1           0       -1.017145    0.395048    2.066026
     22          6           0       -0.756239   -2.224472    0.671436
     23          1           0       -1.583786   -2.886372    0.937606
     24          1           0       -0.000996   -2.810385    0.131555
     25          1           0       -0.281245   -1.829188    1.568345
     26          6           0       -1.823718   -1.642934   -1.561721
     27          1           0       -1.072149   -2.274065   -2.051083
     28          1           0       -2.708253   -2.254666   -1.365982
     29          1           0       -2.067321   -0.833550   -2.249902
 ---------------------------------------------------------------------
 Rotational constants (GHZ):           0.5939930           0.3125739           0.2984184
   427 basis functions,  1056 primitive gaussians,   461 cartesian basis functions
    77 alpha electrons       72 beta electrons
       nuclear repulsion energy      1629.6907118795 Hartrees.
 NAtoms=   29 NActive=   29 NUniq=   29 SFac= 1.00D+00 NAtFMM=   60 NAOKFM=F Big=F
 Nuclear repulsion after empirical dispersion term =     1629.6232624055 Hartrees.
 Initial guess from the checkpoint file:  "checkpoint.chk"
 B after Tr=     0.000000    0.000000    0.000000
         Rot=    1.000000    0.000000    0.000000    0.000000 Ang=   0.00 deg.
 Initial guess <Sx>= 0.0000 <Sy>= 0.0000 <Sz>= 2.5000 <S**2>= 8.7620 S= 2.5020
 SCF Done:  E(UB3LYP) =  -3034.39780934     A.U. after    1 cycles
            NFock=  1  Conv=0.20D-08     -V/T= 2.0024
 <Sx>= 0.0000 <Sy>= 0.0000 <Sz>= 2.5000 <S**2>= 8.7620 S= 2.5020
 <L.S>= 0.000000000000E+00
 Annihilation of the first spin contaminant:
 S**2 before annihilation     8.7620,   after     8.7500
 1\1\GINC-HOLY7C08607\SP\UB3LYP\Jul-CC-pVDZ\C8H16Cl3Fe1O1(6)\EKWAN\11-F
 eb-2020\0\\#t pop=none jul-cc-pvdz guess=read ub3lyp empiricaldispersi
 on=gd3bj\\theory_abbreviation b3lyp_d3bj\\0,6\O,0,-0.325371,-0.157212,
 -0.479904\C,0,-1.178182,-1.120465,-0.289393\C,0,-2.648672,-0.316878,0.
 802353\C,0,-2.951864,0.720156,-0.065399\C,0,-3.986879,0.578334,-1.1319
 54\Fe,0,1.504499,0.175862,-0.085863\Cl,0,1.825114,2.16347,-0.95628\C,0
 ,-2.197954,1.993097,-0.023572\Cl,0,2.55399,-1.497429,-1.04812\Cl,0,1.7
 51725,0.167982,2.107094\H,0,-3.332759,-1.16467,0.770379\H,0,-2.646498,
 2.771492,-0.644421\H,0,-2.045524,2.363233,0.994173\H,0,-1.189456,1.767
 696,-0.418951\H,0,-4.806887,1.274335,-0.903669\H,0,-3.594985,0.882811,
 -2.110514\H,0,-4.402047,-0.428909,-1.197866\C,0,-2.021876,-0.024857,2.
 154381\H,0,-2.641226,0.692943,2.704568\H,0,-1.955524,-0.930748,2.75882
 \H,0,-1.017145,0.395048,2.066026\C,0,-0.756239,-2.224472,0.671436\H,0,
 -1.583786,-2.886372,0.937606\H,0,-0.000996,-2.810385,0.131555\H,0,-0.2
 81245,-1.829188,1.568345\C,0,-1.823718,-1.642934,-1.561721\H,0,-1.0721
 49,-2.274065,-2.051083\H,0,-2.708253,-2.254666,-1.365982\H,0,-2.067321
 ,-0.83355,-2.249902\\Version=ES64L-G16RevA.03\HF=-3034.3978093\S2=8.76
 1986\S2-1=0.\S2A=8.750045\RMSD=1.960e-09\PG=C01 [X(C8H16Cl3Fe1O1)]\\@


 Discoveries are often made by not following instructions,
 by going off the main road, by trying the untried.
 -- Frank Tyger
 Job cpu time:       0 days  0 hours  4 minutes 37.2 seconds.
 Elapsed time:       0 days  0 hours  1 minutes  9.8 seconds.
 File lengths (MBytes):  RWF=    170 Int=      0 D2E=      0 Chk=     13 Scr=      1
 Normal termination of Gaussian 16 at Tue Feb 11 14:17:12 2020.
 Initial command:
 /n/sw/g16_nehalem/g16/l1.exe "/scratch/Gau-98688.inp" -scrdir="/scratch/"
 Entering Link 1 = /n/sw/g16_nehalem/g16/l1.exe PID=    103197.
  
 Copyright (c) 1988,1990,1992,1993,1995,1998,2003,2009,2016,
            Gaussian, Inc.  All Rights Reserved.
  
 This is part of the Gaussian(R) 16 program.  It is based on
 the Gaussian(R) 09 system (copyright 2009, Gaussian, Inc.),
 the Gaussian(R) 03 system (copyright 2003, Gaussian, Inc.),
 the Gaussian(R) 98 system (copyright 1998, Gaussian, Inc.),
 the Gaussian(R) 94 system (copyright 1995, Gaussian, Inc.),
 the Gaussian 92(TM) system (copyright 1992, Gaussian, Inc.),
 the Gaussian 90(TM) system (copyright 1990, Gaussian, Inc.),
 the Gaussian 88(TM) system (copyright 1988, Gaussian, Inc.),
 the Gaussian 86(TM) system (copyright 1986, Carnegie Mellon
 University), and the Gaussian 82(TM) system (copyright 1983,
 Carnegie Mellon University). Gaussian is a federally registered
 trademark of Gaussian, Inc.
  
 This software contains proprietary and confidential information,
 including trade secrets, belonging to Gaussian, Inc.
  
 This software is provided under written license and may be
 used, copied, transmitted, or stored only in accord with that
 written license.
  
 The following legend is applicable only to US Government
 contracts under FAR:
  
                    RESTRICTED RIGHTS LEGEND
  
 Use, reproduction and disclosure by the US Government is
 subject to restrictions as set forth in subparagraphs (a)
 and (c) of the Commercial Computer Software - Restricted
 Rights clause in FAR 52.227-19.
  
 Gaussian, Inc.
 340 Quinnipiac St., Bldg. 40, Wallingford CT 06492
  
  
 ---------------------------------------------------------------
 Warning -- This program may not be used in any manner that
 competes with the business of Gaussian, Inc. or will provide
 assistance to any competitor of Gaussian, Inc.  The licensee
 of this program is prohibited from giving any competitor of
 Gaussian, Inc. access to this program.  By using this program,
 the user acknowledges that Gaussian, Inc. is engaged in the
 business of creating and licensing software in the field of
 computational chemistry and represents and warrants to the
 licensee that it is not a competitor of Gaussian, Inc. and that
 it will not use this program in any manner prohibited above.
 ---------------------------------------------------------------
  

 Cite this work as:
 Gaussian 16, Revision A.03,
 M. J. Frisch, G. W. Trucks, H. B. Schlegel, G. E. Scuseria, 
 M. A. Robb, J. R. Cheeseman, G. Scalmani, V. Barone, 
 G. A. Petersson, H. Nakatsuji, X. Li, M. Caricato, A. V. Marenich, 
 J. Bloino, B. G. Janesko, R. Gomperts, B. Mennucci, H. P. Hratchian, 
 J. V. Ortiz, A. F. Izmaylov, J. L. Sonnenberg, D. Williams-Young, 
 F. Ding, F. Lipparini, F. Egidi, J. Goings, B. Peng, A. Petrone, 
 T. Henderson, D. Ranasinghe, V. G. Zakrzewski, J. Gao, N. Rega, 
 G. Zheng, W. Liang, M. Hada, M. Ehara, K. Toyota, R. Fukuda, 
 J. Hasegawa, M. Ishida, T. Nakajima, Y. Honda, O. Kitao, H. Nakai, 
 T. Vreven, K. Throssell, J. A. Montgomery, Jr., J. E. Peralta, 
 F. Ogliaro, M. J. Bearpark, J. J. Heyd, E. N. Brothers, K. N. Kudin, 
 V. N. Staroverov, T. A. Keith, R. Kobayashi, J. Normand, 
 K. Raghavachari, A. P. Rendell, J. C. Burant, S. S. Iyengar, 
 J. Tomasi, M. Cossi, J. M. Millam, M. Klene, C. Adamo, R. Cammi, 
 J. W. Ochterski, R. L. Martin, K. Morokuma, O. Farkas, 
 J. B. Foresman, and D. J. Fox, Gaussian, Inc., Wallingford CT, 2016.
 
 ******************************************
 Gaussian 16:  ES64L-G16RevA.03 25-Dec-2016
                11-Feb-2020 
 ******************************************
 %chk=checkpoint.chk
 %mem=3GB
 %nprocshared=4
 Will use up to    4 processors via shared memory.
 ----------------------------------------
 #t pop=none jul-cc-pvdz guess=read ub97d
 ----------------------------------------
 ------------------------
 theory_abbreviation b97d
 ------------------------
 Symbolic Z-matrix:
 Charge =  0 Multiplicity = 6
 O                    -0.32537  -0.15721  -0.4799 
 C                    -1.17818  -1.12047  -0.28939 
 C                    -2.64867  -0.31688   0.80235 
 C                    -2.95186   0.72016  -0.0654 
 C                    -3.98688   0.57833  -1.13195 
 Fe                    1.5045    0.17586  -0.08586 
 Cl                    1.82511   2.16347  -0.95628 
 C                    -2.19795   1.9931   -0.02357 
 Cl                    2.55399  -1.49743  -1.04812 
 Cl                    1.75173   0.16798   2.10709 
 H                    -3.33276  -1.16467   0.77038 
 H                    -2.6465    2.77149  -0.64442 
 H                    -2.04552   2.36323   0.99417 
 H                    -1.18946   1.7677   -0.41895 
 H                    -4.80689   1.27434  -0.90367 
 H                    -3.59499   0.88281  -2.11051 
 H                    -4.40205  -0.42891  -1.19787 
 C                    -2.02188  -0.02486   2.15438 
 H                    -2.64123   0.69294   2.70457 
 H                    -1.95552  -0.93075   2.75882 
 H                    -1.01714   0.39505   2.06603 
 C                    -0.75624  -2.22447   0.67144 
 H                    -1.58379  -2.88637   0.93761 
 H                    -0.001    -2.81039   0.13156 
 H                    -0.28125  -1.82919   1.56835 
 C                    -1.82372  -1.64293  -1.56172 
 H                    -1.07215  -2.27407  -2.05108 
 H                    -2.70825  -2.25467  -1.36598 
 H                    -2.06732  -0.83355  -2.2499 
 
                    Distance matrix (angstroms):
                    1          2          3          4          5
     1  O    0.000000
     2  C    1.300553   0.000000
     3  C    2.658459   2.000001   0.000000
     4  C    2.800010   2.565932   1.385770   0.000000
     5  C    3.791153   3.388894   2.516693   1.492953   0.000000
     6  Fe   1.901218   2.986413   4.275576   4.489526   5.604598
     7  Cl   3.199544   4.499862   5.409222   5.069156   6.026838
     8  C    2.887669   3.287075   2.494250   1.480037   2.535807
     9  Cl   3.226418   3.827124   5.646737   6.016465   6.862856
    10  Cl   3.333562   3.998450   4.615293   5.210410   6.602378
    11  H    3.409188   2.401515   1.089839   2.096706   2.661730
    12  H    3.740589   4.174844   3.410453   2.153252   2.616152
    13  H    3.388875   3.812607   2.753830   2.154959   3.387498
    14  H    2.110836   2.891087   2.822471   2.080486   3.122264
    15  H    4.723652   4.390889   3.178107   2.109721   1.099520
    16  H    3.798804   3.629123   3.289309   2.150013   1.097209
    17  H    4.148322   3.420070   2.662283   2.169300   1.091443
    18  C    3.136097   2.807883   1.518594   2.519394   3.876219
    19  H    4.028251   3.793778   2.153652   2.787464   4.067286
    20  H    3.707437   3.151485   2.164498   3.419706   4.641320
    21  H    2.695422   2.805479   2.183023   2.896861   4.368065
    22  C    2.405160   1.523174   2.690234   3.746269   4.641656
    23  H    3.322839   2.188257   2.784704   3.985562   4.697033
    24  H    2.741975   2.102093   3.698342   4.605555   5.382112
    25  H    2.644386   2.181278   2.911793   4.037385   5.178755
    26  C    2.371232   1.519378   2.833341   3.015939   3.130175
    27  H    2.739954   2.108456   3.802381   4.054828   4.180506
    28  H    3.295842   2.187824   2.908651   3.255830   3.116977
    29  H    2.573852   2.171747   3.149790   2.822848   2.632096
                    6          7          8          9         10
     6  Fe   0.000000
     7  Cl   2.193400   0.000000
     8  C    4.124849   4.133285   0.000000
     9  Cl   2.197106   3.733882   5.984517   0.000000
    10  Cl   2.206863   3.656722   4.844662   3.656856   0.000000
    11  H    5.092076   6.376639   3.448135   6.170209   5.423536
    12  H    4.927480   4.523523   1.092037   6.740307   5.804607
    13  H    4.307404   4.338895   1.093636   6.342807   4.525132
    14  H    3.146788   3.087554   1.106435   5.007023   4.194107
    15  H    6.458254   6.691544   2.845649   7.866769   7.300966
    16  H    5.532063   5.687690   2.745862   6.678631   6.847372
    17  H    6.040661   6.749543   3.478952   7.039219   7.010560
    18  C    4.182619   5.409651   2.974327   5.776074   3.778821
    19  H    5.024034   5.959232   3.054446   6.772789   4.464368
    20  H    4.613953   6.137538   4.043433   5.928713   3.921180
    21  H    3.322252   4.509998   2.883486   5.102194   2.778468
    22  C    3.383200   5.344799   4.511038   3.800405   3.751644
    23  H    4.467916   6.380306   5.011016   4.795150   4.671447
    24  H    3.351337   5.409001   5.284329   3.105389   3.980635
    25  H    3.153650   5.172214   4.562657   3.872275   2.900329
    26  C    4.069792   5.307471   3.965687   4.410134   5.433545
    27  H    4.062431   5.411510   4.856636   3.841612   5.588228
    28  H    5.029259   6.343437   4.483967   5.325941   6.150031
    29  H    4.296496   5.080023   3.600492   4.820947   5.879761
                   11         12         13         14         15
    11  H    0.000000
    12  H    4.238630   0.000000
    13  H    3.762068   1.792438   0.000000
    14  H    3.821914   1.783652   1.756256   0.000000
    15  H    3.305183   2.641206   3.523156   3.682956   0.000000
    16  H    3.544078   2.572192   3.772474   3.070990   1.754558
    17  H    2.357692   3.691994   4.260785   3.968945   1.775243
    18  C    2.221047   4.005373   2.655111   3.244720   4.335419
    19  H    2.769482   3.941589   2.463774   3.608199   4.248232
    20  H    2.430102   5.076029   3.737966   4.238713   5.138724
    21  H    3.077903   3.955856   2.465803   2.844110   4.894321
    22  C    2.787728   5.501292   4.776343   4.161013   5.579458
    23  H    2.459904   5.970225   5.270176   4.863753   5.575855
    24  H    3.770559   6.225606   5.629434   4.761756   6.391652
    25  H    3.223363   5.626456   4.584621   4.208535   6.018650
    26  C    2.818622   4.583183   4.757223   3.652480   4.224072
    27  H    3.781767   5.469453   5.632546   4.360441   5.277875
    28  H    2.478334   5.078063   5.228244   4.402614   4.131809
    29  H    3.291363   3.988652   4.554549   3.299926   3.709548
                   16         17         18         19         20
    16  H    0.000000
    17  H    1.790219   0.000000
    18  C    4.635500   4.131105   0.000000
    19  H    4.912303   4.425837   1.096146   0.000000
    20  H    5.448600   4.678962   1.091049   1.763378   0.000000
    21  H    4.932206   4.773831   1.092525   1.770344   1.765858
    22  C    5.045090   4.473282   2.939263   4.024688   2.732980
    23  H    5.248114   4.306038   3.140180   4.129386   2.698050
[...]
    77 alpha electrons       72 beta electrons
       nuclear repulsion energy      1629.6907118795 Hartrees.
 NAtoms=   29 NActive=   29 NUniq=   29 SFac= 1.00D+00 NAtFMM=   60 NAOKFM=F Big=F
 Nuclear repulsion after empirical dispersion term =     1629.6882631744 Hartrees.
 Initial guess from the checkpoint file:  "checkpoint.chk"
 B after Tr=     0.000000    0.000000    0.000000
         Rot=    1.000000    0.000000    0.000000    0.000000 Ang=   0.00 deg.
 Initial guess <Sx>= 0.0000 <Sy>= 0.0000 <Sz>= 2.5000 <S**2>= 8.7617 S= 2.5020
 SCF Done:  E(UM06L) =  -3034.19557294     A.U. after   16 cycles
            NFock= 16  Conv=0.77D-08     -V/T= 2.0020
 <Sx>= 0.0000 <Sy>= 0.0000 <Sz>= 2.5000 <S**2>= 8.7618 S= 2.5020
 <L.S>= 0.000000000000E+00
 Annihilation of the first spin contaminant:
 S**2 before annihilation     8.7618,   after     8.7500
 1\1\GINC-HOLY7C08607\SP\UM06L\Jul-CC-pVDZ\C8H16Cl3Fe1O1(6)\EKWAN\11-Fe
 b-2020\0\\#t pop=none jul-cc-pvdz guess=read um06l empiricaldispersion
 =gd3\\theory_abbreviation m06l_d3\\0,6\O,0,-0.325371,-0.157212,-0.4799
 04\C,0,-1.178182,-1.120465,-0.289393\C,0,-2.648672,-0.316878,0.802353\
 C,0,-2.951864,0.720156,-0.065399\C,0,-3.986879,0.578334,-1.131954\Fe,0
 ,1.504499,0.175862,-0.085863\Cl,0,1.825114,2.16347,-0.95628\C,0,-2.197
 954,1.993097,-0.023572\Cl,0,2.55399,-1.497429,-1.04812\Cl,0,1.751725,0
 .167982,2.107094\H,0,-3.332759,-1.16467,0.770379\H,0,-2.646498,2.77149
 2,-0.644421\H,0,-2.045524,2.363233,0.994173\H,0,-1.189456,1.767696,-0.
 418951\H,0,-4.806887,1.274335,-0.903669\H,0,-3.594985,0.882811,-2.1105
 14\H,0,-4.402047,-0.428909,-1.197866\C,0,-2.021876,-0.024857,2.154381\
 H,0,-2.641226,0.692943,2.704568\H,0,-1.955524,-0.930748,2.75882\H,0,-1
 .017145,0.395048,2.066026\C,0,-0.756239,-2.224472,0.671436\H,0,-1.5837
 86,-2.886372,0.937606\H,0,-0.000996,-2.810385,0.131555\H,0,-0.281245,-
 1.829188,1.568345\C,0,-1.823718,-1.642934,-1.561721\H,0,-1.072149,-2.2
 74065,-2.051083\H,0,-2.708253,-2.254666,-1.365982\H,0,-2.067321,-0.833
 55,-2.249902\\Version=ES64L-G16RevA.03\HF=-3034.1955729\S2=8.761807\S2
 -1=0.\S2A=8.750045\RMSD=7.702e-09\PG=C01 [X(C8H16Cl3Fe1O1)]\\@


 AND HERE I AM, FOR ALL MY LORE,
 THE WRETCHED FOOL I WAS BEFORE.
 CALLED MASTER OF ARTS, AND DOCTOR TO BOOT,
 FOR TEN YEARS ALMOST I CONFUTE
 AND UP AND DOWN, WHEREVER IT GOES
 I DRAG MY STUDENTS BY THE NOSE --
 AND SEE THAT FOR ALL OUR SCIENCE AND ART
 WE CAN KNOW NOTHING.  IT BURNS MY HEART.

                                       -- FAUST
 Job cpu time:       0 days  1 hours  9 minutes 29.3 seconds.
 Elapsed time:       0 days  0 hours 17 minutes 25.2 seconds.
 File lengths (MBytes):  RWF=    174 Int=      0 D2E=      0 Chk=     13 Scr=      1
 Normal termination of Gaussian 16 at Tue Feb 11 23:41:18 2020.
 Initial command:
 /n/sw/g16_nehalem/g16/l1.exe "/scratch/Gau-98688.inp" -scrdir="/scratch/"
 Entering Link 1 = /n/sw/g16_nehalem/g16/l1.exe PID=    153432.
  
 Copyright (c) 1988,1990,1992,1993,1995,1998,2003,2009,2016,
            Gaussian, Inc.  All Rights Reserved.
  
 This is part of the Gaussian(R) 16 program.  It is based on
 the Gaussian(R) 09 system (copyright 2009, Gaussian, Inc.),
 the Gaussian(R) 03 system (copyright 2003, Gaussian, Inc.),
 the Gaussian(R) 98 system (copyright 1998, Gaussian, Inc.),
 the Gaussian(R) 94 system (copyright 1995, Gaussian, Inc.),
 the Gaussian 92(TM) system (copyright 1992, Gaussian, Inc.),
 the Gaussian 90(TM) system (copyright 1990, Gaussian, Inc.),
 the Gaussian 88(TM) system (copyright 1988, Gaussian, Inc.),
 the Gaussian 86(TM) system (copyright 1986, Carnegie Mellon
 University), and the Gaussian 82(TM) system (copyright 1983,
 Carnegie Mellon University). Gaussian is a federally registered
 trademark of Gaussian, Inc.
  
 This software contains proprietary and confidential information,
 including trade secrets, belonging to Gaussian, Inc.
  
 This software is provided under written license and may be
 used, copied, transmitted, or stored only in accord with that
 written license.
  
 The following legend is applicable only to US Government
 contracts under FAR:
  
                    RESTRICTED RIGHTS LEGEND
  
 Use, reproduction and disclosure by the US Government is
 subject to restrictions as set forth in subparagraphs (a)
 and (c) of the Commercial Computer Software - Restricted
 Rights clause in FAR 52.227-19.
  
 Gaussian, Inc.
 340 Quinnipiac St., Bldg. 40, Wallingford CT 06492
  
  
 ---------------------------------------------------------------
 Warning -- This program may not be used in any manner that
 competes with the business of Gaussian, Inc. or will provide
 assistance to any competitor of Gaussian, Inc.  The licensee
 of this program is prohibited from giving any competitor of
 Gaussian, Inc. access to this program.  By using this program,
 the user acknowledges that Gaussian, Inc. is engaged in the
 business of creating and licensing software in the field of
 computational chemistry and represents and warrants to the
 licensee that it is not a competitor of Gaussian, Inc. and that
 it will not use this program in any manner prohibited above.
 ---------------------------------------------------------------
  

 Cite this work as:
 Gaussian 16, Revision A.03,
 M. J. Frisch, G. W. Trucks, H. B. Schlegel, G. E. Scuseria, 
 M. A. Robb, J. R. Cheeseman, G. Scalmani, V. Barone, 
 G. A. Petersson, H. Nakatsuji, X. Li, M. Caricato, A. V. Marenich, 
 J. Bloino, B. G. Janesko, R. Gomperts, B. Mennucci, H. P. Hratchian, 
 J. V. Ortiz, A. F. Izmaylov, J. L. Sonnenberg, D. Williams-Young, 
 F. Ding, F. Lipparini, F. Egidi, J. Goings, B. Peng, A. Petrone, 
 T. Henderson, D. Ranasinghe, V. G. Zakrzewski, J. Gao, N. Rega, 
 G. Zheng, W. Liang, M. Hada, M. Ehara, K. Toyota, R. Fukuda, 
 J. Hasegawa, M. Ishida, T. Nakajima, Y. Honda, O. Kitao, H. Nakai, 
 T. Vreven, K. Throssell, J. A. Montgomery, Jr., J. E. Peralta, 
 F. Ogliaro, M. J. Bearpark, J. J. Heyd, E. N. Brothers, K. N. Kudin, 
 V. N. Staroverov, T. A. Keith, R. Kobayashi, J. Normand, 
 K. Raghavachari, A. P. Rendell, J. C. Burant, S. S. Iyengar, 
 J. Tomasi, M. Cossi, J. M. Millam, M. Klene, C. Adamo, R. Cammi, 
 J. W. Ochterski, R. L. Martin, K. Morokuma, O. Farkas, 
 J. B. Foresman, and D. J. Fox, Gaussian, Inc., Wallingford CT, 2016.
 
 ******************************************
 Gaussian 16:  ES64L-G16RevA.03 25-Dec-2016
                11-Feb-2020 
 ******************************************
 %chk=checkpoint.chk
 %mem=3GB
 %nprocshared=4
 Will use up to    4 processors via shared memory.
 -------------------------------------------------------------------
 #t pop=none jul-cc-pvdz guess=read ub97d3 empiricaldispersion=gd3bj
 -------------------------------------------------------------------
 ------------------------------
 theory_abbreviation b97d3_d3bj
 ------------------------------
 Symbolic Z-matrix:
 Charge =  0 Multiplicity = 6
 O                    -0.32537  -0.15721  -0.4799 
 C                    -1.17818  -1.12047  -0.28939 
 C                    -2.64867  -0.31688   0.80235 
 C                    -2.95186   0.72016  -0.0654 
 C                    -3.98688   0.57833  -1.13195 
 Fe                    1.5045    0.17586  -0.08586 
 Cl                    1.82511   2.16347  -0.95628 
 C                    -2.19795   1.9931   -0.02357 
 Cl                    2.55399  -1.49743  -1.04812 
 Cl                    1.75173   0.16798   2.10709 
 H                    -3.33276  -1.16467   0.77038 
 H                    -2.6465    2.77149  -0.64442 
 H                    -2.04552   2.36323   0.99417 
 H                    -1.18946   1.7677   -0.41895 
 H                    -4.80689   1.27434  -0.90367 
 H                    -3.59499   0.88281  -2.11051 
 H                    -4.40205  -0.42891  -1.19787 
 C                    -2.02188  -0.02486   2.15438 
 H                    -2.64123   0.69294   2.70457 
 H                    -1.95552  -0.93075   2.75882 
 H                    -1.01714   0.39505   2.06603 
 C                    -0.75624  -2.22447   0.67144 
 H                    -1.58379  -2.88637   0.93761 
 H                    -0.001    -2.81039   0.13156 
 H                    -0.28125  -1.82919   1.56835 
 C                    -1.82372  -1.64293  -1.56172 
 H                    -1.07215  -2.27407  -2.05108 
 H                    -2.70825  -2.25467  -1.36598 
 H                    -2.06732  -0.83355  -2.2499 
 
                    Distance matrix (angstroms):
                    1          2          3          4          5
     1  O    0.000000
     2  C    1.300553   0.000000
     3  C    2.658459   2.000001   0.000000
     4  C    2.800010   2.565932   1.385770   0.000000
     5  C    3.791153   3.388894   2.516693   1.492953   0.000000
     6  Fe   1.901218   2.986413   4.275576   4.489526   5.604598
     7  Cl   3.199544   4.499862   5.409222   5.069156   6.026838
     8  C    2.887669   3.287075   2.494250   1.480037   2.535807
     9  Cl   3.226418   3.827124   5.646737   6.016465   6.862856
    10  Cl   3.333562   3.998450   4.615293   5.210410   6.602378
    11  H    3.409188   2.401515   1.089839   2.096706   2.661730
    12  H    3.740589   4.174844   3.410453   2.153252   2.616152
    13  H    3.388875   3.812607   2.753830   2.154959   3.387498
    14  H    2.110836   2.891087   2.822471   2.080486   3.122264
    15  H    4.723652   4.390889   3.178107   2.109721   1.099520
    16  H    3.798804   3.629123   3.289309   2.150013   1.097209
    17  H    4.148322   3.420070   2.662283   2.169300   1.091443
    18  C    3.136097   2.807883   1.518594   2.519394   3.876219
    19  H    4.028251   3.793778   2.153652   2.787464   4.067286
    20  H    3.707437   3.151485   2.164498   3.419706   4.641320
    21  H    2.695422   2.805479   2.183023   2.896861   4.368065
    22  C    2.405160   1.523174   2.690234   3.746269   4.641656
    23  H    3.322839   2.188257   2.784704   3.985562   4.697033
    24  H    2.741975   2.102093   3.698342   4.605555   5.382112
    25  H    2.644386   2.181278   2.911793   4.037385   5.178755
    26  C    2.371232   1.519378   2.833341   3.015939   3.130175
    27  H    2.739954   2.108456   3.802381   4.054828   4.180506
    28  H    3.295842   2.187824   2.908651   3.255830   3.116977
    29  H    2.573852   2.171747   3.149790   2.822848   2.632096
                    6          7          8          9         10
     6  Fe   0.000000
     7  Cl   2.193400   0.000000
     8  C    4.124849   4.133285   0.000000
     9  Cl   2.197106   3.733882   5.984517   0.000000
    10  Cl   2.206863   3.656722   4.844662   3.656856   0.000000
    11  H    5.092076   6.376639   3.448135   6.170209   5.423536
    12  H    4.927480   4.523523   1.092037   6.740307   5.804607
    13  H    4.307404   4.338895   1.093636   6.342807   4.525132
    14  H    3.146788   3.087554   1.106435   5.007023   4.194107
    15  H    6.458254   6.691544   2.845649   7.866769   7.300966
    16  H    5.532063   5.687690   2.745862   6.678631   6.847372
    17  H    6.040661   6.749543   3.478952   7.039219   7.010560
    18  C    4.182619   5.409651   2.974327   5.776074   3.778821
    19  H    5.024034   5.959232   3.054446   6.772789   4.464368
    20  H    4.613953   6.137538   4.043433   5.928713   3.921180
    21  H    3.322252   4.509998   2.883486   5.102194   2.778468
    22  C    3.383200   5.344799   4.511038   3.800405   3.751644
    23  H    4.467916   6.380306   5.011016   4.795150   4.671447
    24  H    3.351337   5.409001   5.284329   3.105389   3.980635
    25  H    3.153650   5.172214   4.562657   3.872275   2.900329
    26  C    4.069792   5.307471   3.965687   4.410134   5.433545
    27  H    4.062431   5.411510   4.856636   3.841612   5.588228
    28  H    5.029259   6.343437   4.483967   5.325941   6.150031
    29  H    4.296496   5.080023   3.600492   4.820947   5.879761
                   11         12         13         14         15
    11  H    0.000000
    12  H    4.238630   0.000000
    13  H    3.762068   1.792438   0.000000
    14  H    3.821914   1.783652   1.756256   0.000000
    15  H    3.305183   2.641206   3.523156   3.682956   0.000000
    16  H    3.544078   2.572192   3.772474   3.070990   1.754558
    17  H    2.357692   3.691994   4.260785   3.968945   1.775243
    18  C    2.221047   4.005373   2.655111   3.244720   4.335419
    19  H    2.769482   3.941589   2.463774   3.608199   4.248232
    20  H    2.430102   5.076029   3.737966   4.238713   5.138724
    21  H    3.077903   3.955856   2.465803   2.844110   4.894321
    22  C    2.787728   5.501292   4.776343   4.161013   5.579458
    23  H    2.459904   5.970225   5.270176   4.863753   5.575855
    24  H    3.770559   6.225606   5.629434   4.761756   6.391652
    25  H    3.223363   5.626456   4.584621   4.208535   6.018650
    26  C    2.818622   4.583183   4.757223   3.652480   4.224072
    27  H    3.781767   5.469453   5.632546   4.360441   5.277875
    28  H    2.478334   5.078063   5.228244   4.402614   4.131809
    29  H    3.291363   3.988652   4.554549   3.299926   3.709548
                   16         17         18         19         20
    16  H    0.000000
    17  H    1.790219   0.000000
    18  C    4.635500   4.131105   0.000000
    19  H    4.912303   4.425837   1.096146   0.000000
    20  H    5.448600   4.678962   1.091049   1.763378   0.000000
    21  H    4.932206   4.773831   1.092525   1.770344   1.765858
    22  C    5.045090   4.473282   2.939263   4.024688   2.732980
    23  H    5.248114   4.306038   3.140180   4.129386   2.698050
    24  H    5.619905   5.177648   3.991860   5.085717   3.775677
    25  H    5.645336   5.156909   2.574654   3.636160   2.242239
    26  C    3.133361   2.872982   4.057937   4.932126   4.380828
    27  H    4.041547   3.901384   4.862802   5.820769   5.071491
    28  H    3.344306   2.496115   4.223283   5.026158   4.396971
    29  H    2.301973   2.592578   4.478142   5.215968   5.010912
                   21         22         23         24         25
    21  H    0.000000
    22  C    2.979067   0.000000
    23  H    3.515982   1.092608   0.000000
    24  H    3.879373   1.097797   1.777840   0.000000
    25  H    2.395091   1.089181   1.792228   1.762286   0.000000
    26  C    4.238452   2.542575   2.801846   2.748170   3.494457
    27  H    4.906911   2.741235   3.093373   2.489762   3.731448
    28  H    4.653978   2.821762   2.640075   3.143355   3.831667
    29  H    4.608639   3.491105   3.822053   3.721413   4.331325
                   26         27         28         29
    26  C    0.000000
    27  H    1.096657   0.000000
    28  H    1.093129   1.773859   0.000000
    29  H    1.089972   1.762095   1.792116   0.000000
 Framework group  C1[X(C8H16Cl3FeO)]
 Deg. of freedom    81
                         Standard orientation:                         
 ---------------------------------------------------------------------
 Center     Atomic      Atomic             Coordinates (Angstroms)
 Number     Number       Type             X           Y           Z
 ---------------------------------------------------------------------
      1          8           0       -0.325371   -0.157212   -0.479904
      2          6           0       -1.178182   -1.120465   -0.289393
      3          6           0       -2.648672   -0.316878    0.802353
      4          6           0       -2.951864    0.720156   -0.065399
      5          6           0       -3.986879    0.578334   -1.131954
      6         26           0        1.504499    0.175862   -0.085863
      7         17           0        1.825114    2.163470   -0.956280
      8          6           0       -2.197954    1.993097   -0.023572
      9         17           0        2.553990   -1.497429   -1.048120
     10         17           0        1.751725    0.167982    2.107094
     11          1           0       -3.332759   -1.164670    0.770379
     12          1           0       -2.646498    2.771492   -0.644421
     13          1           0       -2.045524    2.363233    0.994173
     14          1           0       -1.189456    1.767696   -0.418951
     15          1           0       -4.806887    1.274335   -0.903669
     16          1           0       -3.594985    0.882811   -2.110514
     17          1           0       -4.402047   -0.428909   -1.197866
     18          6           0       -2.021876   -0.024857    2.154381
     19          1           0       -2.641226    0.692943    2.704568
     20          1           0       -1.955524   -0.930748    2.758820
     21          1           0       -1.017145    0.395048    2.066026
     22          6           0       -0.756239   -2.224472    0.671436
     23          1           0       -1.583786   -2.886372    0.937606
     24          1           0       -0.000996   -2.810385    0.131555
     25          1           0       -0.281245   -1.829188    1.568345
     26          6           0       -1.823718   -1.642934   -1.561721
     27          1           0       -1.072149   -2.274065   -2.051083
     28          1           0       -2.708253   -2.254666   -1.365982
     29          1           0       -2.067321   -0.833550   -2.249902
 ---------------------------------------------------------------------
 Rotational constants (GHZ):           0.5939930           0.3125739           0.2984184
   427 basis functions,  1056 primitive gaussians,   461 cartesian basis functions
    77 alpha electrons       72 beta electrons
       nuclear repulsion energy      1629.6907118795 Hartrees.
 NAtoms=   29 NActive=   29 NUniq=   29 SFac= 1.00D+00 NAtFMM=   60 NAOKFM=F Big=F
 Nuclear repulsion after empirical dispersion term =     1629.5910090433 Hartrees.
 Initial guess from the checkpoint file:  "checkpoint.chk"
 B after Tr=     0.000000    0.000000    0.000000
         Rot=    1.000000    0.000000    0.000000    0.000000 Ang=   0.00 deg.
 Initial guess <Sx>= 0.0000 <Sy>= 0.0000 <Sz>= 2.5000 <S**2>= 8.7618 S= 2.5020
 EnCoef did     3 forward-backward iterations
 SCF Done:  E(UB97D3) =  -3034.61800163     A.U. after   17 cycles
            NFock= 17  Conv=0.39D-08     -V/T= 2.0019
 <Sx>= 0.0000 <Sy>= 0.0000 <Sz>= 2.5000 <S**2>= 8.7600 S= 2.5017
 <L.S>= 0.000000000000E+00
 Annihilation of the first spin contaminant:
 S**2 before annihilation     8.7600,   after     8.7500
 1\1\GINC-HOLY7C08607\SP\UB97D3\Jul-CC-pVDZ\C8H16Cl3Fe1O1(6)\EKWAN\11-F
 eb-2020\0\\#t pop=none jul-cc-pvdz guess=read ub97d3 empiricaldispersi
 on=gd3bj\\theory_abbreviation b97d3_d3bj\\0,6\O,0,-0.325371,-0.157212,
 -0.479904\C,0,-1.178182,-1.120465,-0.289393\C,0,-2.648672,-0.316878,0.
 802353\C,0,-2.951864,0.720156,-0.065399\C,0,-3.986879,0.578334,-1.1319
 54\Fe,0,1.504499,0.175862,-0.085863\Cl,0,1.825114,2.16347,-0.95628\C,0
 ,-2.197954,1.993097,-0.023572\Cl,0,2.55399,-1.497429,-1.04812\Cl,0,1.7
 51725,0.167982,2.107094\H,0,-3.332759,-1.16467,0.770379\H,0,-2.646498,
 2.771492,-0.644421\H,0,-2.045524,2.363233,0.994173\H,0,-1.189456,1.767
 696,-0.418951\H,0,-4.806887,1.274335,-0.903669\H,0,-3.594985,0.882811,
 -2.110514\H,0,-4.402047,-0.428909,-1.197866\C,0,-2.021876,-0.024857,2.
 154381\H,0,-2.641226,0.692943,2.704568\H,0,-1.955524,-0.930748,2.75882
 \H,0,-1.017145,0.395048,2.066026\C,0,-0.756239,-2.224472,0.671436\H,0,
 -1.583786,-2.886372,0.937606\H,0,-0.000996,-2.810385,0.131555\H,0,-0.2
 81245,-1.829188,1.568345\C,0,-1.823718,-1.642934,-1.561721\H,0,-1.0721
 49,-2.274065,-2.051083\H,0,-2.708253,-2.254666,-1.365982\H,0,-2.067321
 ,-0.83355,-2.249902\\Version=ES64L-G16RevA.03\HF=-3034.6180016\S2=8.75
 9979\S2-1=0.\S2A=8.750031\RMSD=3.893e-09\PG=C01 [X(C8H16Cl3Fe1O1)]\\@


 THE RED LIGHT IS ALWAYS LONGER THAN THE GREEN LIGHT.

                     -- PETER'S THEORY OF RELATIVITY
 Job cpu time:       0 days  0 hours 52 minutes 53.2 seconds.
 Elapsed time:       0 days  0 hours 13 minutes 15.7 seconds.
 File lengths (MBytes):  RWF=    174 Int=      0 D2E=      0 Chk=     13 Scr=      1
 Normal termination of Gaussian 16 at Tue Feb 11 23:54:34 2020.
