 Entering Gaussian System, Link 0=g16
 Input=simple-grid-260-275-b3lyp_d3bj-631gd-gas-singlepoint-DFT-juldz2-gas.gjf
 Output=simple-grid-260-275-b3lyp_d3bj-631gd-gas-singlepoint-DFT-juldz2-gas.out
 Initial command:
 /n/sw/g16_nehalem/g16/l1.exe "/scratch/Gau-17971.inp" -scrdir="/scratch/"
 Entering Link 1 = /n/sw/g16_nehalem/g16/l1.exe PID=     17975.
  
 Copyright (c) 1988,1990,1992,1993,1995,1998,2003,2009,2016,
            Gaussian, Inc.  All Rights Reserved.
  
 This is part of the Gaussian(R) 16 program.  It is based on
 the Gaussian(R) 09 system (copyright 2009, Gaussian, Inc.),
 the Gaussian(R) 03 system (copyright 2003, Gaussian, Inc.),
 the Gaussian(R) 98 system (copyright 1998, Gaussian, Inc.),
 the Gaussian(R) 94 system (copyright 1995, Gaussian, Inc.),
 the Gaussian 92(TM) system (copyright 1992, Gaussian, Inc.),
 the Gaussian 90(TM) system (copyright 1990, Gaussian, Inc.),
 the Gaussian 88(TM) system (copyright 1988, Gaussian, Inc.),
 the Gaussian 86(TM) system (copyright 1986, Carnegie Mellon
 University), and the Gaussian 82(TM) system (copyright 1983,
 Carnegie Mellon University). Gaussian is a federally registered
 trademark of Gaussian, Inc.
  
 This software contains proprietary and confidential information,
 including trade secrets, belonging to Gaussian, Inc.
  
 This software is provided under written license and may be
 used, copied, transmitted, or stored only in accord with that
 written license.
  
 The following legend is applicable only to US Government
 contracts under FAR:
  
                    RESTRICTED RIGHTS LEGEND
  
 Use, reproduction and disclosure by the US Government is
 subject to restrictions as set forth in subparagraphs (a)
 and (c) of the Commercial Computer Software - Restricted
 Rights clause in FAR 52.227-19.
  
 Gaussian, Inc.
 340 Quinnipiac St., Bldg. 40, Wallingford CT 06492
  
  
 ---------------------------------------------------------------
 Warning -- This program may not be used in any manner that
 competes with the business of Gaussian, Inc. or will provide
 assistance to any competitor of Gaussian, Inc.  The licensee
 of this program is prohibited from giving any competitor of
 Gaussian, Inc. access to this program.  By using this program,
 the user acknowledges that Gaussian, Inc. is engaged in the
 business of creating and licensing software in the field of
 computational chemistry and represents and warrants to the
 licensee that it is not a competitor of Gaussian, Inc. and that
 it will not use this program in any manner prohibited above.
 ---------------------------------------------------------------
  

 Cite this work as:
 Gaussian 16, Revision A.03,
 M. J. Frisch, G. W. Trucks, H. B. Schlegel, G. E. Scuseria, 
 M. A. Robb, J. R. Cheeseman, G. Scalmani, V. Barone, 
 G. A. Petersson, H. Nakatsuji, X. Li, M. Caricato, A. V. Marenich, 
 J. Bloino, B. G. Janesko, R. Gomperts, B. Mennucci, H. P. Hratchian, 
 J. V. Ortiz, A. F. Izmaylov, J. L. Sonnenberg, D. Williams-Young, 
 F. Ding, F. Lipparini, F. Egidi, J. Goings, B. Peng, A. Petrone, 
 T. Henderson, D. Ranasinghe, V. G. Zakrzewski, J. Gao, N. Rega, 
 G. Zheng, W. Liang, M. Hada, M. Ehara, K. Toyota, R. Fukuda, 
 J. Hasegawa, M. Ishida, T. Nakajima, Y. Honda, O. Kitao, H. Nakai, 
 T. Vreven, K. Throssell, J. A. Montgomery, Jr., J. E. Peralta, 
 F. Ogliaro, M. J. Bearpark, J. J. Heyd, E. N. Brothers, K. N. Kudin, 
 V. N. Staroverov, T. A. Keith, R. Kobayashi, J. Normand, 
 K. Raghavachari, A. P. Rendell, J. C. Burant, S. S. Iyengar, 
 J. Tomasi, M. Cossi, J. M. Millam, M. Klene, C. Adamo, R. Cammi, 
 J. W. Ochterski, R. L. Martin, K. Morokuma, O. Farkas, 
 J. B. Foresman, and D. J. Fox, Gaussian, Inc., Wallingford CT, 2016.
 
 ******************************************
 Gaussian 16:  ES64L-G16RevA.03 25-Dec-2016
                11-Feb-2020 
 ******************************************
 %chk=checkpoint.chk
 %mem=3GB
 %nprocshared=4
 Will use up to    4 processors via shared memory.
 --------------------------------
 #t pop=none jul-cc-pvdz upbe1pbe
 --------------------------------
 ------------------------
 theory_abbreviation pbe0
 ------------------------
 Symbolic Z-matrix:
 Charge =  0 Multiplicity = 6
 O                     0.23962   0.31981  -0.8417 
 C                     1.03666   1.2759   -0.6621 
 C                     3.05233   0.10448   0.48892 
 C                     2.57774  -0.96797  -0.1804 
 C                     2.99097  -1.26177  -1.59552 
 Fe                   -1.46499  -0.14496   0.01847 
 Cl                   -2.08084  -1.99228  -0.9529 
 C                     1.65517  -1.98902   0.41446 
 Cl                   -2.66052   1.62655  -0.45797 
 Cl                   -1.11534  -0.33943   2.17904 
 H                     3.77828   0.73276  -0.027 
 H                     2.18298  -2.94804   0.50689 
 H                     1.27143  -1.71796   1.39728 
 H                     0.80362  -2.17307  -0.25186 
 H                     3.45565  -2.25484  -1.64772 
 H                     2.11443  -1.29703  -2.25595 
 H                     3.70831  -0.53435  -1.98532 
 C                     2.90252   0.36943   1.96417 
 H                     3.71467  -0.12202   2.51695 
 H                     2.97221   1.43776   2.19021 
 H                     1.95884  -0.0013    2.37215 
 C                     0.86761   2.20651   0.49871 
 H                     1.75434   2.81778   0.66943 
 H                     0.0326    2.8707    0.22912 
 H                     0.5797    1.67827   1.40751 
 C                     1.82558   1.76015  -1.8427 
 H                     1.20022   2.52744  -2.32273 
 H                     2.76535   2.23097  -1.55126 
 H                     1.99274   0.96475  -2.56642 
 
                    Distance matrix (angstroms):
                    1          2          3          4          5
     1  O    0.000000
     2  C    1.257634   0.000000
     3  C    3.119020   2.600001   0.000000
     4  C    2.749999   2.764398   1.350322   0.000000
     5  C    3.261832   3.336218   2.493049   1.503213   0.000000
     6  Fe   1.965099   2.956397   4.548603   4.130448   4.869071
     7  Cl   3.277603   4.525971   5.729287   4.832013   5.164291
     8  C    2.985369   3.493028   2.518006   1.499181   2.520573
     9  Cl   3.204002   3.719378   5.987487   5.852173   6.447924
    10  Cl   3.375713   3.913118   4.519191   4.427291   5.653307
    11  H    3.654635   2.866146   1.089918   2.087418   2.656737
    12  H    4.034123   4.530143   3.173945   2.132807   2.813625
    13  H    3.198468   3.641339   2.705179   2.181286   3.481639
    14  H    2.623064   3.481091   3.285220   2.145894   2.724040
    15  H    4.197777   4.391933   3.208467   2.140042   1.097656
    16  H    2.851166   3.212771   3.221523   2.151940   1.098061
    17  H    3.750901   3.487926   2.638233   2.173463   1.093456
    18  C    3.868643   3.346695   1.506321   2.548197   3.916638
    19  H    4.853006   4.385452   2.145428   3.046948   4.328410
    20  H    4.231943   3.450822   2.162969   3.400430   4.649682
    21  H    3.658915   3.418813   2.180242   2.798748   4.289113
    22  C    2.398063   1.497358   3.031772   3.669200   4.574209
    23  H    3.289034   2.159956   3.013208   3.966374   4.827213
    24  H    2.774262   2.084652   4.103443   4.623935   5.399861
    25  H    2.649533   2.157310   3.071567   3.676436   4.845227
    26  C    2.364706   1.500234   3.111694   3.282016   3.248266
    27  H    2.826626   2.085858   4.148068   4.324930   4.253668
    28  H    3.245816   2.165904   2.960861   3.485352   3.500295
    29  H    2.542441   2.153448   3.346332   3.125816   2.626116
                    6          7          8          9         10
     6  Fe   0.000000
     7  Cl   2.176106   0.000000
     8  C    3.645931   3.978372   0.000000
     9  Cl   2.189637   3.698233   5.697251   0.000000
    10  Cl   2.197309   3.670583   3.675688   3.634074   0.000000
    11  H    5.316424   6.527820   3.480030   6.514806   5.473918
    12  H    4.626394   4.607016   1.098558   6.731810   4.525470
    13  H    3.444344   4.103212   1.089348   5.485249   2.864996
    14  H    3.054988   2.973933   1.096805   5.145861   3.599164
    15  H    5.607185   5.586094   2.750445   7.340859   6.261541
    16  H    4.394598   4.447650   2.796577   5.880487   5.569343
    17  H    5.561462   6.058525   3.477121   6.896686   6.375543
    18  C    4.808898   6.238657   3.085418   6.196328   4.085566
    19  H    5.750808   7.008965   3.485352   7.249181   4.846694
    20  H    5.187508   6.868600   4.078082   6.227050   4.457202
    21  H    4.157293   5.598122   2.806391   5.656672   3.098745
    22  C    3.346798   5.332014   4.269640   3.701256   3.638326
    23  H    4.423308   6.362174   4.814587   4.709671   4.525703
    24  H    3.373621   5.432528   5.126787   3.045141   3.927452
    25  H    3.071543   5.111064   3.948647   3.739217   2.745823
    26  C    4.233348   5.489320   4.379510   4.696847   5.406630
    27  H    4.441425   5.750624   5.300717   4.381120   5.817794
    28  H    5.099500   6.455966   4.785908   5.567825   5.965060
    29  H    4.457463   5.285973   4.210030   5.151340   5.820693
                   11         12         13         14         15
    11  H    0.000000
    12  H    4.047012   0.000000
    13  H    3.784033   1.771105   0.000000
    14  H    4.164493   1.754676   1.773597   0.000000
    15  H    3.414173   2.596637   3.785640   2.998057   0.000000
    16  H    3.443350   3.219285   3.772788   2.549907   1.756769
    17  H    2.333554   3.789932   4.333738   3.758653   1.771409
    18  C    2.205390   3.694186   2.709058   3.972463   4.498721
    19  H    2.684470   3.791140   3.125706   4.510792   4.686192
    20  H    2.462271   4.763579   3.671506   4.868734   5.347772
    21  H    3.099215   3.494668   2.090410   3.596740   4.845431
    22  C    3.304584   5.319734   4.046225   4.443889   5.586476
    23  H    2.988088   5.784015   4.619084   5.163453   5.830535
    24  H    4.320468   6.209582   4.894391   5.124976   6.442894
    25  H    3.630797   4.978384   3.465971   4.199579   5.751072
    26  C    2.857500   5.274023   4.785583   4.364103   4.337664
    27  H    3.890709   6.241264   5.645084   5.151754   5.330367
    28  H    2.365167   5.603325   5.149734   4.993235   4.539638
    29  H    3.112976   4.979086   4.840263   4.076406   3.653752
                   16         17         18         19         20
    16  H    0.000000
    17  H    1.787564   0.000000
    18  C    4.605170   4.130930   0.000000
    19  H    5.169326   4.521108   1.098488   0.000000
    20  H    5.289912   4.676116   1.094203   1.758105   0.000000
    21  H    4.808577   4.725706   1.092892   1.765919   1.769442
    22  C    4.627900   4.663934   3.108578   4.195360   2.807395
    23  H    5.061537   4.701329   2.998185   3.987317   2.387562
    24  H    5.280101   5.478039   4.183675   5.267649   3.813197
    25  H    4.962731   5.118120   2.723671   3.781519   2.528745
    26  C    3.098478   2.971495   4.193582   5.110549   4.205114
    27  H    3.932782   3.972272   5.092380   6.063378   4.969300
    28  H    3.656099   2.953741   3.980253   4.794591   3.830216
    29  H    2.286227   2.351210   4.659223   5.476013   4.879405
                   21         22         23         24         25
    21  H    0.000000
    22  C    3.094341   0.000000
    23  H    3.299744   1.090451   0.000000
    24  H    4.068331   1.100485   1.777931   0.000000
    25  H    2.377705   1.089883   1.795279   1.763466   0.000000
    26  C    4.570052   2.568874   2.726611   2.956430   3.481774
    27  H    5.386269   2.859048   3.056852   2.827204   3.875671
    28  H    4.585481   2.793637   2.509574   3.323692   3.719796
    29  H    5.032281   3.493264   3.736478   3.910215   4.277604
                   26         27         28         29
    26  C    0.000000
    27  H    1.100107   0.000000
    28  H    1.090768   1.769942   0.000000
    29  H    1.088295   1.769029   1.797441   0.000000
 Framework group  C1[X(C8H16Cl3FeO)]
 Deg. of freedom    81
                         Standard orientation:                         
 ---------------------------------------------------------------------
 Center     Atomic      Atomic             Coordinates (Angstroms)
 Number     Number       Type             X           Y           Z
 ---------------------------------------------------------------------
      1          8           0        0.239621    0.319810   -0.841703
      2          6           0        1.036663    1.275900   -0.662096
      3          6           0        3.052333    0.104476    0.488923
      4          6           0        2.577740   -0.967969   -0.180400
      5          6           0        2.990971   -1.261765   -1.595523
      6         26           0       -1.464994   -0.144956    0.018467
      7         17           0       -2.080841   -1.992283   -0.952899
      8          6           0        1.655169   -1.989024    0.414456
      9         17           0       -2.660519    1.626550   -0.457973
     10         17           0       -1.115344   -0.339428    2.179044
     11          1           0        3.778278    0.732764   -0.027003
     12          1           0        2.182979   -2.948036    0.506886
     13          1           0        1.271433   -1.717959    1.397283
     14          1           0        0.803624   -2.173070   -0.251861
     15          1           0        3.455651   -2.254840   -1.647716
     16          1           0        2.114426   -1.297027   -2.255950
     17          1           0        3.708311   -0.534352   -1.985317
     18          6           0        2.902516    0.369432    1.964171
     19          1           0        3.714666   -0.122024    2.516945
     20          1           0        2.972212    1.437763    2.190205
     21          1           0        1.958839   -0.001298    2.372148
     22          6           0        0.867611    2.206507    0.498711
     23          1           0        1.754335    2.817784    0.669426
     24          1           0        0.032601    2.870695    0.229118
     25          1           0        0.579703    1.678268    1.407511
     26          6           0        1.825578    1.760154   -1.842695
     27          1           0        1.200218    2.527439   -2.322730
     28          1           0        2.765351    2.230971   -1.551263
     29          1           0        1.992735    0.964750   -2.566420
 ---------------------------------------------------------------------
 Rotational constants (GHZ):           0.5703088           0.3277810           0.3087634
   427 basis functions,  1056 primitive gaussians,   461 cartesian basis functions
    77 alpha electrons       72 beta electrons
       nuclear repulsion energy      1630.0216253091 Hartrees.
 NAtoms=   29 NActive=   29 NUniq=   29 SFac= 1.00D+00 NAtFMM=   60 NAOKFM=F Big=F
 ExpMin= 1.40D-02 ExpMax= 4.32D+06 ExpMxC= 4.91D+03 IAcc=3 IRadAn=         5 AccDes= 0.00D+00
 Harris functional with IExCor= 1009 and IRadAn=       5 diagonalized for initial guess.
 HarFok:  IExCor= 1009 AccDes= 0.00D+00 IRadAn=         5 IDoV= 1 UseB2=F ITyADJ=14
 ICtDFT=  3500011 ScaDFX=  1.000000  1.000000  1.000000  1.000000
 FoFCou: FMM=F IPFlag=           0 FMFlag=      100000 FMFlg1=           0
         NFxFlg=           0 DoJE=T BraDBF=F KetDBF=T FulRan=T
         wScrn=  0.000000 ICntrl=       500 IOpCl=  0 I1Cent=   200000004 NGrid=           0
         NMat0=    1 NMatS0=      1 NMatT0=    0 NMatD0=    1 NMtDS0=    0 NMtDT0=    0
 Petite list used in FoFCou.
 Initial guess <Sx>= 0.0000 <Sy>= 0.0000 <Sz>= 2.5000 <S**2>= 8.7500 S= 2.5000
 EnCoef did   100 forward-backward iterations
 SCF Done:  E(UPBE1PBE) =  -3033.13220683     A.U. after   19 cycles
            NFock= 19  Conv=0.71D-08     -V/T= 2.0021
 <Sx>= 0.0000 <Sy>= 0.0000 <Sz>= 2.5000 <S**2>= 8.7628 S= 2.5021
 <L.S>= 0.000000000000E+00
 Annihilation of the first spin contaminant:
 S**2 before annihilation     8.7628,   after     8.7501
 1\1\GINC-HOLY7C18409\SP\UPBE1PBE\Jul-CC-pVDZ\C8H16Cl3Fe1O1(6)\EKWAN\11
 -Feb-2020\0\\#t pop=none jul-cc-pvdz upbe1pbe\\theory_abbreviation pbe
 0\\0,6\O,0,0.239621,0.31981,-0.841703\C,0,1.036663,1.2759,-0.662096\C,
 0,3.052333,0.104476,0.488923\C,0,2.57774,-0.967969,-0.1804\C,0,2.99097
 1,-1.261765,-1.595523\Fe,0,-1.464994,-0.144956,0.018467\Cl,0,-2.080841
 ,-1.992283,-0.952899\C,0,1.655169,-1.989024,0.414456\Cl,0,-2.660519,1.
 62655,-0.457973\Cl,0,-1.115344,-0.339428,2.179044\H,0,3.778278,0.73276
 4,-0.027003\H,0,2.182979,-2.948036,0.506886\H,0,1.271433,-1.717959,1.3
 97283\H,0,0.803624,-2.17307,-0.251861\H,0,3.455651,-2.25484,-1.647716\
 H,0,2.114426,-1.297027,-2.25595\H,0,3.708311,-0.534352,-1.985317\C,0,2
 .902516,0.369432,1.964171\H,0,3.714666,-0.122024,2.516945\H,0,2.972212
 ,1.437763,2.190205\H,0,1.958839,-0.001298,2.372148\C,0,0.867611,2.2065
 07,0.498711\H,0,1.754335,2.817784,0.669426\H,0,0.032601,2.870695,0.229
 118\H,0,0.579703,1.678268,1.407511\C,0,1.825578,1.760154,-1.842695\H,0
 ,1.200218,2.527439,-2.32273\H,0,2.765351,2.230971,-1.551263\H,0,1.9927
 35,0.96475,-2.56642\\Version=ES64L-G16RevA.03\HF=-3033.1322068\S2=8.76
 2804\S2-1=0.\S2A=8.750051\RMSD=7.123e-09\PG=C01 [X(C8H16Cl3Fe1O1)]\\@


 THESE ARE THE TIMES THAT TRY MENS SOULS.
 THE SUMMER SOLDIER AND THE SUNSHINE PATRIOT WILL IN THIS CRISIS,
 SHRINK FROM THE SERVICE OF HIS COUNTRY.  BUT HE THAT STANDS NOW,
 DESERVES THE LOVE AND THANKS OF MAN AND WOMAN.
 TYRANNY, LIKE HELL, IS NOT EASILY CONQUERED,
 YET WE HAVE THIS CONSOLATION WITH US,
 THAT THE HARDER THE CONFLICT, THE MORE GLORIOUS THE TRIUMPH.
 WHAT WE OBTAIN TOO CHEAP, WE ESTEEM TOO LIGHTLY, 
 'TIS DEARNESS ONLY THAT GIVES EVERYTHING ITS VALUE.

                                              -- TOM PAINE
 Job cpu time:       0 days  1 hours 16 minutes 23.1 seconds.
 Elapsed time:       0 days  0 hours 19 minutes 13.4 seconds.
 File lengths (MBytes):  RWF=    173 Int=      0 D2E=      0 Chk=     13 Scr=      1
 Normal termination of Gaussian 16 at Tue Feb 11 23:37:12 2020.
 Initial command:
 /n/sw/g16_nehalem/g16/l1.exe "/scratch/Gau-17971.inp" -scrdir="/scratch/"
 Entering Link 1 = /n/sw/g16_nehalem/g16/l1.exe PID=     20839.
  
 Copyright (c) 1988,1990,1992,1993,1995,1998,2003,2009,2016,
            Gaussian, Inc.  All Rights Reserved.
  
 This is part of the Gaussian(R) 16 program.  It is based on
 the Gaussian(R) 09 system (copyright 2009, Gaussian, Inc.),
 the Gaussian(R) 03 system (copyright 2003, Gaussian, Inc.),
 the Gaussian(R) 98 system (copyright 1998, Gaussian, Inc.),
 the Gaussian(R) 94 system (copyright 1995, Gaussian, Inc.),
 the Gaussian 92(TM) system (copyright 1992, Gaussian, Inc.),
 the Gaussian 90(TM) system (copyright 1990, Gaussian, Inc.),
 the Gaussian 88(TM) system (copyright 1988, Gaussian, Inc.),
 the Gaussian 86(TM) system (copyright 1986, Carnegie Mellon
 University), and the Gaussian 82(TM) system (copyright 1983,
 Carnegie Mellon University). Gaussian is a federally registered
 trademark of Gaussian, Inc.
  
 This software contains proprietary and confidential information,
 including trade secrets, belonging to Gaussian, Inc.
  
 This software is provided under written license and may be
 used, copied, transmitted, or stored only in accord with that
 written license.
  
 The following legend is applicable only to US Government
 contracts under FAR:
  
                    RESTRICTED RIGHTS LEGEND
  
 Use, reproduction and disclosure by the US Government is
 subject to restrictions as set forth in subparagraphs (a)
 and (c) of the Commercial Computer Software - Restricted
 Rights clause in FAR 52.227-19.
  
 Gaussian, Inc.
 340 Quinnipiac St., Bldg. 40, Wallingford CT 06492
  
  
 ---------------------------------------------------------------
 Warning -- This program may not be used in any manner that
 competes with the business of Gaussian, Inc. or will provide
 assistance to any competitor of Gaussian, Inc.  The licensee
 of this program is prohibited from giving any competitor of
 Gaussian, Inc. access to this program.  By using this program,
 the user acknowledges that Gaussian, Inc. is engaged in the
 business of creating and licensing software in the field of
 computational chemistry and represents and warrants to the
 licensee that it is not a competitor of Gaussian, Inc. and that
 it will not use this program in any manner prohibited above.
 ---------------------------------------------------------------
  

 Cite this work as:
 Gaussian 16, Revision A.03,
 M. J. Frisch, G. W. Trucks, H. B. Schlegel, G. E. Scuseria, 
 M. A. Robb, J. R. Cheeseman, G. Scalmani, V. Barone, 
 G. A. Petersson, H. Nakatsuji, X. Li, M. Caricato, A. V. Marenich, 
 J. Bloino, B. G. Janesko, R. Gomperts, B. Mennucci, H. P. Hratchian, 
 J. V. Ortiz, A. F. Izmaylov, J. L. Sonnenberg, D. Williams-Young, 
 F. Ding, F. Lipparini, F. Egidi, J. Goings, B. Peng, A. Petrone, 
 T. Henderson, D. Ranasinghe, V. G. Zakrzewski, J. Gao, N. Rega, 
 G. Zheng, W. Liang, M. Hada, M. Ehara, K. Toyota, R. Fukuda, 
 J. Hasegawa, M. Ishida, T. Nakajima, Y. Honda, O. Kitao, H. Nakai, 
 T. Vreven, K. Throssell, J. A. Montgomery, Jr., J. E. Peralta, 
 F. Ogliaro, M. J. Bearpark, J. J. Heyd, E. N. Brothers, K. N. Kudin, 
 V. N. Staroverov, T. A. Keith, R. Kobayashi, J. Normand, 
 K. Raghavachari, A. P. Rendell, J. C. Burant, S. S. Iyengar, 
 J. Tomasi, M. Cossi, J. M. Millam, M. Klene, C. Adamo, R. Cammi, 
 J. W. Ochterski, R. L. Martin, K. Morokuma, O. Farkas, 
 J. B. Foresman, and D. J. Fox, Gaussian, Inc., Wallingford CT, 2016.
 
 ******************************************
 Gaussian 16:  ES64L-G16RevA.03 25-Dec-2016
                11-Feb-2020 
 ******************************************
 %chk=checkpoint.chk
 %mem=3GB
 %nprocshared=4
 Will use up to    4 processors via shared memory.
 ---------------------------------------------------------------------
 #t pop=none jul-cc-pvdz guess=read upbe1pbe empiricaldispersion=gd3bj
 ---------------------------------------------------------------------
 -----------------------------
 theory_abbreviation pbe0_d3bj
 -----------------------------
 Symbolic Z-matrix:
 Charge =  0 Multiplicity = 6
 O                     0.23962   0.31981  -0.8417 
 C                     1.03666   1.2759   -0.6621 
 C                     3.05233   0.10448   0.48892 
 C                     2.57774  -0.96797  -0.1804 
 C                     2.99097  -1.26177  -1.59552 
 Fe                   -1.46499  -0.14496   0.01847 
 Cl                   -2.08084  -1.99228  -0.9529 
 C                     1.65517  -1.98902   0.41446 
 Cl                   -2.66052   1.62655  -0.45797 
 Cl                   -1.11534  -0.33943   2.17904 
 H                     3.77828   0.73276  -0.027 
 H                     2.18298  -2.94804   0.50689 
 H                     1.27143  -1.71796   1.39728 
 H                     0.80362  -2.17307  -0.25186 
 H                     3.45565  -2.25484  -1.64772 
 H                     2.11443  -1.29703  -2.25595 
 H                     3.70831  -0.53435  -1.98532 
 C                     2.90252   0.36943   1.96417 
 H                     3.71467  -0.12202   2.51695 
 H                     2.97221   1.43776   2.19021 
 H                     1.95884  -0.0013    2.37215 
 C                     0.86761   2.20651   0.49871 
 H                     1.75434   2.81778   0.66943 
 H                     0.0326    2.8707    0.22912 
 H                     0.5797    1.67827   1.40751 
 C                     1.82558   1.76015  -1.8427 
 H                     1.20022   2.52744  -2.32273 
 H                     2.76535   2.23097  -1.55126 
 H                     1.99274   0.96475  -2.56642 
 
                    Distance matrix (angstroms):
                    1          2          3          4          5
     1  O    0.000000
     2  C    1.257634   0.000000
     3  C    3.119020   2.600001   0.000000
     4  C    2.749999   2.764398   1.350322   0.000000
     5  C    3.261832   3.336218   2.493049   1.503213   0.000000
     6  Fe   1.965099   2.956397   4.548603   4.130448   4.869071
     7  Cl   3.277603   4.525971   5.729287   4.832013   5.164291
     8  C    2.985369   3.493028   2.518006   1.499181   2.520573
     9  Cl   3.204002   3.719378   5.987487   5.852173   6.447924
    10  Cl   3.375713   3.913118   4.519191   4.427291   5.653307
    11  H    3.654635   2.866146   1.089918   2.087418   2.656737
    12  H    4.034123   4.530143   3.173945   2.132807   2.813625
    13  H    3.198468   3.641339   2.705179   2.181286   3.481639
    14  H    2.623064   3.481091   3.285220   2.145894   2.724040
    15  H    4.197777   4.391933   3.208467   2.140042   1.097656
    16  H    2.851166   3.212771   3.221523   2.151940   1.098061
    17  H    3.750901   3.487926   2.638233   2.173463   1.093456
    18  C    3.868643   3.346695   1.506321   2.548197   3.916638
    19  H    4.853006   4.385452   2.145428   3.046948   4.328410
    20  H    4.231943   3.450822   2.162969   3.400430   4.649682
    21  H    3.658915   3.418813   2.180242   2.798748   4.289113
    22  C    2.398063   1.497358   3.031772   3.669200   4.574209
    23  H    3.289034   2.159956   3.013208   3.966374   4.827213
    24  H    2.774262   2.084652   4.103443   4.623935   5.399861
    25  H    2.649533   2.157310   3.071567   3.676436   4.845227
    26  C    2.364706   1.500234   3.111694   3.282016   3.248266
    27  H    2.826626   2.085858   4.148068   4.324930   4.253668
    28  H    3.245816   2.165904   2.960861   3.485352   3.500295
    29  H    2.542441   2.153448   3.346332   3.125816   2.626116
                    6          7          8          9         10
     6  Fe   0.000000
     7  Cl   2.176106   0.000000
     8  C    3.645931   3.978372   0.000000
     9  Cl   2.189637   3.698233   5.697251   0.000000
    10  Cl   2.197309   3.670583   3.675688   3.634074   0.000000
    11  H    5.316424   6.527820   3.480030   6.514806   5.473918
    12  H    4.626394   4.607016   1.098558   6.731810   4.525470
    13  H    3.444344   4.103212   1.089348   5.485249   2.864996
    14  H    3.054988   2.973933   1.096805   5.145861   3.599164
    15  H    5.607185   5.586094   2.750445   7.340859   6.261541
    16  H    4.394598   4.447650   2.796577   5.880487   5.569343
    17  H    5.561462   6.058525   3.477121   6.896686   6.375543
    18  C    4.808898   6.238657   3.085418   6.196328   4.085566
    19  H    5.750808   7.008965   3.485352   7.249181   4.846694
    20  H    5.187508   6.868600   4.078082   6.227050   4.457202
    21  H    4.157293   5.598122   2.806391   5.656672   3.098745
    22  C    3.346798   5.332014   4.269640   3.701256   3.638326
    23  H    4.423308   6.362174   4.814587   4.709671   4.525703
    24  H    3.373621   5.432528   5.126787   3.045141   3.927452
    25  H    3.071543   5.111064   3.948647   3.739217   2.745823
    26  C    4.233348   5.489320   4.379510   4.696847   5.406630
    27  H    4.441425   5.750624   5.300717   4.381120   5.817794
    28  H    5.099500   6.455966   4.785908   5.567825   5.965060
    29  H    4.457463   5.285973   4.210030   5.151340   5.820693
                   11         12         13         14         15
    11  H    0.000000
    12  H    4.047012   0.000000
    13  H    3.784033   1.771105   0.000000
    14  H    4.164493   1.754676   1.773597   0.000000
    15  H    3.414173   2.596637   3.785640   2.998057   0.000000
    16  H    3.443350   3.219285   3.772788   2.549907   1.756769
    17  H    2.333554   3.789932   4.333738   3.758653   1.771409
    18  C    2.205390   3.694186   2.709058   3.972463   4.498721
    19  H    2.684470   3.791140   3.125706   4.510792   4.686192
    20  H    2.462271   4.763579   3.671506   4.868734   5.347772
    21  H    3.099215   3.494668   2.090410   3.596740   4.845431
    22  C    3.304584   5.319734   4.046225   4.443889   5.586476
    23  H    2.988088   5.784015   4.619084   5.163453   5.830535
    24  H    4.320468   6.209582   4.894391   5.124976   6.442894
    25  H    3.630797   4.978384   3.465971   4.199579   5.751072
    26  C    2.857500   5.274023   4.785583   4.364103   4.337664
    27  H    3.890709   6.241264   5.645084   5.151754   5.330367
    28  H    2.365167   5.603325   5.149734   4.993235   4.539638
    29  H    3.112976   4.979086   4.840263   4.076406   3.653752
                   16         17         18         19         20
    16  H    0.000000
    17  H    1.787564   0.000000
    18  C    4.605170   4.130930   0.000000
    19  H    5.169326   4.521108   1.098488   0.000000
    20  H    5.289912   4.676116   1.094203   1.758105   0.000000
    21  H    4.808577   4.725706   1.092892   1.765919   1.769442
    22  C    4.627900   4.663934   3.108578   4.195360   2.807395
    23  H    5.061537   4.701329   2.998185   3.987317   2.387562
    24  H    5.280101   5.478039   4.183675   5.267649   3.813197
    25  H    4.962731   5.118120   2.723671   3.781519   2.528745
    26  C    3.098478   2.971495   4.193582   5.110549   4.205114
    27  H    3.932782   3.972272   5.092380   6.063378   4.969300
    28  H    3.656099   2.953741   3.980253   4.794591   3.830216
    29  H    2.286227   2.351210   4.659223   5.476013   4.879405
                   21         22         23         24         25
    21  H    0.000000
    22  C    3.094341   0.000000
    23  H    3.299744   1.090451   0.000000
    24  H    4.068331   1.100485   1.777931   0.000000
    25  H    2.377705   1.089883   1.795279   1.763466   0.000000
    26  C    4.570052   2.568874   2.726611   2.956430   3.481774
    27  H    5.386269   2.859048   3.056852   2.827204   3.875671
    28  H    4.585481   2.793637   2.509574   3.323692   3.719796
    29  H    5.032281   3.493264   3.736478   3.910215   4.277604
                   26         27         28         29
    26  C    0.000000
    27  H    1.100107   0.000000
    28  H    1.090768   1.769942   0.000000
    29  H    1.088295   1.769029   1.797441   0.000000
 Framework group  C1[X(C8H16Cl3FeO)]
 Deg. of freedom    81
                         Standard orientation:                         
 ---------------------------------------------------------------------
 Center     Atomic      Atomic             Coordinates (Angstroms)
 Number     Number       Type             X           Y           Z
 ---------------------------------------------------------------------
      1          8           0        0.239621    0.319810   -0.841703
      2          6           0        1.036663    1.275900   -0.662096
      3          6           0        3.052333    0.104476    0.488923
      4          6           0        2.577740   -0.967969   -0.180400
      5          6           0        2.990971   -1.261765   -1.595523
      6         26           0       -1.464994   -0.144956    0.018467
      7         17           0       -2.080841   -1.992283   -0.952899
      8          6           0        1.655169   -1.989024    0.414456
      9         17           0       -2.660519    1.626550   -0.457973
     10         17           0       -1.115344   -0.339428    2.179044
     11          1           0        3.778278    0.732764   -0.027003
     12          1           0        2.182979   -2.948036    0.506886
     13          1           0        1.271433   -1.717959    1.397283
     14          1           0        0.803624   -2.173070   -0.251861
     15          1           0        3.455651   -2.254840   -1.647716
     16          1           0        2.114426   -1.297027   -2.255950
     17          1           0        3.708311   -0.534352   -1.985317
     18          6           0        2.902516    0.369432    1.964171
     19          1           0        3.714666   -0.122024    2.516945
     20          1           0        2.972212    1.437763    2.190205
     21          1           0        1.958839   -0.001298    2.372148
     22          6           0        0.867611    2.206507    0.498711
     23          1           0        1.754335    2.817784    0.669426
     24          1           0        0.032601    2.870695    0.229118
     25          1           0        0.579703    1.678268    1.407511
     26          6           0        1.825578    1.760154   -1.842695
     27          1           0        1.200218    2.527439   -2.322730
     28          1           0        2.765351    2.230971   -1.551263
     29          1           0        1.992735    0.964750   -2.566420
 ---------------------------------------------------------------------
 Rotational constants (GHZ):           0.5703088           0.3277810           0.3087634
   427 basis functions,  1056 primitive gaussians,   461 cartesian basis functions
    77 alpha electrons       72 beta electrons
       nuclear repulsion energy      1630.0216253091 Hartrees.
 NAtoms=   29 NActive=   29 NUniq=   29 SFac= 1.00D+00 NAtFMM=   60 NAOKFM=F Big=F
 Nuclear repulsion after empirical dispersion term =     1629.9846870528 Hartrees.
 Initial guess from the checkpoint file:  "checkpoint.chk"
 B after Tr=     0.000000    0.000000    0.000000
         Rot=    1.000000    0.000000    0.000000    0.000000 Ang=   0.00 deg.
 Initial guess <Sx>= 0.0000 <Sy>= 0.0000 <Sz>= 2.5000 <S**2>= 8.7628 S= 2.5021
 SCF Done:  E(UPBE1PBE) =  -3033.16914508     A.U. after    1 cycles
            NFock=  1  Conv=0.49D-08     -V/T= 2.0021
 <Sx>= 0.0000 <Sy>= 0.0000 <Sz>= 2.5000 <S**2>= 8.7628 S= 2.5021
 <L.S>= 0.000000000000E+00
 Annihilation of the first spin contaminant:
 S**2 before annihilation     8.7628,   after     8.7501
 1\1\GINC-HOLY7C18409\SP\UPBE1PBE\Jul-CC-pVDZ\C8H16Cl3Fe1O1(6)\EKWAN\11
 -Feb-2020\0\\#t pop=none jul-cc-pvdz guess=read upbe1pbe empiricaldisp
 ersion=gd3bj\\theory_abbreviation pbe0_d3bj\\0,6\O,0,0.239621,0.31981,
 -0.841703\C,0,1.036663,1.2759,-0.662096\C,0,3.052333,0.104476,0.488923
 \C,0,2.57774,-0.967969,-0.1804\C,0,2.990971,-1.261765,-1.595523\Fe,0,-
 1.464994,-0.144956,0.018467\Cl,0,-2.080841,-1.992283,-0.952899\C,0,1.6
 55169,-1.989024,0.414456\Cl,0,-2.660519,1.62655,-0.457973\Cl,0,-1.1153
 44,-0.339428,2.179044\H,0,3.778278,0.732764,-0.027003\H,0,2.182979,-2.
 948036,0.506886\H,0,1.271433,-1.717959,1.397283\H,0,0.803624,-2.17307,
 -0.251861\H,0,3.455651,-2.25484,-1.647716\H,0,2.114426,-1.297027,-2.25
 595\H,0,3.708311,-0.534352,-1.985317\C,0,2.902516,0.369432,1.964171\H,
 0,3.714666,-0.122024,2.516945\H,0,2.972212,1.437763,2.190205\H,0,1.958
 839,-0.001298,2.372148\C,0,0.867611,2.206507,0.498711\H,0,1.754335,2.8
 17784,0.669426\H,0,0.032601,2.870695,0.229118\H,0,0.579703,1.678268,1.
 407511\C,0,1.825578,1.760154,-1.842695\H,0,1.200218,2.527439,-2.32273\
 H,0,2.765351,2.230971,-1.551263\H,0,1.992735,0.96475,-2.56642\\Version
 =ES64L-G16RevA.03\HF=-3033.1691451\S2=8.762804\S2-1=0.\S2A=8.750051\RM
 SD=4.894e-09\PG=C01 [X(C8H16Cl3Fe1O1)]\\@


 Where a calculator on the ENIAC is equipped with 18,000
 vacuum tubes and weighs 30 tons, computers inthe future
 may  have only 1,000 vacuum tubes and weigh only 1 1/2 tons.
              ---Popular Mechanics, March 1949
 Job cpu time:       0 days  0 hours  4 minutes 39.0 seconds.
 Elapsed time:       0 days  0 hours  1 minutes 16.8 seconds.
 File lengths (MBytes):  RWF=    170 Int=      0 D2E=      0 Chk=     13 Scr=      1
 Normal termination of Gaussian 16 at Tue Feb 11 23:38:29 2020.
 Initial command:
 /n/sw/g16_nehalem/g16/l1.exe "/scratch/Gau-17971.inp" -scrdir="/scratch/"
 Entering Link 1 = /n/sw/g16_nehalem/g16/l1.exe PID=     21020.
  
 Copyright (c) 1988,1990,1992,1993,1995,1998,2003,2009,2016,
            Gaussian, Inc.  All Rights Reserved.
  
 This is part of the Gaussian(R) 16 program.  It is based on
 the Gaussian(R) 09 system (copyright 2009, Gaussian, Inc.),
 the Gaussian(R) 03 system (copyright 2003, Gaussian, Inc.),
 the Gaussian(R) 98 system (copyright 1998, Gaussian, Inc.),
 the Gaussian(R) 94 system (copyright 1995, Gaussian, Inc.),
 the Gaussian 92(TM) system (copyright 1992, Gaussian, Inc.),
 the Gaussian 90(TM) system (copyright 1990, Gaussian, Inc.),
 the Gaussian 88(TM) system (copyright 1988, Gaussian, Inc.),
 the Gaussian 86(TM) system (copyright 1986, Carnegie Mellon
 University), and the Gaussian 82(TM) system (copyright 1983,
 Carnegie Mellon University). Gaussian is a federally registered
 trademark of Gaussian, Inc.
  
 This software contains proprietary and confidential information,
 including trade secrets, belonging to Gaussian, Inc.
  
 This software is provided under written license and may be
 used, copied, transmitted, or stored only in accord with that
 written license.
  
 The following legend is applicable only to US Government
 contracts under FAR:
  
                    RESTRICTED RIGHTS LEGEND
  
 Use, reproduction and disclosure by the US Government is
 subject to restrictions as set forth in subparagraphs (a)
 and (c) of the Commercial Computer Software - Restricted
 Rights clause in FAR 52.227-19.
  
 Gaussian, Inc.
 340 Quinnipiac St., Bldg. 40, Wallingford CT 06492
  
  
 ---------------------------------------------------------------
 Warning -- This program may not be used in any manner that
 competes with the business of Gaussian, Inc. or will provide
 assistance to any competitor of Gaussian, Inc.  The licensee
 of this program is prohibited from giving any competitor of
 Gaussian, Inc. access to this program.  By using this program,
 the user acknowledges that Gaussian, Inc. is engaged in the
 business of creating and licensing software in the field of
 computational chemistry and represents and warrants to the
 licensee that it is not a competitor of Gaussian, Inc. and that
 it will not use this program in any manner prohibited above.
 ---------------------------------------------------------------
  

 Cite this work as:
 Gaussian 16, Revision A.03,
 M. J. Frisch, G. W. Trucks, H. B. Schlegel, G. E. Scuseria, 
 M. A. Robb, J. R. Cheeseman, G. Scalmani, V. Barone, 
 G. A. Petersson, H. Nakatsuji, X. Li, M. Caricato, A. V. Marenich, 
 J. Bloino, B. G. Janesko, R. Gomperts, B. Mennucci, H. P. Hratchian, 
 J. V. Ortiz, A. F. Izmaylov, J. L. Sonnenberg, D. Williams-Young, 
 F. Ding, F. Lipparini, F. Egidi, J. Goings, B. Peng, A. Petrone, 
 T. Henderson, D. Ranasinghe, V. G. Zakrzewski, J. Gao, N. Rega, 
 G. Zheng, W. Liang, M. Hada, M. Ehara, K. Toyota, R. Fukuda, 
 J. Hasegawa, M. Ishida, T. Nakajima, Y. Honda, O. Kitao, H. Nakai, 
 T. Vreven, K. Throssell, J. A. Montgomery, Jr., J. E. Peralta, 
 F. Ogliaro, M. J. Bearpark, J. J. Heyd, E. N. Brothers, K. N. Kudin, 
 V. N. Staroverov, T. A. Keith, R. Kobayashi, J. Normand, 
 K. Raghavachari, A. P. Rendell, J. C. Burant, S. S. Iyengar, 
 J. Tomasi, M. Cossi, J. M. Millam, M. Klene, C. Adamo, R. Cammi, 
 J. W. Ochterski, R. L. Martin, K. Morokuma, O. Farkas, 
 J. B. Foresman, and D. J. Fox, Gaussian, Inc., Wallingford CT, 2016.
 
 ******************************************
 Gaussian 16:  ES64L-G16RevA.03 25-Dec-2016
                11-Feb-2020 
 ******************************************
 %chk=checkpoint.chk
 %mem=3GB
 %nprocshared=4
 Will use up to    4 processors via shared memory.
 -----------------------------------------
 #t pop=none jul-cc-pvdz guess=read ub3lyp
 -----------------------------------------
 -------------------------
 theory_abbreviation b3lyp
 -------------------------
 Symbolic Z-matrix:
 Charge =  0 Multiplicity = 6
 O                     0.23962   0.31981  -0.8417 
 C                     1.03666   1.2759   -0.6621 
 C                     3.05233   0.10448   0.48892 
 C                     2.57774  -0.96797  -0.1804 
 C                     2.99097  -1.26177  -1.59552 
 Fe                   -1.46499  -0.14496   0.01847 
 Cl                   -2.08084  -1.99228  -0.9529 
 C                     1.65517  -1.98902   0.41446 
 Cl                   -2.66052   1.62655  -0.45797 
 Cl                   -1.11534  -0.33943   2.17904 
 H                     3.77828   0.73276  -0.027 
 H                     2.18298  -2.94804   0.50689 
 H                     1.27143  -1.71796   1.39728 
 H                     0.80362  -2.17307  -0.25186 
 H                     3.45565  -2.25484  -1.64772 
 H                     2.11443  -1.29703  -2.25595 
 H                     3.70831  -0.53435  -1.98532 
 C                     2.90252   0.36943   1.96417 
 H                     3.71467  -0.12202   2.51695 
 H                     2.97221   1.43776   2.19021 
 H                     1.95884  -0.0013    2.37215 
 C                     0.86761   2.20651   0.49871 
 H                     1.75434   2.81778   0.66943 
 H                     0.0326    2.8707    0.22912 
 H                     0.5797    1.67827   1.40751 
 C                     1.82558   1.76015  -1.8427 
 H                     1.20022   2.52744  -2.32273 
 H                     2.76535   2.23097  -1.55126 
 H                     1.99274   0.96475  -2.56642 
 
                    Distance matrix (angstroms):
                    1          2          3          4          5
     1  O    0.000000
     2  C    1.257634   0.000000
     3  C    3.119020   2.600001   0.000000
     4  C    2.749999   2.764398   1.350322   0.000000
     5  C    3.261832   3.336218   2.493049   1.503213   0.000000
     6  Fe   1.965099   2.956397   4.548603   4.130448   4.869071
     7  Cl   3.277603   4.525971   5.729287   4.832013   5.164291
     8  C    2.985369   3.493028   2.518006   1.499181   2.520573
     9  Cl   3.204002   3.719378   5.987487   5.852173   6.447924
    10  Cl   3.375713   3.913118   4.519191   4.427291   5.653307
    11  H    3.654635   2.866146   1.089918   2.087418   2.656737
    12  H    4.034123   4.530143   3.173945   2.132807   2.813625
    13  H    3.198468   3.641339   2.705179   2.181286   3.481639
    14  H    2.623064   3.481091   3.285220   2.145894   2.724040
    15  H    4.197777   4.391933   3.208467   2.140042   1.097656
    16  H    2.851166   3.212771   3.221523   2.151940   1.098061
    17  H    3.750901   3.487926   2.638233   2.173463   1.093456
    18  C    3.868643   3.346695   1.506321   2.548197   3.916638
    19  H    4.853006   4.385452   2.145428   3.046948   4.328410
    20  H    4.231943   3.450822   2.162969   3.400430   4.649682
    21  H    3.658915   3.418813   2.180242   2.798748   4.289113
    22  C    2.398063   1.497358   3.031772   3.669200   4.574209
    23  H    3.289034   2.159956   3.013208   3.966374   4.827213
    24  H    2.774262   2.084652   4.103443   4.623935   5.399861
    25  H    2.649533   2.157310   3.071567   3.676436   4.845227
    26  C    2.364706   1.500234   3.111694   3.282016   3.248266
    27  H    2.826626   2.085858   4.148068   4.324930   4.253668
    28  H    3.245816   2.165904   2.960861   3.485352   3.500295
    29  H    2.542441   2.153448   3.346332   3.125816   2.626116
                    6          7          8          9         10
     6  Fe   0.000000
     7  Cl   2.176106   0.000000
     8  C    3.645931   3.978372   0.000000
     9  Cl   2.189637   3.698233   5.697251   0.000000
    10  Cl   2.197309   3.670583   3.675688   3.634074   0.000000
    11  H    5.316424   6.527820   3.480030   6.514806   5.473918
    12  H    4.626394   4.607016   1.098558   6.731810   4.525470
    13  H    3.444344   4.103212   1.089348   5.485249   2.864996
    14  H    3.054988   2.973933   1.096805   5.145861   3.599164
    15  H    5.607185   5.586094   2.750445   7.340859   6.261541
    16  H    4.394598   4.447650   2.796577   5.880487   5.569343
    17  H    5.561462   6.058525   3.477121   6.896686   6.375543
    18  C    4.808898   6.238657   3.085418   6.196328   4.085566
    19  H    5.750808   7.008965   3.485352   7.249181   4.846694
    20  H    5.187508   6.868600   4.078082   6.227050   4.457202
    21  H    4.157293   5.598122   2.806391   5.656672   3.098745
    22  C    3.346798   5.332014   4.269640   3.701256   3.638326
    23  H    4.423308   6.362174   4.814587   4.709671   4.525703
    24  H    3.373621   5.432528   5.126787   3.045141   3.927452
    25  H    3.071543   5.111064   3.948647   3.739217   2.745823
    26  C    4.233348   5.489320   4.379510   4.696847   5.406630
    27  H    4.441425   5.750624   5.300717   4.381120   5.817794
    28  H    5.099500   6.455966   4.785908   5.567825   5.965060
    29  H    4.457463   5.285973   4.210030   5.151340   5.820693
                   11         12         13         14         15
    11  H    0.000000
    12  H    4.047012   0.000000
    13  H    3.784033   1.771105   0.000000
    14  H    4.164493   1.754676   1.773597   0.000000
    15  H    3.414173   2.596637   3.785640   2.998057   0.000000
    16  H    3.443350   3.219285   3.772788   2.549907   1.756769
    17  H    2.333554   3.789932   4.333738   3.758653   1.771409
    18  C    2.205390   3.694186   2.709058   3.972463   4.498721
    19  H    2.684470   3.791140   3.125706   4.510792   4.686192
    20  H    2.462271   4.763579   3.671506   4.868734   5.347772
    21  H    3.099215   3.494668   2.090410   3.596740   4.845431
    22  C    3.304584   5.319734   4.046225   4.443889   5.586476
    23  H    2.988088   5.784015   4.619084   5.163453   5.830535
    24  H    4.320468   6.209582   4.894391   5.124976   6.442894
    25  H    3.630797   4.978384   3.465971   4.199579   5.751072
    26  C    2.857500   5.274023   4.785583   4.364103   4.337664
    27  H    3.890709   6.241264   5.645084   5.151754   5.330367
    28  H    2.365167   5.603325   5.149734   4.993235   4.539638
    29  H    3.112976   4.979086   4.840263   4.076406   3.653752
                   16         17         18         19         20
    16  H    0.000000
    17  H    1.787564   0.000000
    18  C    4.605170   4.130930   0.000000
    19  H    5.169326   4.521108   1.098488   0.000000
    20  H    5.289912   4.676116   1.094203   1.758105   0.000000
    21  H    4.808577   4.725706   1.092892   1.765919   1.769442
    22  C    4.627900   4.663934   3.108578   4.195360   2.807395
    23  H    5.061537   4.701329   2.998185   3.987317   2.387562
    24  H    5.280101   5.478039   4.183675   5.267649   3.813197
    25  H    4.962731   5.118120   2.723671   3.781519   2.528745
    26  C    3.098478   2.971495   4.193582   5.110549   4.205114
    27  H    3.932782   3.972272   5.092380   6.063378   4.969300
    28  H    3.656099   2.953741   3.980253   4.794591   3.830216
    29  H    2.286227   2.351210   4.659223   5.476013   4.879405
                   21         22         23         24         25
    21  H    0.000000
    22  C    3.094341   0.000000
    23  H    3.299744   1.090451   0.000000
    24  H    4.068331   1.100485   1.777931   0.000000
    25  H    2.377705   1.089883   1.795279   1.763466   0.000000
    26  C    4.570052   2.568874   2.726611   2.956430   3.481774
    27  H    5.386269   2.859048   3.056852   2.827204   3.875671
    28  H    4.585481   2.793637   2.509574   3.323692   3.719796
    29  H    5.032281   3.493264   3.736478   3.910215   4.277604
                   26         27         28         29
    26  C    0.000000
    27  H    1.100107   0.000000
    28  H    1.090768   1.769942   0.000000
    29  H    1.088295   1.769029   1.797441   0.000000
 Framework group  C1[X(C8H16Cl3FeO)]
 Deg. of freedom    81
                         Standard orientation:                         
 ---------------------------------------------------------------------
 Center     Atomic      Atomic             Coordinates (Angstroms)
 Number     Number       Type             X           Y           Z
 ---------------------------------------------------------------------
      1          8           0        0.239621    0.319810   -0.841703
      2          6           0        1.036663    1.275900   -0.662096
      3          6           0        3.052333    0.104476    0.488923
      4          6           0        2.577740   -0.967969   -0.180400
      5          6           0        2.990971   -1.261765   -1.595523
      6         26           0       -1.464994   -0.144956    0.018467
      7         17           0       -2.080841   -1.992283   -0.952899
      8          6           0        1.655169   -1.989024    0.414456
      9         17           0       -2.660519    1.626550   -0.457973
     10         17           0       -1.115344   -0.339428    2.179044
     11          1           0        3.778278    0.732764   -0.027003
     12          1           0        2.182979   -2.948036    0.506886
     13          1           0        1.271433   -1.717959    1.397283
     14          1           0        0.803624   -2.173070   -0.251861
     15          1           0        3.455651   -2.254840   -1.647716
     16          1           0        2.114426   -1.297027   -2.255950
     17          1           0        3.708311   -0.534352   -1.985317
     18          6           0        2.902516    0.369432    1.964171
     19          1           0        3.714666   -0.122024    2.516945
     20          1           0        2.972212    1.437763    2.190205
     21          1           0        1.958839   -0.001298    2.372148
     22          6           0        0.867611    2.206507    0.498711
     23          1           0        1.754335    2.817784    0.669426
     24          1           0        0.032601    2.870695    0.229118
     25          1           0        0.579703    1.678268    1.407511
     26          6           0        1.825578    1.760154   -1.842695
     27          1           0        1.200218    2.527439   -2.322730
     28          1           0        2.765351    2.230971   -1.551263
     29          1           0        1.992735    0.964750   -2.566420
 ---------------------------------------------------------------------
 Rotational constants (GHZ):           0.5703088           0.3277810           0.3087634
   427 basis functions,  1056 primitive gaussians,   461 cartesian basis functions
    77 alpha electrons       72 beta electrons
       nuclear repulsion energy      1630.0216253091 Hartrees.
 NAtoms=   29 NActive=   29 NUniq=   29 SFac= 1.00D+00 NAtFMM=   60 NAOKFM=F Big=F
 Initial guess from the checkpoint file:  "checkpoint.chk"
 B after Tr=     0.000000    0.000000    0.000000
         Rot=    1.000000    0.000000    0.000000    0.000000 Ang=   0.00 deg.
 Initial guess <Sx>= 0.0000 <Sy>= 0.0000 <Sz>= 2.5000 <S**2>= 8.7628 S= 2.5021
 SCF Done:  E(UB3LYP) =  -3034.34969309     A.U. after   13 cycles
            NFock= 13  Conv=0.72D-08     -V/T= 2.0024
 <Sx>= 0.0000 <Sy>= 0.0000 <Sz>= 2.5000 <S**2>= 8.7621 S= 2.5020
 <L.S>= 0.000000000000E+00
 Annihilation of the first spin contaminant:
 S**2 before annihilation     8.7621,   after     8.7500
 1\1\GINC-HOLY7C18409\SP\UB3LYP\Jul-CC-pVDZ\C8H16Cl3Fe1O1(6)\EKWAN\11-F
 eb-2020\0\\#t pop=none jul-cc-pvdz guess=read ub3lyp\\theory_abbreviat
 ion b3lyp\\0,6\O,0,0.239621,0.31981,-0.841703\C,0,1.036663,1.2759,-0.6
 62096\C,0,3.052333,0.104476,0.488923\C,0,2.57774,-0.967969,-0.1804\C,0
 ,2.990971,-1.261765,-1.595523\Fe,0,-1.464994,-0.144956,0.018467\Cl,0,-
 2.080841,-1.992283,-0.952899\C,0,1.655169,-1.989024,0.414456\Cl,0,-2.6
 60519,1.62655,-0.457973\Cl,0,-1.115344,-0.339428,2.179044\H,0,3.778278
 ,0.732764,-0.027003\H,0,2.182979,-2.948036,0.506886\H,0,1.271433,-1.71
 7959,1.397283\H,0,0.803624,-2.17307,-0.251861\H,0,3.455651,-2.25484,-1
 .647716\H,0,2.114426,-1.297027,-2.25595\H,0,3.708311,-0.534352,-1.9853
 17\C,0,2.902516,0.369432,1.964171\H,0,3.714666,-0.122024,2.516945\H,0,
 2.972212,1.437763,2.190205\H,0,1.958839,-0.001298,2.372148\C,0,0.86761
 1,2.206507,0.498711\H,0,1.754335,2.817784,0.669426\H,0,0.032601,2.8706
 95,0.229118\H,0,0.579703,1.678268,1.407511\C,0,1.825578,1.760154,-1.84
 2695\H,0,1.200218,2.527439,-2.32273\H,0,2.765351,2.230971,-1.551263\H,
 0,1.992735,0.96475,-2.56642\\Version=ES64L-G16RevA.03\HF=-3034.3496931
 \S2=8.762084\S2-1=0.\S2A=8.750045\RMSD=7.163e-09\PG=C01 [X(C8H16Cl3Fe1
 O1)]\\@


 I LOVE THOSE WHO LONG FOR THE IMPOSSIBLE.

                                 -- GOETHE
 Job cpu time:       0 days  0 hours 51 minutes 49.5 seconds.
 Elapsed time:       0 days  0 hours 13 minutes 14.2 seconds.
 File lengths (MBytes):  RWF=    174 Int=      0 D2E=      0 Chk=     13 Scr=      1
 Normal termination of Gaussian 16 at Tue Feb 11 23:51:44 2020.
 Initial command:
 /n/sw/g16_nehalem/g16/l1.exe "/scratch/Gau-17971.inp" -scrdir="/scratch/"
 Entering Link 1 = /n/sw/g16_nehalem/g16/l1.exe PID=     22354.
  
 Copyright (c) 1988,1990,1992,1993,1995,1998,2003,2009,2016,
            Gaussian, Inc.  All Rights Reserved.
  
 This is part of the Gaussian(R) 16 program.  It is based on
 the Gaussian(R) 09 system (copyright 2009, Gaussian, Inc.),
 the Gaussian(R) 03 system (copyright 2003, Gaussian, Inc.),
 the Gaussian(R) 98 system (copyright 1998, Gaussian, Inc.),
 the Gaussian(R) 94 system (copyright 1995, Gaussian, Inc.),
 the Gaussian 92(TM) system (copyright 1992, Gaussian, Inc.),
 the Gaussian 90(TM) system (copyright 1990, Gaussian, Inc.),
 the Gaussian 88(TM) system (copyright 1988, Gaussian, Inc.),
 the Gaussian 86(TM) system (copyright 1986, Carnegie Mellon
 University), and the Gaussian 82(TM) system (copyright 1983,
 Carnegie Mellon University). Gaussian is a federally registered
 trademark of Gaussian, Inc.
  
 This software contains proprietary and confidential information,
 including trade secrets, belonging to Gaussian, Inc.
  
 This software is provided under written license and may be
 used, copied, transmitted, or stored only in accord with that
 written license.
  
 The following legend is applicable only to US Government
 contracts under FAR:
  
                    RESTRICTED RIGHTS LEGEND
  
 Use, reproduction and disclosure by the US Government is
 subject to restrictions as set forth in subparagraphs (a)
 and (c) of the Commercial Computer Software - Restricted
 Rights clause in FAR 52.227-19.
  
 Gaussian, Inc.
 340 Quinnipiac St., Bldg. 40, Wallingford CT 06492
  
  
 ---------------------------------------------------------------
 Warning -- This program may not be used in any manner that
 competes with the business of Gaussian, Inc. or will provide
 assistance to any competitor of Gaussian, Inc.  The licensee
 of this program is prohibited from giving any competitor of
 Gaussian, Inc. access to this program.  By using this program,
 the user acknowledges that Gaussian, Inc. is engaged in the
 business of creating and licensing software in the field of
 computational chemistry and represents and warrants to the
 licensee that it is not a competitor of Gaussian, Inc. and that
 it will not use this program in any manner prohibited above.
 ---------------------------------------------------------------
  

 Cite this work as:
 Gaussian 16, Revision A.03,
 M. J. Frisch, G. W. Trucks, H. B. Schlegel, G. E. Scuseria, 
 M. A. Robb, J. R. Cheeseman, G. Scalmani, V. Barone, 
 G. A. Petersson, H. Nakatsuji, X. Li, M. Caricato, A. V. Marenich, 
 J. Bloino, B. G. Janesko, R. Gomperts, B. Mennucci, H. P. Hratchian, 
 J. V. Ortiz, A. F. Izmaylov, J. L. Sonnenberg, D. Williams-Young, 
 F. Ding, F. Lipparini, F. Egidi, J. Goings, B. Peng, A. Petrone, 
 T. Henderson, D. Ranasinghe, V. G. Zakrzewski, J. Gao, N. Rega, 
 G. Zheng, W. Liang, M. Hada, M. Ehara, K. Toyota, R. Fukuda, 
 J. Hasegawa, M. Ishida, T. Nakajima, Y. Honda, O. Kitao, H. Nakai, 
 T. Vreven, K. Throssell, J. A. Montgomery, Jr., J. E. Peralta, 
 F. Ogliaro, M. J. Bearpark, J. J. Heyd, E. N. Brothers, K. N. Kudin, 
 V. N. Staroverov, T. A. Keith, R. Kobayashi, J. Normand, 
 K. Raghavachari, A. P. Rendell, J. C. Burant, S. S. Iyengar, 
 J. Tomasi, M. Cossi, J. M. Millam, M. Klene, C. Adamo, R. Cammi, 
 J. W. Ochterski, R. L. Martin, K. Morokuma, O. Farkas, 
 J. B. Foresman, and D. J. Fox, Gaussian, Inc., Wallingford CT, 2016.
 
 ******************************************
 Gaussian 16:  ES64L-G16RevA.03 25-Dec-2016
                11-Feb-2020 
 ******************************************
 %chk=checkpoint.chk
 %mem=3GB
 %nprocshared=4
 Will use up to    4 processors via shared memory.
 -------------------------------------------------------------------
 #t pop=none jul-cc-pvdz guess=read ub3lyp empiricaldispersion=gd3bj
 -------------------------------------------------------------------
 ------------------------------
 theory_abbreviation b3lyp_d3bj
 ------------------------------
 Symbolic Z-matrix:
 Charge =  0 Multiplicity = 6
 O                     0.23962   0.31981  -0.8417 
 C                     1.03666   1.2759   -0.6621 
 C                     3.05233   0.10448   0.48892 
 C                     2.57774  -0.96797  -0.1804 
 C                     2.99097  -1.26177  -1.59552 
 Fe                   -1.46499  -0.14496   0.01847 
 Cl                   -2.08084  -1.99228  -0.9529 
 C                     1.65517  -1.98902   0.41446 
 Cl                   -2.66052   1.62655  -0.45797 
 Cl                   -1.11534  -0.33943   2.17904 
 H                     3.77828   0.73276  -0.027 
 H                     2.18298  -2.94804   0.50689 
 H                     1.27143  -1.71796   1.39728 
 H                     0.80362  -2.17307  -0.25186 
 H                     3.45565  -2.25484  -1.64772 
 H                     2.11443  -1.29703  -2.25595 
 H                     3.70831  -0.53435  -1.98532 
 C                     2.90252   0.36943   1.96417 
 H                     3.71467  -0.12202   2.51695 
 H                     2.97221   1.43776   2.19021 
 H                     1.95884  -0.0013    2.37215 
 C                     0.86761   2.20651   0.49871 
 H                     1.75434   2.81778   0.66943 
 H                     0.0326    2.8707    0.22912 
 H                     0.5797    1.67827   1.40751 
 C                     1.82558   1.76015  -1.8427 
 H                     1.20022   2.52744  -2.32273 
 H                     2.76535   2.23097  -1.55126 
 H                     1.99274   0.96475  -2.56642 
 
                    Distance matrix (angstroms):
                    1          2          3          4          5
     1  O    0.000000
     2  C    1.257634   0.000000
     3  C    3.119020   2.600001   0.000000
     4  C    2.749999   2.764398   1.350322   0.000000
     5  C    3.261832   3.336218   2.493049   1.503213   0.000000
     6  Fe   1.965099   2.956397   4.548603   4.130448   4.869071
     7  Cl   3.277603   4.525971   5.729287   4.832013   5.164291
     8  C    2.985369   3.493028   2.518006   1.499181   2.520573
     9  Cl   3.204002   3.719378   5.987487   5.852173   6.447924
    10  Cl   3.375713   3.913118   4.519191   4.427291   5.653307
    11  H    3.654635   2.866146   1.089918   2.087418   2.656737
    12  H    4.034123   4.530143   3.173945   2.132807   2.813625
    13  H    3.198468   3.641339   2.705179   2.181286   3.481639
    14  H    2.623064   3.481091   3.285220   2.145894   2.724040
    15  H    4.197777   4.391933   3.208467   2.140042   1.097656
    16  H    2.851166   3.212771   3.221523   2.151940   1.098061
    17  H    3.750901   3.487926   2.638233   2.173463   1.093456
    18  C    3.868643   3.346695   1.506321   2.548197   3.916638
    19  H    4.853006   4.385452   2.145428   3.046948   4.328410
    20  H    4.231943   3.450822   2.162969   3.400430   4.649682
    21  H    3.658915   3.418813   2.180242   2.798748   4.289113
    22  C    2.398063   1.497358   3.031772   3.669200   4.574209
    23  H    3.289034   2.159956   3.013208   3.966374   4.827213
    24  H    2.774262   2.084652   4.103443   4.623935   5.399861
    25  H    2.649533   2.157310   3.071567   3.676436   4.845227
    26  C    2.364706   1.500234   3.111694   3.282016   3.248266
    27  H    2.826626   2.085858   4.148068   4.324930   4.253668
    28  H    3.245816   2.165904   2.960861   3.485352   3.500295
    29  H    2.542441   2.153448   3.346332   3.125816   2.626116
                    6          7          8          9         10
     6  Fe   0.000000
     7  Cl   2.176106   0.000000
     8  C    3.645931   3.978372   0.000000
     9  Cl   2.189637   3.698233   5.697251   0.000000
    10  Cl   2.197309   3.670583   3.675688   3.634074   0.000000
    11  H    5.316424   6.527820   3.480030   6.514806   5.473918
    12  H    4.626394   4.607016   1.098558   6.731810   4.525470
    13  H    3.444344   4.103212   1.089348   5.485249   2.864996
    14  H    3.054988   2.973933   1.096805   5.145861   3.599164
    15  H    5.607185   5.586094   2.750445   7.340859   6.261541
    16  H    4.394598   4.447650   2.796577   5.880487   5.569343
    17  H    5.561462   6.058525   3.477121   6.896686   6.375543
    18  C    4.808898   6.238657   3.085418   6.196328   4.085566
    19  H    5.750808   7.008965   3.485352   7.249181   4.846694
    20  H    5.187508   6.868600   4.078082   6.227050   4.457202
    21  H    4.157293   5.598122   2.806391   5.656672   3.098745
    22  C    3.346798   5.332014   4.269640   3.701256   3.638326
    23  H    4.423308   6.362174   4.814587   4.709671   4.525703
    24  H    3.373621   5.432528   5.126787   3.045141   3.927452
    25  H    3.071543   5.111064   3.948647   3.739217   2.745823
    26  C    4.233348   5.489320   4.379510   4.696847   5.406630
    27  H    4.441425   5.750624   5.300717   4.381120   5.817794
    28  H    5.099500   6.455966   4.785908   5.567825   5.965060
    29  H    4.457463   5.285973   4.210030   5.151340   5.820693
                   11         12         13         14         15
    11  H    0.000000
    12  H    4.047012   0.000000
    13  H    3.784033   1.771105   0.000000
    14  H    4.164493   1.754676   1.773597   0.000000
    15  H    3.414173   2.596637   3.785640   2.998057   0.000000
    16  H    3.443350   3.219285   3.772788   2.549907   1.756769
    17  H    2.333554   3.789932   4.333738   3.758653   1.771409
    18  C    2.205390   3.694186   2.709058   3.972463   4.498721
    19  H    2.684470   3.791140   3.125706   4.510792   4.686192
    20  H    2.462271   4.763579   3.671506   4.868734   5.347772
    21  H    3.099215   3.494668   2.090410   3.596740   4.845431
    22  C    3.304584   5.319734   4.046225   4.443889   5.586476
    23  H    2.988088   5.784015   4.619084   5.163453   5.830535
    24  H    4.320468   6.209582   4.894391   5.124976   6.442894
    25  H    3.630797   4.978384   3.465971   4.199579   5.751072
    26  C    2.857500   5.274023   4.785583   4.364103   4.337664
    27  H    3.890709   6.241264   5.645084   5.151754   5.330367
    28  H    2.365167   5.603325   5.149734   4.993235   4.539638
    29  H    3.112976   4.979086   4.840263   4.076406   3.653752
                   16         17         18         19         20
    16  H    0.000000
    17  H    1.787564   0.000000
    18  C    4.605170   4.130930   0.000000
    19  H    5.169326   4.521108   1.098488   0.000000
    20  H    5.289912   4.676116   1.094203   1.758105   0.000000
    21  H    4.808577   4.725706   1.092892   1.765919   1.769442
    22  C    4.627900   4.663934   3.108578   4.195360   2.807395
    23  H    5.061537   4.701329   2.998185   3.987317   2.387562
    24  H    5.280101   5.478039   4.183675   5.267649   3.813197
    25  H    4.962731   5.118120   2.723671   3.781519   2.528745
    26  C    3.098478   2.971495   4.193582   5.110549   4.205114
    27  H    3.932782   3.972272   5.092380   6.063378   4.969300
    28  H    3.656099   2.953741   3.980253   4.794591   3.830216
    29  H    2.286227   2.351210   4.659223   5.476013   4.879405
                   21         22         23         24         25
    21  H    0.000000
    22  C    3.094341   0.000000
    23  H    3.299744   1.090451   0.000000
    24  H    4.068331   1.100485   1.777931   0.000000
    25  H    2.377705   1.089883   1.795279   1.763466   0.000000
    26  C    4.570052   2.568874   2.726611   2.956430   3.481774
    27  H    5.386269   2.859048   3.056852   2.827204   3.875671
    28  H    4.585481   2.793637   2.509574   3.323692   3.719796
    29  H    5.032281   3.493264   3.736478   3.910215   4.277604
                   26         27         28         29
    26  C    0.000000
    27  H    1.100107   0.000000
    28  H    1.090768   1.769942   0.000000
    29  H    1.088295   1.769029   1.797441   0.000000
 Framework group  C1[X(C8H16Cl3FeO)]
 Deg. of freedom    81
                         Standard orientation:                         
 ---------------------------------------------------------------------
 Center     Atomic      Atomic             Coordinates (Angstroms)
 Number     Number       Type             X           Y           Z
 ---------------------------------------------------------------------
      1          8           0        0.239621    0.319810   -0.841703
      2          6           0        1.036663    1.275900   -0.662096
      3          6           0        3.052333    0.104476    0.488923
      4          6           0        2.577740   -0.967969   -0.180400
      5          6           0        2.990971   -1.261765   -1.595523
      6         26           0       -1.464994   -0.144956    0.018467
      7         17           0       -2.080841   -1.992283   -0.952899
      8          6           0        1.655169   -1.989024    0.414456
      9         17           0       -2.660519    1.626550   -0.457973
     10         17           0       -1.115344   -0.339428    2.179044
     11          1           0        3.778278    0.732764   -0.027003
     12          1           0        2.182979   -2.948036    0.506886
     13          1           0        1.271433   -1.717959    1.397283
     14          1           0        0.803624   -2.173070   -0.251861
     15          1           0        3.455651   -2.254840   -1.647716
     16          1           0        2.114426   -1.297027   -2.255950
     17          1           0        3.708311   -0.534352   -1.985317
     18          6           0        2.902516    0.369432    1.964171
     19          1           0        3.714666   -0.122024    2.516945
     20          1           0        2.972212    1.437763    2.190205
     21          1           0        1.958839   -0.001298    2.372148
     22          6           0        0.867611    2.206507    0.498711
     23          1           0        1.754335    2.817784    0.669426
     24          1           0        0.032601    2.870695    0.229118
     25          1           0        0.579703    1.678268    1.407511
     26          6           0        1.825578    1.760154   -1.842695
     27          1           0        1.200218    2.527439   -2.322730
     28          1           0        2.765351    2.230971   -1.551263
     29          1           0        1.992735    0.964750   -2.566420
 ---------------------------------------------------------------------
 Rotational constants (GHZ):           0.5703088           0.3277810           0.3087634
   427 basis functions,  1056 primitive gaussians,   461 cartesian basis functions
    77 alpha electrons       72 beta electrons
       nuclear repulsion energy      1630.0216253091 Hartrees.
 NAtoms=   29 NActive=   29 NUniq=   29 SFac= 1.00D+00 NAtFMM=   60 NAOKFM=F Big=F
 Nuclear repulsion after empirical dispersion term =     1629.9530743746 Hartrees.
 Initial guess from the checkpoint file:  "checkpoint.chk"
 B after Tr=     0.000000    0.000000    0.000000
         Rot=    1.000000    0.000000    0.000000    0.000000 Ang=   0.00 deg.
 Initial guess <Sx>= 0.0000 <Sy>= 0.0000 <Sz>= 2.5000 <S**2>= 8.7621 S= 2.5020
 SCF Done:  E(UB3LYP) =  -3034.41824402     A.U. after    1 cycles
            NFock=  1  Conv=0.50D-08     -V/T= 2.0024
 <Sx>= 0.0000 <Sy>= 0.0000 <Sz>= 2.5000 <S**2>= 8.7621 S= 2.5020
 <L.S>= 0.000000000000E+00
 Annihilation of the first spin contaminant:
 S**2 before annihilation     8.7621,   after     8.7500
 1\1\GINC-HOLY7C18409\SP\UB3LYP\Jul-CC-pVDZ\C8H16Cl3Fe1O1(6)\EKWAN\11-F
 eb-2020\0\\#t pop=none jul-cc-pvdz guess=read ub3lyp empiricaldispersi
 on=gd3bj\\theory_abbreviation b3lyp_d3bj\\0,6\O,0,0.239621,0.31981,-0.
 841703\C,0,1.036663,1.2759,-0.662096\C,0,3.052333,0.104476,0.488923\C,
 0,2.57774,-0.967969,-0.1804\C,0,2.990971,-1.261765,-1.595523\Fe,0,-1.4
 64994,-0.144956,0.018467\Cl,0,-2.080841,-1.992283,-0.952899\C,0,1.6551
 69,-1.989024,0.414456\Cl,0,-2.660519,1.62655,-0.457973\Cl,0,-1.115344,
 -0.339428,2.179044\H,0,3.778278,0.732764,-0.027003\H,0,2.182979,-2.948
 036,0.506886\H,0,1.271433,-1.717959,1.397283\H,0,0.803624,-2.17307,-0.
 251861\H,0,3.455651,-2.25484,-1.647716\H,0,2.114426,-1.297027,-2.25595
 \H,0,3.708311,-0.534352,-1.985317\C,0,2.902516,0.369432,1.964171\H,0,3
 .714666,-0.122024,2.516945\H,0,2.972212,1.437763,2.190205\H,0,1.958839
 ,-0.001298,2.372148\C,0,0.867611,2.206507,0.498711\H,0,1.754335,2.8177
 84,0.669426\H,0,0.032601,2.870695,0.229118\H,0,0.579703,1.678268,1.407
 511\C,0,1.825578,1.760154,-1.842695\H,0,1.200218,2.527439,-2.32273\H,0
 ,2.765351,2.230971,-1.551263\H,0,1.992735,0.96475,-2.56642\\Version=ES
 64L-G16RevA.03\HF=-3034.418244\S2=8.762084\S2-1=0.\S2A=8.750045\RMSD=5
 .015e-09\PG=C01 [X(C8H16Cl3Fe1O1)]\\@


 ON A TOMBSTONE, "HERE LIES LESTER MOORE,
 FOUR SLUGS FROM A 44, NO LES, NO MORE".
 Job cpu time:       0 days  0 hours  4 minutes 33.9 seconds.
 Elapsed time:       0 days  0 hours  1 minutes 12.5 seconds.
 File lengths (MBytes):  RWF=    170 Int=      0 D2E=      0 Chk=     13 Scr=      1
 Normal termination of Gaussian 16 at Tue Feb 11 23:52:57 2020.
 Initial command:
 /n/sw/g16_nehalem/g16/l1.exe "/scratch/Gau-17971.inp" -scrdir="/scratch/"
 Entering Link 1 = /n/sw/g16_nehalem/g16/l1.exe PID=     22546.
  
 Copyright (c) 1988,1990,1992,1993,1995,1998,2003,2009,2016,
            Gaussian, Inc.  All Rights Reserved.
  
 This is part of the Gaussian(R) 16 program.  It is based on
 the Gaussian(R) 09 system (copyright 2009, Gaussian, Inc.),
 the Gaussian(R) 03 system (copyright 2003, Gaussian, Inc.),
 the Gaussian(R) 98 system (copyright 1998, Gaussian, Inc.),
 the Gaussian(R) 94 system (copyright 1995, Gaussian, Inc.),
 the Gaussian 92(TM) system (copyright 1992, Gaussian, Inc.),
 the Gaussian 90(TM) system (copyright 1990, Gaussian, Inc.),
 the Gaussian 88(TM) system (copyright 1988, Gaussian, Inc.),
 the Gaussian 86(TM) system (copyright 1986, Carnegie Mellon
 University), and the Gaussian 82(TM) system (copyright 1983,
 Carnegie Mellon University). Gaussian is a federally registered
 trademark of Gaussian, Inc.
  
 This software contains proprietary and confidential information,
 including trade secrets, belonging to Gaussian, Inc.
  
 This software is provided under written license and may be
 used, copied, transmitted, or stored only in accord with that
 written license.
  
 The following legend is applicable only to US Government
 contracts under FAR:
  
                    RESTRICTED RIGHTS LEGEND
  
 Use, reproduction and disclosure by the US Government is
 subject to restrictions as set forth in subparagraphs (a)
 and (c) of the Commercial Computer Software - Restricted
 Rights clause in FAR 52.227-19.
  
 Gaussian, Inc.
 340 Quinnipiac St., Bldg. 40, Wallingford CT 06492
  
  
 ---------------------------------------------------------------
 Warning -- This program may not be used in any manner that
 competes with the business of Gaussian, Inc. or will provide
 assistance to any competitor of Gaussian, Inc.  The licensee
 of this program is prohibited from giving any competitor of
 Gaussian, Inc. access to this program.  By using this program,
 the user acknowledges that Gaussian, Inc. is engaged in the
 business of creating and licensing software in the field of
 computational chemistry and represents and warrants to the
 licensee that it is not a competitor of Gaussian, Inc. and that
 it will not use this program in any manner prohibited above.
 ---------------------------------------------------------------
  

 Cite this work as:
 Gaussian 16, Revision A.03,
 M. J. Frisch, G. W. Trucks, H. B. Schlegel, G. E. Scuseria, 
 M. A. Robb, J. R. Cheeseman, G. Scalmani, V. Barone, 
 G. A. Petersson, H. Nakatsuji, X. Li, M. Caricato, A. V. Marenich, 
 J. Bloino, B. G. Janesko, R. Gomperts, B. Mennucci, H. P. Hratchian, 
 J. V. Ortiz, A. F. Izmaylov, J. L. Sonnenberg, D. Williams-Young, 
 F. Ding, F. Lipparini, F. Egidi, J. Goings, B. Peng, A. Petrone, 
 T. Henderson, D. Ranasinghe, V. G. Zakrzewski, J. Gao, N. Rega, 
 G. Zheng, W. Liang, M. Hada, M. Ehara, K. Toyota, R. Fukuda, 
 J. Hasegawa, M. Ishida, T. Nakajima, Y. Honda, O. Kitao, H. Nakai, 
 T. Vreven, K. Throssell, J. A. Montgomery, Jr., J. E. Peralta, 
 F. Ogliaro, M. J. Bearpark, J. J. Heyd, E. N. Brothers, K. N. Kudin, 
 V. N. Staroverov, T. A. Keith, R. Kobayashi, J. Normand, 
 K. Raghavachari, A. P. Rendell, J. C. Burant, S. S. Iyengar, 
 J. Tomasi, M. Cossi, J. M. Millam, M. Klene, C. Adamo, R. Cammi, 
 J. W. Ochterski, R. L. Martin, K. Morokuma, O. Farkas, 
 J. B. Foresman, and D. J. Fox, Gaussian, Inc., Wallingford CT, 2016.
 
 ******************************************
 Gaussian 16:  ES64L-G16RevA.03 25-Dec-2016
                11-Feb-2020 
 ******************************************
 %chk=checkpoint.chk
 %mem=3GB
 %nprocshared=4
 Will use up to    4 processors via shared memory.
 ----------------------------------------
 #t pop=none jul-cc-pvdz guess=read ub97d
 ----------------------------------------
 ------------------------
 theory_abbreviation b97d
 ------------------------
 Symbolic Z-matrix:
 Charge =  0 Multiplicity = 6
 O                     0.23962   0.31981  -0.8417 
 C                     1.03666   1.2759   -0.6621 
 C                     3.05233   0.10448   0.48892 
 C                     2.57774  -0.96797  -0.1804 
 C                     2.99097  -1.26177  -1.59552 
 Fe                   -1.46499  -0.14496   0.01847 
 Cl                   -2.08084  -1.99228  -0.9529 
 C                     1.65517  -1.98902   0.41446 
 Cl                   -2.66052   1.62655  -0.45797 
 Cl                   -1.11534  -0.33943   2.17904 
 H                     3.77828   0.73276  -0.027 
 H                     2.18298  -2.94804   0.50689 
 H                     1.27143  -1.71796   1.39728 
 H                     0.80362  -2.17307  -0.25186 
 H                     3.45565  -2.25484  -1.64772 
 H                     2.11443  -1.29703  -2.25595 
 H                     3.70831  -0.53435  -1.98532 
 C                     2.90252   0.36943   1.96417 
 H                     3.71467  -0.12202   2.51695 
 H                     2.97221   1.43776   2.19021 
 H                     1.95884  -0.0013    2.37215 
 C                     0.86761   2.20651   0.49871 
 H                     1.75434   2.81778   0.66943 
 H                     0.0326    2.8707    0.22912 
 H                     0.5797    1.67827   1.40751 
 C                     1.82558   1.76015  -1.8427 
 H                     1.20022   2.52744  -2.32273 
 H                     2.76535   2.23097  -1.55126 
 H                     1.99274   0.96475  -2.56642 
 
                    Distance matrix (angstroms):
                    1          2          3          4          5
     1  O    0.000000
     2  C    1.257634   0.000000
     3  C    3.119020   2.600001   0.000000
     4  C    2.749999   2.764398   1.350322   0.000000
     5  C    3.261832   3.336218   2.493049   1.503213   0.000000
     6  Fe   1.965099   2.956397   4.548603   4.130448   4.869071
     7  Cl   3.277603   4.525971   5.729287   4.832013   5.164291
     8  C    2.985369   3.493028   2.518006   1.499181   2.520573
     9  Cl   3.204002   3.719378   5.987487   5.852173   6.447924
    10  Cl   3.375713   3.913118   4.519191   4.427291   5.653307
    11  H    3.654635   2.866146   1.089918   2.087418   2.656737
    12  H    4.034123   4.530143   3.173945   2.132807   2.813625
    13  H    3.198468   3.641339   2.705179   2.181286   3.481639
    14  H    2.623064   3.481091   3.285220   2.145894   2.724040
    15  H    4.197777   4.391933   3.208467   2.140042   1.097656
    16  H    2.851166   3.212771   3.221523   2.151940   1.098061
    17  H    3.750901   3.487926   2.638233   2.173463   1.093456
    18  C    3.868643   3.346695   1.506321   2.548197   3.916638
    19  H    4.853006   4.385452   2.145428   3.046948   4.328410
    20  H    4.231943   3.450822   2.162969   3.400430   4.649682
    21  H    3.658915   3.418813   2.180242   2.798748   4.289113
    22  C    2.398063   1.497358   3.031772   3.669200   4.574209
    23  H    3.289034   2.159956   3.013208   3.966374   4.827213
    24  H    2.774262   2.084652   4.103443   4.623935   5.399861
    25  H    2.649533   2.157310   3.071567   3.676436   4.845227
    26  C    2.364706   1.500234   3.111694   3.282016   3.248266
    27  H    2.826626   2.085858   4.148068   4.324930   4.253668
    28  H    3.245816   2.165904   2.960861   3.485352   3.500295
    29  H    2.542441   2.153448   3.346332   3.125816   2.626116
                    6          7          8          9         10
     6  Fe   0.000000
     7  Cl   2.176106   0.000000
     8  C    3.645931   3.978372   0.000000
     9  Cl   2.189637   3.698233   5.697251   0.000000
    10  Cl   2.197309   3.670583   3.675688   3.634074   0.000000
    11  H    5.316424   6.527820   3.480030   6.514806   5.473918
    12  H    4.626394   4.607016   1.098558   6.731810   4.525470
    13  H    3.444344   4.103212   1.089348   5.485249   2.864996
    14  H    3.054988   2.973933   1.096805   5.145861   3.599164
    15  H    5.607185   5.586094   2.750445   7.340859   6.261541
    16  H    4.394598   4.447650   2.796577   5.880487   5.569343
    17  H    5.561462   6.058525   3.477121   6.896686   6.375543
    18  C    4.808898   6.238657   3.085418   6.196328   4.085566
    19  H    5.750808   7.008965   3.485352   7.249181   4.846694
    20  H    5.187508   6.868600   4.078082   6.227050   4.457202
    21  H    4.157293   5.598122   2.806391   5.656672   3.098745
    22  C    3.346798   5.332014   4.269640   3.701256   3.638326
    23  H    4.423308   6.362174   4.814587   4.709671   4.525703
    24  H    3.373621   5.432528   5.126787   3.045141   3.927452
    25  H    3.071543   5.111064   3.948647   3.739217   2.745823
    26  C    4.233348   5.489320   4.379510   4.696847   5.406630
    27  H    4.441425   5.750624   5.300717   4.381120   5.817794
    28  H    5.099500   6.455966   4.785908   5.567825   5.965060
    29  H    4.457463   5.285973   4.210030   5.151340   5.820693
                   11         12         13         14         15
    11  H    0.000000
    12  H    4.047012   0.000000
    13  H    3.784033   1.771105   0.000000
    14  H    4.164493   1.754676   1.773597   0.000000
    15  H    3.414173   2.596637   3.785640   2.998057   0.000000
    16  H    3.443350   3.219285   3.772788   2.549907   1.756769
    17  H    2.333554   3.789932   4.333738   3.758653   1.771409
    18  C    2.205390   3.694186   2.709058   3.972463   4.498721
    19  H    2.684470   3.791140   3.125706   4.510792   4.686192
    20  H    2.462271   4.763579   3.671506   4.868734   5.347772
    21  H    3.099215   3.494668   2.090410   3.596740   4.845431
    22  C    3.304584   5.319734   4.046225   4.443889   5.586476
    23  H    2.988088   5.784015   4.619084   5.163453   5.830535
    24  H    4.320468   6.209582   4.894391   5.124976   6.442894
    25  H    3.630797   4.978384   3.465971   4.199579   5.751072
    26  C    2.857500   5.274023   4.785583   4.364103   4.337664
    27  H    3.890709   6.241264   5.645084   5.151754   5.330367
    28  H    2.365167   5.603325   5.149734   4.993235   4.539638
    29  H    3.112976   4.979086   4.840263   4.076406   3.653752
                   16         17         18         19         20
    16  H    0.000000
    17  H    1.787564   0.000000
    18  C    4.605170   4.130930   0.000000
    19  H    5.169326   4.521108   1.098488   0.000000
    20  H    5.289912   4.676116   1.094203   1.758105   0.000000
    21  H    4.808577   4.725706   1.092892   1.765919   1.769442
[...]
     28          1           0        2.765351    2.230971   -1.551263
     29          1           0        1.992735    0.964750   -2.566420
 ---------------------------------------------------------------------
 Rotational constants (GHZ):           0.5703088           0.3277810           0.3087634
   427 basis functions,  1056 primitive gaussians,   461 cartesian basis functions
    77 alpha electrons       72 beta electrons
       nuclear repulsion energy      1630.0216253091 Hartrees.
 NAtoms=   29 NActive=   29 NUniq=   29 SFac= 1.00D+00 NAtFMM=   60 NAOKFM=F Big=F
 Nuclear repulsion after empirical dispersion term =     1630.0191459355 Hartrees.
 Initial guess from the checkpoint file:  "checkpoint.chk"
 B after Tr=     0.000000    0.000000    0.000000
         Rot=    1.000000    0.000000    0.000000    0.000000 Ang=   0.00 deg.
 Initial guess <Sx>= 0.0000 <Sy>= 0.0000 <Sz>= 2.5000 <S**2>= 8.7618 S= 2.5020
 SCF Done:  E(UM06L) =  -3034.21827044     A.U. after   17 cycles
            NFock= 17  Conv=0.72D-08     -V/T= 2.0020
 <Sx>= 0.0000 <Sy>= 0.0000 <Sz>= 2.5000 <S**2>= 8.7617 S= 2.5019
 <L.S>= 0.000000000000E+00
 Annihilation of the first spin contaminant:
 S**2 before annihilation     8.7617,   after     8.7500
 1\1\GINC-HOLY7C18409\SP\UM06L\Jul-CC-pVDZ\C8H16Cl3Fe1O1(6)\EKWAN\12-Fe
 b-2020\0\\#t pop=none jul-cc-pvdz guess=read um06l empiricaldispersion
 =gd3\\theory_abbreviation m06l_d3\\0,6\O,0,0.239621,0.31981,-0.841703\
 C,0,1.036663,1.2759,-0.662096\C,0,3.052333,0.104476,0.488923\C,0,2.577
 74,-0.967969,-0.1804\C,0,2.990971,-1.261765,-1.595523\Fe,0,-1.464994,-
 0.144956,0.018467\Cl,0,-2.080841,-1.992283,-0.952899\C,0,1.655169,-1.9
 89024,0.414456\Cl,0,-2.660519,1.62655,-0.457973\Cl,0,-1.115344,-0.3394
 28,2.179044\H,0,3.778278,0.732764,-0.027003\H,0,2.182979,-2.948036,0.5
 06886\H,0,1.271433,-1.717959,1.397283\H,0,0.803624,-2.17307,-0.251861\
 H,0,3.455651,-2.25484,-1.647716\H,0,2.114426,-1.297027,-2.25595\H,0,3.
 708311,-0.534352,-1.985317\C,0,2.902516,0.369432,1.964171\H,0,3.714666
 ,-0.122024,2.516945\H,0,2.972212,1.437763,2.190205\H,0,1.958839,-0.001
 298,2.372148\C,0,0.867611,2.206507,0.498711\H,0,1.754335,2.817784,0.66
 9426\H,0,0.032601,2.870695,0.229118\H,0,0.579703,1.678268,1.407511\C,0
 ,1.825578,1.760154,-1.842695\H,0,1.200218,2.527439,-2.32273\H,0,2.7653
 51,2.230971,-1.551263\H,0,1.992735,0.96475,-2.56642\\Version=ES64L-G16
 RevA.03\HF=-3034.2182704\S2=8.761659\S2-1=0.\S2A=8.750043\RMSD=7.212e-
 09\PG=C01 [X(C8H16Cl3Fe1O1)]\\@


 IT IS BY LOGIC THAT WE PROVE, BUT BY INTUITION THAT WE DISCOVER.
     -- J.H.POINCARE (1854-1912)
 Job cpu time:       0 days  1 hours 13 minutes 39.6 seconds.
 Elapsed time:       0 days  0 hours 19 minutes 12.4 seconds.
 File lengths (MBytes):  RWF=    174 Int=      0 D2E=      0 Chk=     13 Scr=      1
 Normal termination of Gaussian 16 at Wed Feb 12 08:37:59 2020.
 Initial command:
 /n/sw/g16_nehalem/g16/l1.exe "/scratch/Gau-17971.inp" -scrdir="/scratch/"
 Entering Link 1 = /n/sw/g16_nehalem/g16/l1.exe PID=     71516.
  
 Copyright (c) 1988,1990,1992,1993,1995,1998,2003,2009,2016,
            Gaussian, Inc.  All Rights Reserved.
  
 This is part of the Gaussian(R) 16 program.  It is based on
 the Gaussian(R) 09 system (copyright 2009, Gaussian, Inc.),
 the Gaussian(R) 03 system (copyright 2003, Gaussian, Inc.),
 the Gaussian(R) 98 system (copyright 1998, Gaussian, Inc.),
 the Gaussian(R) 94 system (copyright 1995, Gaussian, Inc.),
 the Gaussian 92(TM) system (copyright 1992, Gaussian, Inc.),
 the Gaussian 90(TM) system (copyright 1990, Gaussian, Inc.),
 the Gaussian 88(TM) system (copyright 1988, Gaussian, Inc.),
 the Gaussian 86(TM) system (copyright 1986, Carnegie Mellon
 University), and the Gaussian 82(TM) system (copyright 1983,
 Carnegie Mellon University). Gaussian is a federally registered
 trademark of Gaussian, Inc.
  
 This software contains proprietary and confidential information,
 including trade secrets, belonging to Gaussian, Inc.
  
 This software is provided under written license and may be
 used, copied, transmitted, or stored only in accord with that
 written license.
  
 The following legend is applicable only to US Government
 contracts under FAR:
  
                    RESTRICTED RIGHTS LEGEND
  
 Use, reproduction and disclosure by the US Government is
 subject to restrictions as set forth in subparagraphs (a)
 and (c) of the Commercial Computer Software - Restricted
 Rights clause in FAR 52.227-19.
  
 Gaussian, Inc.
 340 Quinnipiac St., Bldg. 40, Wallingford CT 06492
  
  
 ---------------------------------------------------------------
 Warning -- This program may not be used in any manner that
 competes with the business of Gaussian, Inc. or will provide
 assistance to any competitor of Gaussian, Inc.  The licensee
 of this program is prohibited from giving any competitor of
 Gaussian, Inc. access to this program.  By using this program,
 the user acknowledges that Gaussian, Inc. is engaged in the
 business of creating and licensing software in the field of
 computational chemistry and represents and warrants to the
 licensee that it is not a competitor of Gaussian, Inc. and that
 it will not use this program in any manner prohibited above.
 ---------------------------------------------------------------
  

 Cite this work as:
 Gaussian 16, Revision A.03,
 M. J. Frisch, G. W. Trucks, H. B. Schlegel, G. E. Scuseria, 
 M. A. Robb, J. R. Cheeseman, G. Scalmani, V. Barone, 
 G. A. Petersson, H. Nakatsuji, X. Li, M. Caricato, A. V. Marenich, 
 J. Bloino, B. G. Janesko, R. Gomperts, B. Mennucci, H. P. Hratchian, 
 J. V. Ortiz, A. F. Izmaylov, J. L. Sonnenberg, D. Williams-Young, 
 F. Ding, F. Lipparini, F. Egidi, J. Goings, B. Peng, A. Petrone, 
 T. Henderson, D. Ranasinghe, V. G. Zakrzewski, J. Gao, N. Rega, 
 G. Zheng, W. Liang, M. Hada, M. Ehara, K. Toyota, R. Fukuda, 
 J. Hasegawa, M. Ishida, T. Nakajima, Y. Honda, O. Kitao, H. Nakai, 
 T. Vreven, K. Throssell, J. A. Montgomery, Jr., J. E. Peralta, 
 F. Ogliaro, M. J. Bearpark, J. J. Heyd, E. N. Brothers, K. N. Kudin, 
 V. N. Staroverov, T. A. Keith, R. Kobayashi, J. Normand, 
 K. Raghavachari, A. P. Rendell, J. C. Burant, S. S. Iyengar, 
 J. Tomasi, M. Cossi, J. M. Millam, M. Klene, C. Adamo, R. Cammi, 
 J. W. Ochterski, R. L. Martin, K. Morokuma, O. Farkas, 
 J. B. Foresman, and D. J. Fox, Gaussian, Inc., Wallingford CT, 2016.
 
 ******************************************
 Gaussian 16:  ES64L-G16RevA.03 25-Dec-2016
                12-Feb-2020 
 ******************************************
 %chk=checkpoint.chk
 %mem=3GB
 %nprocshared=4
 Will use up to    4 processors via shared memory.
 -------------------------------------------------------------------
 #t pop=none jul-cc-pvdz guess=read ub97d3 empiricaldispersion=gd3bj
 -------------------------------------------------------------------
 ------------------------------
 theory_abbreviation b97d3_d3bj
 ------------------------------
 Symbolic Z-matrix:
 Charge =  0 Multiplicity = 6
 O                     0.23962   0.31981  -0.8417 
 C                     1.03666   1.2759   -0.6621 
 C                     3.05233   0.10448   0.48892 
 C                     2.57774  -0.96797  -0.1804 
 C                     2.99097  -1.26177  -1.59552 
 Fe                   -1.46499  -0.14496   0.01847 
 Cl                   -2.08084  -1.99228  -0.9529 
 C                     1.65517  -1.98902   0.41446 
 Cl                   -2.66052   1.62655  -0.45797 
 Cl                   -1.11534  -0.33943   2.17904 
 H                     3.77828   0.73276  -0.027 
 H                     2.18298  -2.94804   0.50689 
 H                     1.27143  -1.71796   1.39728 
 H                     0.80362  -2.17307  -0.25186 
 H                     3.45565  -2.25484  -1.64772 
 H                     2.11443  -1.29703  -2.25595 
 H                     3.70831  -0.53435  -1.98532 
 C                     2.90252   0.36943   1.96417 
 H                     3.71467  -0.12202   2.51695 
 H                     2.97221   1.43776   2.19021 
 H                     1.95884  -0.0013    2.37215 
 C                     0.86761   2.20651   0.49871 
 H                     1.75434   2.81778   0.66943 
 H                     0.0326    2.8707    0.22912 
 H                     0.5797    1.67827   1.40751 
 C                     1.82558   1.76015  -1.8427 
 H                     1.20022   2.52744  -2.32273 
 H                     2.76535   2.23097  -1.55126 
 H                     1.99274   0.96475  -2.56642 
 
                    Distance matrix (angstroms):
                    1          2          3          4          5
     1  O    0.000000
     2  C    1.257634   0.000000
     3  C    3.119020   2.600001   0.000000
     4  C    2.749999   2.764398   1.350322   0.000000
     5  C    3.261832   3.336218   2.493049   1.503213   0.000000
     6  Fe   1.965099   2.956397   4.548603   4.130448   4.869071
     7  Cl   3.277603   4.525971   5.729287   4.832013   5.164291
     8  C    2.985369   3.493028   2.518006   1.499181   2.520573
     9  Cl   3.204002   3.719378   5.987487   5.852173   6.447924
    10  Cl   3.375713   3.913118   4.519191   4.427291   5.653307
    11  H    3.654635   2.866146   1.089918   2.087418   2.656737
    12  H    4.034123   4.530143   3.173945   2.132807   2.813625
    13  H    3.198468   3.641339   2.705179   2.181286   3.481639
    14  H    2.623064   3.481091   3.285220   2.145894   2.724040
    15  H    4.197777   4.391933   3.208467   2.140042   1.097656
    16  H    2.851166   3.212771   3.221523   2.151940   1.098061
    17  H    3.750901   3.487926   2.638233   2.173463   1.093456
    18  C    3.868643   3.346695   1.506321   2.548197   3.916638
    19  H    4.853006   4.385452   2.145428   3.046948   4.328410
    20  H    4.231943   3.450822   2.162969   3.400430   4.649682
    21  H    3.658915   3.418813   2.180242   2.798748   4.289113
    22  C    2.398063   1.497358   3.031772   3.669200   4.574209
    23  H    3.289034   2.159956   3.013208   3.966374   4.827213
    24  H    2.774262   2.084652   4.103443   4.623935   5.399861
    25  H    2.649533   2.157310   3.071567   3.676436   4.845227
    26  C    2.364706   1.500234   3.111694   3.282016   3.248266
    27  H    2.826626   2.085858   4.148068   4.324930   4.253668
    28  H    3.245816   2.165904   2.960861   3.485352   3.500295
    29  H    2.542441   2.153448   3.346332   3.125816   2.626116
                    6          7          8          9         10
     6  Fe   0.000000
     7  Cl   2.176106   0.000000
     8  C    3.645931   3.978372   0.000000
     9  Cl   2.189637   3.698233   5.697251   0.000000
    10  Cl   2.197309   3.670583   3.675688   3.634074   0.000000
    11  H    5.316424   6.527820   3.480030   6.514806   5.473918
    12  H    4.626394   4.607016   1.098558   6.731810   4.525470
    13  H    3.444344   4.103212   1.089348   5.485249   2.864996
    14  H    3.054988   2.973933   1.096805   5.145861   3.599164
    15  H    5.607185   5.586094   2.750445   7.340859   6.261541
    16  H    4.394598   4.447650   2.796577   5.880487   5.569343
    17  H    5.561462   6.058525   3.477121   6.896686   6.375543
    18  C    4.808898   6.238657   3.085418   6.196328   4.085566
    19  H    5.750808   7.008965   3.485352   7.249181   4.846694
    20  H    5.187508   6.868600   4.078082   6.227050   4.457202
    21  H    4.157293   5.598122   2.806391   5.656672   3.098745
    22  C    3.346798   5.332014   4.269640   3.701256   3.638326
    23  H    4.423308   6.362174   4.814587   4.709671   4.525703
    24  H    3.373621   5.432528   5.126787   3.045141   3.927452
    25  H    3.071543   5.111064   3.948647   3.739217   2.745823
    26  C    4.233348   5.489320   4.379510   4.696847   5.406630
    27  H    4.441425   5.750624   5.300717   4.381120   5.817794
    28  H    5.099500   6.455966   4.785908   5.567825   5.965060
    29  H    4.457463   5.285973   4.210030   5.151340   5.820693
                   11         12         13         14         15
    11  H    0.000000
    12  H    4.047012   0.000000
    13  H    3.784033   1.771105   0.000000
    14  H    4.164493   1.754676   1.773597   0.000000
    15  H    3.414173   2.596637   3.785640   2.998057   0.000000
    16  H    3.443350   3.219285   3.772788   2.549907   1.756769
    17  H    2.333554   3.789932   4.333738   3.758653   1.771409
    18  C    2.205390   3.694186   2.709058   3.972463   4.498721
    19  H    2.684470   3.791140   3.125706   4.510792   4.686192
    20  H    2.462271   4.763579   3.671506   4.868734   5.347772
    21  H    3.099215   3.494668   2.090410   3.596740   4.845431
    22  C    3.304584   5.319734   4.046225   4.443889   5.586476
    23  H    2.988088   5.784015   4.619084   5.163453   5.830535
    24  H    4.320468   6.209582   4.894391   5.124976   6.442894
    25  H    3.630797   4.978384   3.465971   4.199579   5.751072
    26  C    2.857500   5.274023   4.785583   4.364103   4.337664
    27  H    3.890709   6.241264   5.645084   5.151754   5.330367
    28  H    2.365167   5.603325   5.149734   4.993235   4.539638
    29  H    3.112976   4.979086   4.840263   4.076406   3.653752
                   16         17         18         19         20
    16  H    0.000000
    17  H    1.787564   0.000000
    18  C    4.605170   4.130930   0.000000
    19  H    5.169326   4.521108   1.098488   0.000000
    20  H    5.289912   4.676116   1.094203   1.758105   0.000000
    21  H    4.808577   4.725706   1.092892   1.765919   1.769442
    22  C    4.627900   4.663934   3.108578   4.195360   2.807395
    23  H    5.061537   4.701329   2.998185   3.987317   2.387562
    24  H    5.280101   5.478039   4.183675   5.267649   3.813197
    25  H    4.962731   5.118120   2.723671   3.781519   2.528745
    26  C    3.098478   2.971495   4.193582   5.110549   4.205114
    27  H    3.932782   3.972272   5.092380   6.063378   4.969300
    28  H    3.656099   2.953741   3.980253   4.794591   3.830216
    29  H    2.286227   2.351210   4.659223   5.476013   4.879405
                   21         22         23         24         25
    21  H    0.000000
    22  C    3.094341   0.000000
    23  H    3.299744   1.090451   0.000000
    24  H    4.068331   1.100485   1.777931   0.000000
    25  H    2.377705   1.089883   1.795279   1.763466   0.000000
    26  C    4.570052   2.568874   2.726611   2.956430   3.481774
    27  H    5.386269   2.859048   3.056852   2.827204   3.875671
    28  H    4.585481   2.793637   2.509574   3.323692   3.719796
    29  H    5.032281   3.493264   3.736478   3.910215   4.277604
                   26         27         28         29
    26  C    0.000000
    27  H    1.100107   0.000000
    28  H    1.090768   1.769942   0.000000
    29  H    1.088295   1.769029   1.797441   0.000000
 Framework group  C1[X(C8H16Cl3FeO)]
 Deg. of freedom    81
                         Standard orientation:                         
 ---------------------------------------------------------------------
 Center     Atomic      Atomic             Coordinates (Angstroms)
 Number     Number       Type             X           Y           Z
 ---------------------------------------------------------------------
      1          8           0        0.239621    0.319810   -0.841703
      2          6           0        1.036663    1.275900   -0.662096
      3          6           0        3.052333    0.104476    0.488923
      4          6           0        2.577740   -0.967969   -0.180400
      5          6           0        2.990971   -1.261765   -1.595523
      6         26           0       -1.464994   -0.144956    0.018467
      7         17           0       -2.080841   -1.992283   -0.952899
      8          6           0        1.655169   -1.989024    0.414456
      9         17           0       -2.660519    1.626550   -0.457973
     10         17           0       -1.115344   -0.339428    2.179044
     11          1           0        3.778278    0.732764   -0.027003
     12          1           0        2.182979   -2.948036    0.506886
     13          1           0        1.271433   -1.717959    1.397283
     14          1           0        0.803624   -2.173070   -0.251861
     15          1           0        3.455651   -2.254840   -1.647716
     16          1           0        2.114426   -1.297027   -2.255950
     17          1           0        3.708311   -0.534352   -1.985317
     18          6           0        2.902516    0.369432    1.964171
     19          1           0        3.714666   -0.122024    2.516945
     20          1           0        2.972212    1.437763    2.190205
     21          1           0        1.958839   -0.001298    2.372148
     22          6           0        0.867611    2.206507    0.498711
     23          1           0        1.754335    2.817784    0.669426
     24          1           0        0.032601    2.870695    0.229118
     25          1           0        0.579703    1.678268    1.407511
     26          6           0        1.825578    1.760154   -1.842695
     27          1           0        1.200218    2.527439   -2.322730
     28          1           0        2.765351    2.230971   -1.551263
     29          1           0        1.992735    0.964750   -2.566420
 ---------------------------------------------------------------------
 Rotational constants (GHZ):           0.5703088           0.3277810           0.3087634
   427 basis functions,  1056 primitive gaussians,   461 cartesian basis functions
    77 alpha electrons       72 beta electrons
       nuclear repulsion energy      1630.0216253091 Hartrees.
 NAtoms=   29 NActive=   29 NUniq=   29 SFac= 1.00D+00 NAtFMM=   60 NAOKFM=F Big=F
 Nuclear repulsion after empirical dispersion term =     1629.9212720639 Hartrees.
 Initial guess from the checkpoint file:  "checkpoint.chk"
 B after Tr=     0.000000    0.000000    0.000000
         Rot=    1.000000    0.000000    0.000000    0.000000 Ang=   0.00 deg.
 Initial guess <Sx>= 0.0000 <Sy>= 0.0000 <Sz>= 2.5000 <S**2>= 8.7617 S= 2.5019
 SCF Done:  E(UB97D3) =  -3034.63785420     A.U. after   16 cycles
            NFock= 16  Conv=0.89D-08     -V/T= 2.0019
 <Sx>= 0.0000 <Sy>= 0.0000 <Sz>= 2.5000 <S**2>= 8.7598 S= 2.5016
 <L.S>= 0.000000000000E+00
 Annihilation of the first spin contaminant:
 S**2 before annihilation     8.7598,   after     8.7500
 1\1\GINC-HOLY7C18409\SP\UB97D3\Jul-CC-pVDZ\C8H16Cl3Fe1O1(6)\EKWAN\12-F
 eb-2020\0\\#t pop=none jul-cc-pvdz guess=read ub97d3 empiricaldispersi
 on=gd3bj\\theory_abbreviation b97d3_d3bj\\0,6\O,0,0.239621,0.31981,-0.
 841703\C,0,1.036663,1.2759,-0.662096\C,0,3.052333,0.104476,0.488923\C,
 0,2.57774,-0.967969,-0.1804\C,0,2.990971,-1.261765,-1.595523\Fe,0,-1.4
 64994,-0.144956,0.018467\Cl,0,-2.080841,-1.992283,-0.952899\C,0,1.6551
 69,-1.989024,0.414456\Cl,0,-2.660519,1.62655,-0.457973\Cl,0,-1.115344,
 -0.339428,2.179044\H,0,3.778278,0.732764,-0.027003\H,0,2.182979,-2.948
 036,0.506886\H,0,1.271433,-1.717959,1.397283\H,0,0.803624,-2.17307,-0.
 251861\H,0,3.455651,-2.25484,-1.647716\H,0,2.114426,-1.297027,-2.25595
 \H,0,3.708311,-0.534352,-1.985317\C,0,2.902516,0.369432,1.964171\H,0,3
 .714666,-0.122024,2.516945\H,0,2.972212,1.437763,2.190205\H,0,1.958839
 ,-0.001298,2.372148\C,0,0.867611,2.206507,0.498711\H,0,1.754335,2.8177
 84,0.669426\H,0,0.032601,2.870695,0.229118\H,0,0.579703,1.678268,1.407
 511\C,0,1.825578,1.760154,-1.842695\H,0,1.200218,2.527439,-2.32273\H,0
 ,2.765351,2.230971,-1.551263\H,0,1.992735,0.96475,-2.56642\\Version=ES
 64L-G16RevA.03\HF=-3034.6378542\S2=8.759811\S2-1=0.\S2A=8.75003\RMSD=8
 .871e-09\PG=C01 [X(C8H16Cl3Fe1O1)]\\@


 I LOVE MANKIND - IT'S PEOPLE I CAN'T STAND.
     -- LINUS OF PEANUTS
 Job cpu time:       0 days  0 hours 50 minutes 10.8 seconds.
 Elapsed time:       0 days  0 hours 13 minutes 23.8 seconds.
 File lengths (MBytes):  RWF=    174 Int=      0 D2E=      0 Chk=     13 Scr=      1
 Normal termination of Gaussian 16 at Wed Feb 12 08:51:34 2020.
