 Entering Gaussian System, Link 0=g16
 Input=simple-grid-200-290-b3lyp_d3bj-631gd-gas-singlepoint-DFT-juldz2-gas.gjf
 Output=simple-grid-200-290-b3lyp_d3bj-631gd-gas-singlepoint-DFT-juldz2-gas.out
 Initial command:
 /n/sw/g16_nehalem/g16/l1.exe "/scratch/Gau-98683.inp" -scrdir="/scratch/"
 Entering Link 1 = /n/sw/g16_nehalem/g16/l1.exe PID=     98692.
  
 Copyright (c) 1988,1990,1992,1993,1995,1998,2003,2009,2016,
            Gaussian, Inc.  All Rights Reserved.
  
 This is part of the Gaussian(R) 16 program.  It is based on
 the Gaussian(R) 09 system (copyright 2009, Gaussian, Inc.),
 the Gaussian(R) 03 system (copyright 2003, Gaussian, Inc.),
 the Gaussian(R) 98 system (copyright 1998, Gaussian, Inc.),
 the Gaussian(R) 94 system (copyright 1995, Gaussian, Inc.),
 the Gaussian 92(TM) system (copyright 1992, Gaussian, Inc.),
 the Gaussian 90(TM) system (copyright 1990, Gaussian, Inc.),
 the Gaussian 88(TM) system (copyright 1988, Gaussian, Inc.),
 the Gaussian 86(TM) system (copyright 1986, Carnegie Mellon
 University), and the Gaussian 82(TM) system (copyright 1983,
 Carnegie Mellon University). Gaussian is a federally registered
 trademark of Gaussian, Inc.
  
 This software contains proprietary and confidential information,
 including trade secrets, belonging to Gaussian, Inc.
  
 This software is provided under written license and may be
 used, copied, transmitted, or stored only in accord with that
 written license.
  
 The following legend is applicable only to US Government
 contracts under FAR:
  
                    RESTRICTED RIGHTS LEGEND
  
 Use, reproduction and disclosure by the US Government is
 subject to restrictions as set forth in subparagraphs (a)
 and (c) of the Commercial Computer Software - Restricted
 Rights clause in FAR 52.227-19.
  
 Gaussian, Inc.
 340 Quinnipiac St., Bldg. 40, Wallingford CT 06492
  
  
 ---------------------------------------------------------------
 Warning -- This program may not be used in any manner that
 competes with the business of Gaussian, Inc. or will provide
 assistance to any competitor of Gaussian, Inc.  The licensee
 of this program is prohibited from giving any competitor of
 Gaussian, Inc. access to this program.  By using this program,
 the user acknowledges that Gaussian, Inc. is engaged in the
 business of creating and licensing software in the field of
 computational chemistry and represents and warrants to the
 licensee that it is not a competitor of Gaussian, Inc. and that
 it will not use this program in any manner prohibited above.
 ---------------------------------------------------------------
  

 Cite this work as:
 Gaussian 16, Revision A.03,
 M. J. Frisch, G. W. Trucks, H. B. Schlegel, G. E. Scuseria, 
 M. A. Robb, J. R. Cheeseman, G. Scalmani, V. Barone, 
 G. A. Petersson, H. Nakatsuji, X. Li, M. Caricato, A. V. Marenich, 
 J. Bloino, B. G. Janesko, R. Gomperts, B. Mennucci, H. P. Hratchian, 
 J. V. Ortiz, A. F. Izmaylov, J. L. Sonnenberg, D. Williams-Young, 
 F. Ding, F. Lipparini, F. Egidi, J. Goings, B. Peng, A. Petrone, 
 T. Henderson, D. Ranasinghe, V. G. Zakrzewski, J. Gao, N. Rega, 
 G. Zheng, W. Liang, M. Hada, M. Ehara, K. Toyota, R. Fukuda, 
 J. Hasegawa, M. Ishida, T. Nakajima, Y. Honda, O. Kitao, H. Nakai, 
 T. Vreven, K. Throssell, J. A. Montgomery, Jr., J. E. Peralta, 
 F. Ogliaro, M. J. Bearpark, J. J. Heyd, E. N. Brothers, K. N. Kudin, 
 V. N. Staroverov, T. A. Keith, R. Kobayashi, J. Normand, 
 K. Raghavachari, A. P. Rendell, J. C. Burant, S. S. Iyengar, 
 J. Tomasi, M. Cossi, J. M. Millam, M. Klene, C. Adamo, R. Cammi, 
 J. W. Ochterski, R. L. Martin, K. Morokuma, O. Farkas, 
 J. B. Foresman, and D. J. Fox, Gaussian, Inc., Wallingford CT, 2016.
 
 ******************************************
 Gaussian 16:  ES64L-G16RevA.03 25-Dec-2016
                11-Feb-2020 
 ******************************************
 %chk=checkpoint.chk
 %mem=3GB
 %nprocshared=4
 Will use up to    4 processors via shared memory.
 --------------------------------
 #t pop=none jul-cc-pvdz upbe1pbe
 --------------------------------
 ------------------------
 theory_abbreviation pbe0
 ------------------------
 Symbolic Z-matrix:
 Charge =  0 Multiplicity = 6
 O                    -0.3072   -0.15855  -0.45231 
 C                    -1.17022  -1.10446  -0.22192 
 C                    -2.62791  -0.26082   0.85668 
 C                    -3.05851   0.67567  -0.07227 
 C                    -4.16467   0.38819  -1.03133 
 Fe                    1.53261   0.17413  -0.09908 
 Cl                    1.86194   2.1305   -1.03098 
 C                    -2.34965   1.97006  -0.20955 
 Cl                    2.5373   -1.54054  -1.03785 
 Cl                    1.82922   0.21705   2.08595 
 H                    -3.26696  -1.13806   0.95615 
 H                    -2.82781   2.64526  -0.92201 
 H                    -2.21457   2.47613   0.75174 
 H                    -1.32934   1.73264  -0.56752 
 H                    -4.99572   1.073    -0.80849 
 H                    -3.86385   0.60377  -2.06417 
 H                    -4.53703  -0.6357   -0.96235 
 C                    -1.92937   0.19275   2.12763 
 H                    -2.53703   0.94738   2.6399 
 H                    -1.79229  -0.64118   2.81743 
 H                    -0.94739   0.62763   1.92915 
 C                    -0.7492   -2.17439   0.77785 
 H                    -1.57715  -2.82421   1.07058 
 H                     0.00372  -2.78147   0.25833 
 H                    -0.27033  -1.74668   1.65786 
 C                    -1.82599  -1.66441  -1.47232 
 H                    -1.08005  -2.31064  -1.95052 
 H                    -2.71002  -2.26787  -1.25074 
 H                    -2.07516  -0.87349  -2.18053 
 
                    Distance matrix (angstroms):
                    1          2          3          4          5
     1  O    0.000000
     2  C    1.301005   0.000000
     3  C    2.666385   2.000000   0.000000
     4  C    2.900006   2.599406   1.387572   0.000000
     5  C    3.938815   3.442374   2.519412   1.491995   0.000000
     6  Fe   1.902724   2.992514   4.290991   4.618509   5.777018
     7  Cl   3.206215   4.507054   5.425906   5.219818   6.273412
     8  C    2.959984   3.293007   2.488188   1.482151   2.543997
     9  Cl   3.216199   3.821200   5.648572   6.095653   6.973985
    10  Cl   3.338883   4.008648   4.648169   5.362658   6.758214
    11  H    3.421020   2.405272   1.089881   2.095403   2.661848
    12  H    3.799405   4.159109   3.413060   2.157448   2.625547
    13  H    3.468330   3.854777   2.769967   2.152411   3.367747
    14  H    2.152828   2.862505   2.772818   2.086264   3.172031
    15  H    4.860631   4.440705   3.187215   2.110134   1.099662
    16  H    3.978564   3.683426   3.287316   2.149753   1.097146
    17  H    4.287099   3.478995   2.663480   2.167473   1.091675
    18  C    3.067719   2.789164   1.519535   2.519463   3.874765
    19  H    3.969508   3.777335   2.155892   2.775180   4.054611
    20  H    3.623475   3.136752   2.165054   3.418730   4.636889
    21  H    2.588292   2.770718   2.182587   2.909433   4.378664
    22  C    2.402548   1.523657   2.682826   3.765426   4.637394
    23  H    3.322297   2.189445   2.778637   3.968581   4.629559
    24  H    2.735211   2.102648   3.692864   4.630159   5.393099
    25  H    2.641269   2.180778   2.899628   4.078602   5.191848
    26  C    2.369541   1.518905   2.835030   2.992527   3.142785
    27  H    2.733756   2.109755   3.805003   4.044769   4.200413
    28  H    3.295485   2.187001   2.911397   3.189776   3.036255
    29  H    2.573629   2.169897   3.147313   2.794932   2.697879
                    6          7          8          9         10
     6  Fe   0.000000
     7  Cl   2.191870   0.000000
     8  C    4.278962   4.293949   0.000000
     9  Cl   2.197901   3.732649   6.073931   0.000000
    10  Cl   2.205490   3.657547   5.079893   3.653580   0.000000
    11  H    5.086379   6.398270   3.443942   6.150407   5.392942
    12  H    5.079076   4.719181   1.091848   6.805791   6.052436
    13  H    4.479335   4.462678   1.094732   6.474294   4.820347
    14  H    3.292290   3.249211   1.107039   5.087813   4.394817
    15  H    6.627991   6.942281   2.857463   7.976811   7.462582
    16  H    5.759162   6.015235   2.756656   6.828331   7.055785
    17  H    6.183974   6.971610   3.484432   7.132359   7.109739
    18  C    4.116292   5.301483   2.966121   5.742443   3.758895
    19  H    4.966078   5.850312   3.033213   6.742732   4.461431
    20  H    4.497298   5.987143   4.036313   5.866629   3.793011
    21  H    3.235701   4.348946   2.888339   5.064294   2.811173
    22  C    3.389863   5.349951   4.551137   3.807832   3.752112
    23  H    4.475345   6.386941   5.021998   4.798123   4.677986
    24  H    3.346759   5.407657   5.322998   3.104674   3.957748
    25  H    3.166531   5.177736   4.650257   3.897711   2.906474
    26  C    4.067698   5.310078   3.883060   4.386613   5.437066
    27  H    4.053137   5.405978   4.792412   3.809367   5.580880
    28  H    5.028871   6.347972   4.378810   5.301759   6.157351
    29  H    4.294875   5.083912   3.470713   4.798487   5.885265
                   11         12         13         14         15
    11  H    0.000000
    12  H    4.246631   0.000000
    13  H    3.769838   1.790561   0.000000
    14  H    3.783769   1.789960   1.754091   0.000000
    15  H    3.315318   2.680426   3.483942   3.733029   0.000000
    16  H    3.537320   2.558437   3.762342   3.152470   1.754437
    17  H    2.355013   3.699691   4.244450   4.006767   1.775869
    18  C    2.220938   4.015257   2.681084   3.161505   4.335677
    19  H    2.777925   3.956585   2.450757   3.516064   4.237015
    20  H    2.426082   5.084917   3.763375   4.160194   5.132990
    21  H    3.073241   3.966855   2.531597   2.756862   4.907338
    22  C    2.728537   5.517172   4.875991   4.172707   5.576282
    23  H    2.389904   5.953960   5.348035   4.848676   5.514137
    24  H    3.726278   6.233798   5.727706   4.778737   6.402300
    25  H    3.137290   5.699607   4.736364   4.263738   6.030146
    26  C    2.872442   4.458675   4.716087   3.550395   4.240433
    27  H    3.821816   5.354761   5.612707   4.280537   5.299591
    28  H    2.541069   4.925528   5.173095   4.286862   4.072032
    29  H    3.365889   3.812081   4.453939   3.154360   3.768416
                   16         17         18         19         20
    16  H    0.000000
    17  H    1.789822   0.000000
    18  C    4.634905   4.127246   0.000000
    19  H    4.899678   4.413878   1.095969   0.000000
    20  H    5.447134   4.671220   1.090897   1.763429   0.000000
    21  H    4.944992   4.779358   1.092154   1.770419   1.764307
    22  C    5.049387   4.443368   2.969521   4.050807   2.756563
    23  H    5.177519   4.205146   3.216119   4.196306   2.804163
    24  H    5.640213   5.168446   4.009627   5.102122   3.788861
    25  H    5.682559   5.128786   2.595080   3.655167   2.209763
    26  C    3.106095   2.944158   4.052076   4.923146   4.410215
    27  H    4.031899   3.966433   4.860000   5.814592   5.101734
    28  H    3.199897   2.466808   4.251754   5.050232   4.476413
    29  H    2.322763   2.757047   4.440536   5.173537   5.011344
                   21         22         23         24         25
    21  H    0.000000
    22  C    3.035799   0.000000
    23  H    3.612326   1.092456   0.000000
    24  H    3.913849   1.097879   1.777848   0.000000
    25  H    2.483810   1.089345   1.792690   1.761987   0.000000
    26  C    4.194680   2.546132   2.805952   2.755140   3.496401
    27  H    4.868560   2.751734   3.104502   2.505053   3.740874
    28  H    4.647844   2.822889   2.642236   3.147292   3.831923
    29  H    4.518264   3.493215   3.824013   3.729642   4.330489
                   26         27         28         29
    26  C    0.000000
    27  H    1.096680   0.000000
    28  H    1.093055   1.774346   0.000000
    29  H    1.090516   1.763109   1.792171   0.000000
 Framework group  C1[X(C8H16Cl3FeO)]
 Deg. of freedom    81
                         Standard orientation:                         
 ---------------------------------------------------------------------
 Center     Atomic      Atomic             Coordinates (Angstroms)
 Number     Number       Type             X           Y           Z
 ---------------------------------------------------------------------
      1          8           0       -0.307203   -0.158554   -0.452308
      2          6           0       -1.170215   -1.104463   -0.221918
      3          6           0       -2.627913   -0.260816    0.856682
      4          6           0       -3.058508    0.675667   -0.072266
      5          6           0       -4.164671    0.388192   -1.031333
      6         26           0        1.532610    0.174126   -0.099079
      7         17           0        1.861942    2.130498   -1.030983
      8          6           0       -2.349650    1.970057   -0.209553
      9         17           0        2.537300   -1.540539   -1.037849
     10         17           0        1.829217    0.217050    2.085954
     11          1           0       -3.266963   -1.138062    0.956154
     12          1           0       -2.827814    2.645261   -0.922007
     13          1           0       -2.214568    2.476126    0.751741
     14          1           0       -1.329340    1.732644   -0.567517
     15          1           0       -4.995715    1.073000   -0.808487
     16          1           0       -3.863848    0.603770   -2.064174
     17          1           0       -4.537027   -0.635696   -0.962349
     18          6           0       -1.929368    0.192749    2.127627
     19          1           0       -2.537032    0.947378    2.639903
     20          1           0       -1.792291   -0.641184    2.817425
     21          1           0       -0.947387    0.627628    1.929149
     22          6           0       -0.749197   -2.174390    0.777848
     23          1           0       -1.577150   -2.824206    1.070582
     24          1           0        0.003724   -2.781472    0.258330
     25          1           0       -0.270334   -1.746675    1.657861
     26          6           0       -1.825986   -1.664412   -1.472315
     27          1           0       -1.080054   -2.310640   -1.950523
     28          1           0       -2.710015   -2.267873   -1.250737
     29          1           0       -2.075160   -0.873486   -2.180534
 ---------------------------------------------------------------------
 Rotational constants (GHZ):           0.6023189           0.3042613           0.2912940
   427 basis functions,  1056 primitive gaussians,   461 cartesian basis functions
    77 alpha electrons       72 beta electrons
       nuclear repulsion energy      1623.9711296514 Hartrees.
 NAtoms=   29 NActive=   29 NUniq=   29 SFac= 1.00D+00 NAtFMM=   60 NAOKFM=F Big=F
 ExpMin= 1.40D-02 ExpMax= 4.32D+06 ExpMxC= 4.91D+03 IAcc=3 IRadAn=         5 AccDes= 0.00D+00
 Harris functional with IExCor= 1009 and IRadAn=       5 diagonalized for initial guess.
 HarFok:  IExCor= 1009 AccDes= 0.00D+00 IRadAn=         5 IDoV= 1 UseB2=F ITyADJ=14
 ICtDFT=  3500011 ScaDFX=  1.000000  1.000000  1.000000  1.000000
 FoFCou: FMM=F IPFlag=           0 FMFlag=      100000 FMFlg1=           0
         NFxFlg=           0 DoJE=T BraDBF=F KetDBF=T FulRan=T
         wScrn=  0.000000 ICntrl=       500 IOpCl=  0 I1Cent=   200000004 NGrid=           0
         NMat0=    1 NMatS0=      1 NMatT0=    0 NMatD0=    1 NMtDS0=    0 NMtDT0=    0
 Petite list used in FoFCou.
 Initial guess <Sx>= 0.0000 <Sy>= 0.0000 <Sz>= 2.5000 <S**2>= 8.7500 S= 2.5000
 EnCoef did   100 forward-backward iterations
 Restarting incremental Fock formation.
 SCF Done:  E(UPBE1PBE) =  -3033.11636523     A.U. after   21 cycles
            NFock= 21  Conv=0.68D-08     -V/T= 2.0021
 <Sx>= 0.0000 <Sy>= 0.0000 <Sz>= 2.5000 <S**2>= 8.7629 S= 2.5021
 <L.S>= 0.000000000000E+00
 Annihilation of the first spin contaminant:
 S**2 before annihilation     8.7629,   after     8.7501
 1\1\GINC-HOLY7C08607\SP\UPBE1PBE\Jul-CC-pVDZ\C8H16Cl3Fe1O1(6)\EKWAN\11
 -Feb-2020\0\\#t pop=none jul-cc-pvdz upbe1pbe\\theory_abbreviation pbe
 0\\0,6\O,0,-0.307203,-0.158554,-0.452308\C,0,-1.170215,-1.104463,-0.22
 1918\C,0,-2.627913,-0.260816,0.856682\C,0,-3.058508,0.675667,-0.072266
 \C,0,-4.164671,0.388192,-1.031333\Fe,0,1.53261,0.174126,-0.099079\Cl,0
 ,1.861942,2.130498,-1.030983\C,0,-2.34965,1.970057,-0.209553\Cl,0,2.53
 73,-1.540539,-1.037849\Cl,0,1.829217,0.21705,2.085954\H,0,-3.266963,-1
 .138062,0.956154\H,0,-2.827814,2.645261,-0.922007\H,0,-2.214568,2.4761
 26,0.751741\H,0,-1.32934,1.732644,-0.567517\H,0,-4.995715,1.073,-0.808
 487\H,0,-3.863848,0.60377,-2.064174\H,0,-4.537027,-0.635696,-0.962349\
 C,0,-1.929368,0.192749,2.127627\H,0,-2.537032,0.947378,2.639903\H,0,-1
 .792291,-0.641184,2.817425\H,0,-0.947387,0.627628,1.929149\C,0,-0.7491
 97,-2.17439,0.777848\H,0,-1.57715,-2.824206,1.070582\H,0,0.003724,-2.7
 81472,0.25833\H,0,-0.270334,-1.746675,1.657861\C,0,-1.825986,-1.664412
 ,-1.472315\H,0,-1.080054,-2.31064,-1.950523\H,0,-2.710015,-2.267873,-1
 .250737\H,0,-2.07516,-0.873486,-2.180534\\Version=ES64L-G16RevA.03\HF=
 -3033.1163652\S2=8.762883\S2-1=0.\S2A=8.750051\RMSD=6.791e-09\PG=C01 [
 X(C8H16Cl3Fe1O1)]\\@


 Fatherhood is pretending the present you love most is soap-on-a-rope.
 -- Bill Cosby
 Job cpu time:       0 days  1 hours 30 minutes 28.0 seconds.
 Elapsed time:       0 days  0 hours 22 minutes 41.1 seconds.
 File lengths (MBytes):  RWF=    173 Int=      0 D2E=      0 Chk=     13 Scr=      1
 Normal termination of Gaussian 16 at Tue Feb 11 13:59:01 2020.
 Initial command:
 /n/sw/g16_nehalem/g16/l1.exe "/scratch/Gau-98683.inp" -scrdir="/scratch/"
 Entering Link 1 = /n/sw/g16_nehalem/g16/l1.exe PID=    100708.
  
 Copyright (c) 1988,1990,1992,1993,1995,1998,2003,2009,2016,
            Gaussian, Inc.  All Rights Reserved.
  
 This is part of the Gaussian(R) 16 program.  It is based on
 the Gaussian(R) 09 system (copyright 2009, Gaussian, Inc.),
 the Gaussian(R) 03 system (copyright 2003, Gaussian, Inc.),
 the Gaussian(R) 98 system (copyright 1998, Gaussian, Inc.),
 the Gaussian(R) 94 system (copyright 1995, Gaussian, Inc.),
 the Gaussian 92(TM) system (copyright 1992, Gaussian, Inc.),
 the Gaussian 90(TM) system (copyright 1990, Gaussian, Inc.),
 the Gaussian 88(TM) system (copyright 1988, Gaussian, Inc.),
 the Gaussian 86(TM) system (copyright 1986, Carnegie Mellon
 University), and the Gaussian 82(TM) system (copyright 1983,
 Carnegie Mellon University). Gaussian is a federally registered
 trademark of Gaussian, Inc.
  
 This software contains proprietary and confidential information,
 including trade secrets, belonging to Gaussian, Inc.
  
 This software is provided under written license and may be
 used, copied, transmitted, or stored only in accord with that
 written license.
  
 The following legend is applicable only to US Government
 contracts under FAR:
  
                    RESTRICTED RIGHTS LEGEND
  
 Use, reproduction and disclosure by the US Government is
 subject to restrictions as set forth in subparagraphs (a)
 and (c) of the Commercial Computer Software - Restricted
 Rights clause in FAR 52.227-19.
  
 Gaussian, Inc.
 340 Quinnipiac St., Bldg. 40, Wallingford CT 06492
  
  
 ---------------------------------------------------------------
 Warning -- This program may not be used in any manner that
 competes with the business of Gaussian, Inc. or will provide
 assistance to any competitor of Gaussian, Inc.  The licensee
 of this program is prohibited from giving any competitor of
 Gaussian, Inc. access to this program.  By using this program,
 the user acknowledges that Gaussian, Inc. is engaged in the
 business of creating and licensing software in the field of
 computational chemistry and represents and warrants to the
 licensee that it is not a competitor of Gaussian, Inc. and that
 it will not use this program in any manner prohibited above.
 ---------------------------------------------------------------
  

 Cite this work as:
 Gaussian 16, Revision A.03,
 M. J. Frisch, G. W. Trucks, H. B. Schlegel, G. E. Scuseria, 
 M. A. Robb, J. R. Cheeseman, G. Scalmani, V. Barone, 
 G. A. Petersson, H. Nakatsuji, X. Li, M. Caricato, A. V. Marenich, 
 J. Bloino, B. G. Janesko, R. Gomperts, B. Mennucci, H. P. Hratchian, 
 J. V. Ortiz, A. F. Izmaylov, J. L. Sonnenberg, D. Williams-Young, 
 F. Ding, F. Lipparini, F. Egidi, J. Goings, B. Peng, A. Petrone, 
 T. Henderson, D. Ranasinghe, V. G. Zakrzewski, J. Gao, N. Rega, 
 G. Zheng, W. Liang, M. Hada, M. Ehara, K. Toyota, R. Fukuda, 
 J. Hasegawa, M. Ishida, T. Nakajima, Y. Honda, O. Kitao, H. Nakai, 
 T. Vreven, K. Throssell, J. A. Montgomery, Jr., J. E. Peralta, 
 F. Ogliaro, M. J. Bearpark, J. J. Heyd, E. N. Brothers, K. N. Kudin, 
 V. N. Staroverov, T. A. Keith, R. Kobayashi, J. Normand, 
 K. Raghavachari, A. P. Rendell, J. C. Burant, S. S. Iyengar, 
 J. Tomasi, M. Cossi, J. M. Millam, M. Klene, C. Adamo, R. Cammi, 
 J. W. Ochterski, R. L. Martin, K. Morokuma, O. Farkas, 
 J. B. Foresman, and D. J. Fox, Gaussian, Inc., Wallingford CT, 2016.
 
 ******************************************
 Gaussian 16:  ES64L-G16RevA.03 25-Dec-2016
                11-Feb-2020 
 ******************************************
 %chk=checkpoint.chk
 %mem=3GB
 %nprocshared=4
 Will use up to    4 processors via shared memory.
 ---------------------------------------------------------------------
 #t pop=none jul-cc-pvdz guess=read upbe1pbe empiricaldispersion=gd3bj
 ---------------------------------------------------------------------
 -----------------------------
 theory_abbreviation pbe0_d3bj
 -----------------------------
 Symbolic Z-matrix:
 Charge =  0 Multiplicity = 6
 O                    -0.3072   -0.15855  -0.45231 
 C                    -1.17022  -1.10446  -0.22192 
 C                    -2.62791  -0.26082   0.85668 
 C                    -3.05851   0.67567  -0.07227 
 C                    -4.16467   0.38819  -1.03133 
 Fe                    1.53261   0.17413  -0.09908 
 Cl                    1.86194   2.1305   -1.03098 
 C                    -2.34965   1.97006  -0.20955 
 Cl                    2.5373   -1.54054  -1.03785 
 Cl                    1.82922   0.21705   2.08595 
 H                    -3.26696  -1.13806   0.95615 
 H                    -2.82781   2.64526  -0.92201 
 H                    -2.21457   2.47613   0.75174 
 H                    -1.32934   1.73264  -0.56752 
 H                    -4.99572   1.073    -0.80849 
 H                    -3.86385   0.60377  -2.06417 
 H                    -4.53703  -0.6357   -0.96235 
 C                    -1.92937   0.19275   2.12763 
 H                    -2.53703   0.94738   2.6399 
 H                    -1.79229  -0.64118   2.81743 
 H                    -0.94739   0.62763   1.92915 
 C                    -0.7492   -2.17439   0.77785 
 H                    -1.57715  -2.82421   1.07058 
 H                     0.00372  -2.78147   0.25833 
 H                    -0.27033  -1.74668   1.65786 
 C                    -1.82599  -1.66441  -1.47232 
 H                    -1.08005  -2.31064  -1.95052 
 H                    -2.71002  -2.26787  -1.25074 
 H                    -2.07516  -0.87349  -2.18053 
 
                    Distance matrix (angstroms):
                    1          2          3          4          5
     1  O    0.000000
     2  C    1.301005   0.000000
     3  C    2.666385   2.000000   0.000000
     4  C    2.900006   2.599406   1.387572   0.000000
     5  C    3.938815   3.442374   2.519412   1.491995   0.000000
     6  Fe   1.902724   2.992514   4.290991   4.618509   5.777018
     7  Cl   3.206215   4.507054   5.425906   5.219818   6.273412
     8  C    2.959984   3.293007   2.488188   1.482151   2.543997
     9  Cl   3.216199   3.821200   5.648572   6.095653   6.973985
    10  Cl   3.338883   4.008648   4.648169   5.362658   6.758214
    11  H    3.421020   2.405272   1.089881   2.095403   2.661848
    12  H    3.799405   4.159109   3.413060   2.157448   2.625547
    13  H    3.468330   3.854777   2.769967   2.152411   3.367747
    14  H    2.152828   2.862505   2.772818   2.086264   3.172031
    15  H    4.860631   4.440705   3.187215   2.110134   1.099662
    16  H    3.978564   3.683426   3.287316   2.149753   1.097146
    17  H    4.287099   3.478995   2.663480   2.167473   1.091675
    18  C    3.067719   2.789164   1.519535   2.519463   3.874765
    19  H    3.969508   3.777335   2.155892   2.775180   4.054611
    20  H    3.623475   3.136752   2.165054   3.418730   4.636889
    21  H    2.588292   2.770718   2.182587   2.909433   4.378664
    22  C    2.402548   1.523657   2.682826   3.765426   4.637394
    23  H    3.322297   2.189445   2.778637   3.968581   4.629559
    24  H    2.735211   2.102648   3.692864   4.630159   5.393099
    25  H    2.641269   2.180778   2.899628   4.078602   5.191848
    26  C    2.369541   1.518905   2.835030   2.992527   3.142785
    27  H    2.733756   2.109755   3.805003   4.044769   4.200413
    28  H    3.295485   2.187001   2.911397   3.189776   3.036255
    29  H    2.573629   2.169897   3.147313   2.794932   2.697879
                    6          7          8          9         10
     6  Fe   0.000000
     7  Cl   2.191870   0.000000
     8  C    4.278962   4.293949   0.000000
     9  Cl   2.197901   3.732649   6.073931   0.000000
    10  Cl   2.205490   3.657547   5.079893   3.653580   0.000000
    11  H    5.086379   6.398270   3.443942   6.150407   5.392942
    12  H    5.079076   4.719181   1.091848   6.805791   6.052436
    13  H    4.479335   4.462678   1.094732   6.474294   4.820347
    14  H    3.292290   3.249211   1.107039   5.087813   4.394817
    15  H    6.627991   6.942281   2.857463   7.976811   7.462582
    16  H    5.759162   6.015235   2.756656   6.828331   7.055785
    17  H    6.183974   6.971610   3.484432   7.132359   7.109739
    18  C    4.116292   5.301483   2.966121   5.742443   3.758895
    19  H    4.966078   5.850312   3.033213   6.742732   4.461431
    20  H    4.497298   5.987143   4.036313   5.866629   3.793011
    21  H    3.235701   4.348946   2.888339   5.064294   2.811173
    22  C    3.389863   5.349951   4.551137   3.807832   3.752112
    23  H    4.475345   6.386941   5.021998   4.798123   4.677986
    24  H    3.346759   5.407657   5.322998   3.104674   3.957748
    25  H    3.166531   5.177736   4.650257   3.897711   2.906474
    26  C    4.067698   5.310078   3.883060   4.386613   5.437066
    27  H    4.053137   5.405978   4.792412   3.809367   5.580880
    28  H    5.028871   6.347972   4.378810   5.301759   6.157351
    29  H    4.294875   5.083912   3.470713   4.798487   5.885265
                   11         12         13         14         15
    11  H    0.000000
    12  H    4.246631   0.000000
    13  H    3.769838   1.790561   0.000000
    14  H    3.783769   1.789960   1.754091   0.000000
    15  H    3.315318   2.680426   3.483942   3.733029   0.000000
    16  H    3.537320   2.558437   3.762342   3.152470   1.754437
    17  H    2.355013   3.699691   4.244450   4.006767   1.775869
    18  C    2.220938   4.015257   2.681084   3.161505   4.335677
    19  H    2.777925   3.956585   2.450757   3.516064   4.237015
    20  H    2.426082   5.084917   3.763375   4.160194   5.132990
    21  H    3.073241   3.966855   2.531597   2.756862   4.907338
    22  C    2.728537   5.517172   4.875991   4.172707   5.576282
    23  H    2.389904   5.953960   5.348035   4.848676   5.514137
    24  H    3.726278   6.233798   5.727706   4.778737   6.402300
    25  H    3.137290   5.699607   4.736364   4.263738   6.030146
    26  C    2.872442   4.458675   4.716087   3.550395   4.240433
    27  H    3.821816   5.354761   5.612707   4.280537   5.299591
    28  H    2.541069   4.925528   5.173095   4.286862   4.072032
    29  H    3.365889   3.812081   4.453939   3.154360   3.768416
                   16         17         18         19         20
    16  H    0.000000
    17  H    1.789822   0.000000
    18  C    4.634905   4.127246   0.000000
    19  H    4.899678   4.413878   1.095969   0.000000
    20  H    5.447134   4.671220   1.090897   1.763429   0.000000
    21  H    4.944992   4.779358   1.092154   1.770419   1.764307
    22  C    5.049387   4.443368   2.969521   4.050807   2.756563
    23  H    5.177519   4.205146   3.216119   4.196306   2.804163
    24  H    5.640213   5.168446   4.009627   5.102122   3.788861
    25  H    5.682559   5.128786   2.595080   3.655167   2.209763
    26  C    3.106095   2.944158   4.052076   4.923146   4.410215
    27  H    4.031899   3.966433   4.860000   5.814592   5.101734
    28  H    3.199897   2.466808   4.251754   5.050232   4.476413
    29  H    2.322763   2.757047   4.440536   5.173537   5.011344
                   21         22         23         24         25
    21  H    0.000000
    22  C    3.035799   0.000000
    23  H    3.612326   1.092456   0.000000
    24  H    3.913849   1.097879   1.777848   0.000000
    25  H    2.483810   1.089345   1.792690   1.761987   0.000000
    26  C    4.194680   2.546132   2.805952   2.755140   3.496401
    27  H    4.868560   2.751734   3.104502   2.505053   3.740874
    28  H    4.647844   2.822889   2.642236   3.147292   3.831923
    29  H    4.518264   3.493215   3.824013   3.729642   4.330489
                   26         27         28         29
    26  C    0.000000
    27  H    1.096680   0.000000
    28  H    1.093055   1.774346   0.000000
    29  H    1.090516   1.763109   1.792171   0.000000
 Framework group  C1[X(C8H16Cl3FeO)]
 Deg. of freedom    81
                         Standard orientation:                         
 ---------------------------------------------------------------------
 Center     Atomic      Atomic             Coordinates (Angstroms)
 Number     Number       Type             X           Y           Z
 ---------------------------------------------------------------------
      1          8           0       -0.307203   -0.158554   -0.452308
      2          6           0       -1.170215   -1.104463   -0.221918
      3          6           0       -2.627913   -0.260816    0.856682
      4          6           0       -3.058508    0.675667   -0.072266
      5          6           0       -4.164671    0.388192   -1.031333
      6         26           0        1.532610    0.174126   -0.099079
      7         17           0        1.861942    2.130498   -1.030983
      8          6           0       -2.349650    1.970057   -0.209553
      9         17           0        2.537300   -1.540539   -1.037849
     10         17           0        1.829217    0.217050    2.085954
     11          1           0       -3.266963   -1.138062    0.956154
     12          1           0       -2.827814    2.645261   -0.922007
     13          1           0       -2.214568    2.476126    0.751741
     14          1           0       -1.329340    1.732644   -0.567517
     15          1           0       -4.995715    1.073000   -0.808487
     16          1           0       -3.863848    0.603770   -2.064174
     17          1           0       -4.537027   -0.635696   -0.962349
     18          6           0       -1.929368    0.192749    2.127627
     19          1           0       -2.537032    0.947378    2.639903
     20          1           0       -1.792291   -0.641184    2.817425
     21          1           0       -0.947387    0.627628    1.929149
     22          6           0       -0.749197   -2.174390    0.777848
     23          1           0       -1.577150   -2.824206    1.070582
     24          1           0        0.003724   -2.781472    0.258330
     25          1           0       -0.270334   -1.746675    1.657861
     26          6           0       -1.825986   -1.664412   -1.472315
     27          1           0       -1.080054   -2.310640   -1.950523
     28          1           0       -2.710015   -2.267873   -1.250737
     29          1           0       -2.075160   -0.873486   -2.180534
 ---------------------------------------------------------------------
 Rotational constants (GHZ):           0.6023189           0.3042613           0.2912940
   427 basis functions,  1056 primitive gaussians,   461 cartesian basis functions
    77 alpha electrons       72 beta electrons
       nuclear repulsion energy      1623.9711296514 Hartrees.
 NAtoms=   29 NActive=   29 NUniq=   29 SFac= 1.00D+00 NAtFMM=   60 NAOKFM=F Big=F
 Nuclear repulsion after empirical dispersion term =     1623.9351741775 Hartrees.
 Initial guess from the checkpoint file:  "checkpoint.chk"
 B after Tr=     0.000000    0.000000    0.000000
         Rot=    1.000000    0.000000    0.000000    0.000000 Ang=   0.00 deg.
 Initial guess <Sx>= 0.0000 <Sy>= 0.0000 <Sz>= 2.5000 <S**2>= 8.7629 S= 2.5021
 SCF Done:  E(UPBE1PBE) =  -3033.15232070     A.U. after    1 cycles
            NFock=  1  Conv=0.31D-08     -V/T= 2.0021
 <Sx>= 0.0000 <Sy>= 0.0000 <Sz>= 2.5000 <S**2>= 8.7629 S= 2.5021
 <L.S>= 0.000000000000E+00
 Annihilation of the first spin contaminant:
 S**2 before annihilation     8.7629,   after     8.7501
 1\1\GINC-HOLY7C08607\SP\UPBE1PBE\Jul-CC-pVDZ\C8H16Cl3Fe1O1(6)\EKWAN\11
 -Feb-2020\0\\#t pop=none jul-cc-pvdz guess=read upbe1pbe empiricaldisp
 ersion=gd3bj\\theory_abbreviation pbe0_d3bj\\0,6\O,0,-0.307203,-0.1585
 54,-0.452308\C,0,-1.170215,-1.104463,-0.221918\C,0,-2.627913,-0.260816
 ,0.856682\C,0,-3.058508,0.675667,-0.072266\C,0,-4.164671,0.388192,-1.0
 31333\Fe,0,1.53261,0.174126,-0.099079\Cl,0,1.861942,2.130498,-1.030983
 \C,0,-2.34965,1.970057,-0.209553\Cl,0,2.5373,-1.540539,-1.037849\Cl,0,
 1.829217,0.21705,2.085954\H,0,-3.266963,-1.138062,0.956154\H,0,-2.8278
 14,2.645261,-0.922007\H,0,-2.214568,2.476126,0.751741\H,0,-1.32934,1.7
 32644,-0.567517\H,0,-4.995715,1.073,-0.808487\H,0,-3.863848,0.60377,-2
 .064174\H,0,-4.537027,-0.635696,-0.962349\C,0,-1.929368,0.192749,2.127
 627\H,0,-2.537032,0.947378,2.639903\H,0,-1.792291,-0.641184,2.817425\H
 ,0,-0.947387,0.627628,1.929149\C,0,-0.749197,-2.17439,0.777848\H,0,-1.
 57715,-2.824206,1.070582\H,0,0.003724,-2.781472,0.25833\H,0,-0.270334,
 -1.746675,1.657861\C,0,-1.825986,-1.664412,-1.472315\H,0,-1.080054,-2.
 31064,-1.950523\H,0,-2.710015,-2.267873,-1.250737\H,0,-2.07516,-0.8734
 86,-2.180534\\Version=ES64L-G16RevA.03\HF=-3033.1523207\S2=8.762883\S2
 -1=0.\S2A=8.750051\RMSD=3.126e-09\PG=C01 [X(C8H16Cl3Fe1O1)]\\@


 Everything starts as somebody's daydream.
                           -- Larry Niven
 Job cpu time:       0 days  0 hours  4 minutes 37.4 seconds.
 Elapsed time:       0 days  0 hours  1 minutes 10.0 seconds.
 File lengths (MBytes):  RWF=    170 Int=      0 D2E=      0 Chk=     13 Scr=      1
 Normal termination of Gaussian 16 at Tue Feb 11 14:00:11 2020.
 Initial command:
 /n/sw/g16_nehalem/g16/l1.exe "/scratch/Gau-98683.inp" -scrdir="/scratch/"
 Entering Link 1 = /n/sw/g16_nehalem/g16/l1.exe PID=    101473.
  
 Copyright (c) 1988,1990,1992,1993,1995,1998,2003,2009,2016,
            Gaussian, Inc.  All Rights Reserved.
  
 This is part of the Gaussian(R) 16 program.  It is based on
 the Gaussian(R) 09 system (copyright 2009, Gaussian, Inc.),
 the Gaussian(R) 03 system (copyright 2003, Gaussian, Inc.),
 the Gaussian(R) 98 system (copyright 1998, Gaussian, Inc.),
 the Gaussian(R) 94 system (copyright 1995, Gaussian, Inc.),
 the Gaussian 92(TM) system (copyright 1992, Gaussian, Inc.),
 the Gaussian 90(TM) system (copyright 1990, Gaussian, Inc.),
 the Gaussian 88(TM) system (copyright 1988, Gaussian, Inc.),
 the Gaussian 86(TM) system (copyright 1986, Carnegie Mellon
 University), and the Gaussian 82(TM) system (copyright 1983,
 Carnegie Mellon University). Gaussian is a federally registered
 trademark of Gaussian, Inc.
  
 This software contains proprietary and confidential information,
 including trade secrets, belonging to Gaussian, Inc.
  
 This software is provided under written license and may be
 used, copied, transmitted, or stored only in accord with that
 written license.
  
 The following legend is applicable only to US Government
 contracts under FAR:
  
                    RESTRICTED RIGHTS LEGEND
  
 Use, reproduction and disclosure by the US Government is
 subject to restrictions as set forth in subparagraphs (a)
 and (c) of the Commercial Computer Software - Restricted
 Rights clause in FAR 52.227-19.
  
 Gaussian, Inc.
 340 Quinnipiac St., Bldg. 40, Wallingford CT 06492
  
  
 ---------------------------------------------------------------
 Warning -- This program may not be used in any manner that
 competes with the business of Gaussian, Inc. or will provide
 assistance to any competitor of Gaussian, Inc.  The licensee
 of this program is prohibited from giving any competitor of
 Gaussian, Inc. access to this program.  By using this program,
 the user acknowledges that Gaussian, Inc. is engaged in the
 business of creating and licensing software in the field of
 computational chemistry and represents and warrants to the
 licensee that it is not a competitor of Gaussian, Inc. and that
 it will not use this program in any manner prohibited above.
 ---------------------------------------------------------------
  

 Cite this work as:
 Gaussian 16, Revision A.03,
 M. J. Frisch, G. W. Trucks, H. B. Schlegel, G. E. Scuseria, 
 M. A. Robb, J. R. Cheeseman, G. Scalmani, V. Barone, 
 G. A. Petersson, H. Nakatsuji, X. Li, M. Caricato, A. V. Marenich, 
 J. Bloino, B. G. Janesko, R. Gomperts, B. Mennucci, H. P. Hratchian, 
 J. V. Ortiz, A. F. Izmaylov, J. L. Sonnenberg, D. Williams-Young, 
 F. Ding, F. Lipparini, F. Egidi, J. Goings, B. Peng, A. Petrone, 
 T. Henderson, D. Ranasinghe, V. G. Zakrzewski, J. Gao, N. Rega, 
 G. Zheng, W. Liang, M. Hada, M. Ehara, K. Toyota, R. Fukuda, 
 J. Hasegawa, M. Ishida, T. Nakajima, Y. Honda, O. Kitao, H. Nakai, 
 T. Vreven, K. Throssell, J. A. Montgomery, Jr., J. E. Peralta, 
 F. Ogliaro, M. J. Bearpark, J. J. Heyd, E. N. Brothers, K. N. Kudin, 
 V. N. Staroverov, T. A. Keith, R. Kobayashi, J. Normand, 
 K. Raghavachari, A. P. Rendell, J. C. Burant, S. S. Iyengar, 
 J. Tomasi, M. Cossi, J. M. Millam, M. Klene, C. Adamo, R. Cammi, 
 J. W. Ochterski, R. L. Martin, K. Morokuma, O. Farkas, 
 J. B. Foresman, and D. J. Fox, Gaussian, Inc., Wallingford CT, 2016.
 
 ******************************************
 Gaussian 16:  ES64L-G16RevA.03 25-Dec-2016
                11-Feb-2020 
 ******************************************
 %chk=checkpoint.chk
 %mem=3GB
 %nprocshared=4
 Will use up to    4 processors via shared memory.
 -----------------------------------------
 #t pop=none jul-cc-pvdz guess=read ub3lyp
 -----------------------------------------
 -------------------------
 theory_abbreviation b3lyp
 -------------------------
 Symbolic Z-matrix:
 Charge =  0 Multiplicity = 6
 O                    -0.3072   -0.15855  -0.45231 
 C                    -1.17022  -1.10446  -0.22192 
 C                    -2.62791  -0.26082   0.85668 
 C                    -3.05851   0.67567  -0.07227 
 C                    -4.16467   0.38819  -1.03133 
 Fe                    1.53261   0.17413  -0.09908 
 Cl                    1.86194   2.1305   -1.03098 
 C                    -2.34965   1.97006  -0.20955 
 Cl                    2.5373   -1.54054  -1.03785 
 Cl                    1.82922   0.21705   2.08595 
 H                    -3.26696  -1.13806   0.95615 
 H                    -2.82781   2.64526  -0.92201 
 H                    -2.21457   2.47613   0.75174 
 H                    -1.32934   1.73264  -0.56752 
 H                    -4.99572   1.073    -0.80849 
 H                    -3.86385   0.60377  -2.06417 
 H                    -4.53703  -0.6357   -0.96235 
 C                    -1.92937   0.19275   2.12763 
 H                    -2.53703   0.94738   2.6399 
 H                    -1.79229  -0.64118   2.81743 
 H                    -0.94739   0.62763   1.92915 
 C                    -0.7492   -2.17439   0.77785 
 H                    -1.57715  -2.82421   1.07058 
 H                     0.00372  -2.78147   0.25833 
 H                    -0.27033  -1.74668   1.65786 
 C                    -1.82599  -1.66441  -1.47232 
 H                    -1.08005  -2.31064  -1.95052 
 H                    -2.71002  -2.26787  -1.25074 
 H                    -2.07516  -0.87349  -2.18053 
 
                    Distance matrix (angstroms):
                    1          2          3          4          5
     1  O    0.000000
     2  C    1.301005   0.000000
     3  C    2.666385   2.000000   0.000000
     4  C    2.900006   2.599406   1.387572   0.000000
     5  C    3.938815   3.442374   2.519412   1.491995   0.000000
     6  Fe   1.902724   2.992514   4.290991   4.618509   5.777018
     7  Cl   3.206215   4.507054   5.425906   5.219818   6.273412
     8  C    2.959984   3.293007   2.488188   1.482151   2.543997
     9  Cl   3.216199   3.821200   5.648572   6.095653   6.973985
    10  Cl   3.338883   4.008648   4.648169   5.362658   6.758214
    11  H    3.421020   2.405272   1.089881   2.095403   2.661848
    12  H    3.799405   4.159109   3.413060   2.157448   2.625547
    13  H    3.468330   3.854777   2.769967   2.152411   3.367747
    14  H    2.152828   2.862505   2.772818   2.086264   3.172031
    15  H    4.860631   4.440705   3.187215   2.110134   1.099662
    16  H    3.978564   3.683426   3.287316   2.149753   1.097146
    17  H    4.287099   3.478995   2.663480   2.167473   1.091675
    18  C    3.067719   2.789164   1.519535   2.519463   3.874765
    19  H    3.969508   3.777335   2.155892   2.775180   4.054611
    20  H    3.623475   3.136752   2.165054   3.418730   4.636889
    21  H    2.588292   2.770718   2.182587   2.909433   4.378664
    22  C    2.402548   1.523657   2.682826   3.765426   4.637394
    23  H    3.322297   2.189445   2.778637   3.968581   4.629559
    24  H    2.735211   2.102648   3.692864   4.630159   5.393099
    25  H    2.641269   2.180778   2.899628   4.078602   5.191848
    26  C    2.369541   1.518905   2.835030   2.992527   3.142785
    27  H    2.733756   2.109755   3.805003   4.044769   4.200413
    28  H    3.295485   2.187001   2.911397   3.189776   3.036255
    29  H    2.573629   2.169897   3.147313   2.794932   2.697879
                    6          7          8          9         10
     6  Fe   0.000000
     7  Cl   2.191870   0.000000
     8  C    4.278962   4.293949   0.000000
     9  Cl   2.197901   3.732649   6.073931   0.000000
    10  Cl   2.205490   3.657547   5.079893   3.653580   0.000000
    11  H    5.086379   6.398270   3.443942   6.150407   5.392942
    12  H    5.079076   4.719181   1.091848   6.805791   6.052436
    13  H    4.479335   4.462678   1.094732   6.474294   4.820347
    14  H    3.292290   3.249211   1.107039   5.087813   4.394817
    15  H    6.627991   6.942281   2.857463   7.976811   7.462582
    16  H    5.759162   6.015235   2.756656   6.828331   7.055785
    17  H    6.183974   6.971610   3.484432   7.132359   7.109739
    18  C    4.116292   5.301483   2.966121   5.742443   3.758895
    19  H    4.966078   5.850312   3.033213   6.742732   4.461431
    20  H    4.497298   5.987143   4.036313   5.866629   3.793011
    21  H    3.235701   4.348946   2.888339   5.064294   2.811173
    22  C    3.389863   5.349951   4.551137   3.807832   3.752112
    23  H    4.475345   6.386941   5.021998   4.798123   4.677986
    24  H    3.346759   5.407657   5.322998   3.104674   3.957748
    25  H    3.166531   5.177736   4.650257   3.897711   2.906474
    26  C    4.067698   5.310078   3.883060   4.386613   5.437066
    27  H    4.053137   5.405978   4.792412   3.809367   5.580880
    28  H    5.028871   6.347972   4.378810   5.301759   6.157351
    29  H    4.294875   5.083912   3.470713   4.798487   5.885265
                   11         12         13         14         15
    11  H    0.000000
    12  H    4.246631   0.000000
    13  H    3.769838   1.790561   0.000000
    14  H    3.783769   1.789960   1.754091   0.000000
    15  H    3.315318   2.680426   3.483942   3.733029   0.000000
    16  H    3.537320   2.558437   3.762342   3.152470   1.754437
    17  H    2.355013   3.699691   4.244450   4.006767   1.775869
    18  C    2.220938   4.015257   2.681084   3.161505   4.335677
    19  H    2.777925   3.956585   2.450757   3.516064   4.237015
    20  H    2.426082   5.084917   3.763375   4.160194   5.132990
    21  H    3.073241   3.966855   2.531597   2.756862   4.907338
    22  C    2.728537   5.517172   4.875991   4.172707   5.576282
    23  H    2.389904   5.953960   5.348035   4.848676   5.514137
    24  H    3.726278   6.233798   5.727706   4.778737   6.402300
    25  H    3.137290   5.699607   4.736364   4.263738   6.030146
    26  C    2.872442   4.458675   4.716087   3.550395   4.240433
    27  H    3.821816   5.354761   5.612707   4.280537   5.299591
    28  H    2.541069   4.925528   5.173095   4.286862   4.072032
    29  H    3.365889   3.812081   4.453939   3.154360   3.768416
                   16         17         18         19         20
    16  H    0.000000
    17  H    1.789822   0.000000
    18  C    4.634905   4.127246   0.000000
    19  H    4.899678   4.413878   1.095969   0.000000
    20  H    5.447134   4.671220   1.090897   1.763429   0.000000
    21  H    4.944992   4.779358   1.092154   1.770419   1.764307
    22  C    5.049387   4.443368   2.969521   4.050807   2.756563
    23  H    5.177519   4.205146   3.216119   4.196306   2.804163
    24  H    5.640213   5.168446   4.009627   5.102122   3.788861
    25  H    5.682559   5.128786   2.595080   3.655167   2.209763
    26  C    3.106095   2.944158   4.052076   4.923146   4.410215
    27  H    4.031899   3.966433   4.860000   5.814592   5.101734
    28  H    3.199897   2.466808   4.251754   5.050232   4.476413
    29  H    2.322763   2.757047   4.440536   5.173537   5.011344
                   21         22         23         24         25
    21  H    0.000000
    22  C    3.035799   0.000000
    23  H    3.612326   1.092456   0.000000
    24  H    3.913849   1.097879   1.777848   0.000000
    25  H    2.483810   1.089345   1.792690   1.761987   0.000000
    26  C    4.194680   2.546132   2.805952   2.755140   3.496401
    27  H    4.868560   2.751734   3.104502   2.505053   3.740874
    28  H    4.647844   2.822889   2.642236   3.147292   3.831923
    29  H    4.518264   3.493215   3.824013   3.729642   4.330489
                   26         27         28         29
    26  C    0.000000
    27  H    1.096680   0.000000
    28  H    1.093055   1.774346   0.000000
    29  H    1.090516   1.763109   1.792171   0.000000
 Framework group  C1[X(C8H16Cl3FeO)]
 Deg. of freedom    81
                         Standard orientation:                         
 ---------------------------------------------------------------------
 Center     Atomic      Atomic             Coordinates (Angstroms)
 Number     Number       Type             X           Y           Z
 ---------------------------------------------------------------------
      1          8           0       -0.307203   -0.158554   -0.452308
      2          6           0       -1.170215   -1.104463   -0.221918
      3          6           0       -2.627913   -0.260816    0.856682
      4          6           0       -3.058508    0.675667   -0.072266
      5          6           0       -4.164671    0.388192   -1.031333
      6         26           0        1.532610    0.174126   -0.099079
      7         17           0        1.861942    2.130498   -1.030983
      8          6           0       -2.349650    1.970057   -0.209553
      9         17           0        2.537300   -1.540539   -1.037849
     10         17           0        1.829217    0.217050    2.085954
     11          1           0       -3.266963   -1.138062    0.956154
     12          1           0       -2.827814    2.645261   -0.922007
     13          1           0       -2.214568    2.476126    0.751741
     14          1           0       -1.329340    1.732644   -0.567517
     15          1           0       -4.995715    1.073000   -0.808487
     16          1           0       -3.863848    0.603770   -2.064174
     17          1           0       -4.537027   -0.635696   -0.962349
     18          6           0       -1.929368    0.192749    2.127627
     19          1           0       -2.537032    0.947378    2.639903
     20          1           0       -1.792291   -0.641184    2.817425
     21          1           0       -0.947387    0.627628    1.929149
     22          6           0       -0.749197   -2.174390    0.777848
     23          1           0       -1.577150   -2.824206    1.070582
     24          1           0        0.003724   -2.781472    0.258330
     25          1           0       -0.270334   -1.746675    1.657861
     26          6           0       -1.825986   -1.664412   -1.472315
     27          1           0       -1.080054   -2.310640   -1.950523
     28          1           0       -2.710015   -2.267873   -1.250737
     29          1           0       -2.075160   -0.873486   -2.180534
 ---------------------------------------------------------------------
 Rotational constants (GHZ):           0.6023189           0.3042613           0.2912940
   427 basis functions,  1056 primitive gaussians,   461 cartesian basis functions
    77 alpha electrons       72 beta electrons
       nuclear repulsion energy      1623.9711296514 Hartrees.
 NAtoms=   29 NActive=   29 NUniq=   29 SFac= 1.00D+00 NAtFMM=   60 NAOKFM=F Big=F
 Initial guess from the checkpoint file:  "checkpoint.chk"
 B after Tr=     0.000000    0.000000    0.000000
         Rot=    1.000000    0.000000    0.000000    0.000000 Ang=   0.00 deg.
 Initial guess <Sx>= 0.0000 <Sy>= 0.0000 <Sz>= 2.5000 <S**2>= 8.7629 S= 2.5021
 SCF Done:  E(UB3LYP) =  -3034.33118598     A.U. after   15 cycles
            NFock= 15  Conv=0.83D-08     -V/T= 2.0024
 <Sx>= 0.0000 <Sy>= 0.0000 <Sz>= 2.5000 <S**2>= 8.7622 S= 2.5020
 <L.S>= 0.000000000000E+00
 Annihilation of the first spin contaminant:
 S**2 before annihilation     8.7622,   after     8.7500
 1\1\GINC-HOLY7C08607\SP\UB3LYP\Jul-CC-pVDZ\C8H16Cl3Fe1O1(6)\EKWAN\11-F
 eb-2020\0\\#t pop=none jul-cc-pvdz guess=read ub3lyp\\theory_abbreviat
 ion b3lyp\\0,6\O,0,-0.307203,-0.158554,-0.452308\C,0,-1.170215,-1.1044
 63,-0.221918\C,0,-2.627913,-0.260816,0.856682\C,0,-3.058508,0.675667,-
 0.072266\C,0,-4.164671,0.388192,-1.031333\Fe,0,1.53261,0.174126,-0.099
 079\Cl,0,1.861942,2.130498,-1.030983\C,0,-2.34965,1.970057,-0.209553\C
 l,0,2.5373,-1.540539,-1.037849\Cl,0,1.829217,0.21705,2.085954\H,0,-3.2
 66963,-1.138062,0.956154\H,0,-2.827814,2.645261,-0.922007\H,0,-2.21456
 8,2.476126,0.751741\H,0,-1.32934,1.732644,-0.567517\H,0,-4.995715,1.07
 3,-0.808487\H,0,-3.863848,0.60377,-2.064174\H,0,-4.537027,-0.635696,-0
 .962349\C,0,-1.929368,0.192749,2.127627\H,0,-2.537032,0.947378,2.63990
 3\H,0,-1.792291,-0.641184,2.817425\H,0,-0.947387,0.627628,1.929149\C,0
 ,-0.749197,-2.17439,0.777848\H,0,-1.57715,-2.824206,1.070582\H,0,0.003
 724,-2.781472,0.25833\H,0,-0.270334,-1.746675,1.657861\C,0,-1.825986,-
 1.664412,-1.472315\H,0,-1.080054,-2.31064,-1.950523\H,0,-2.710015,-2.2
 67873,-1.250737\H,0,-2.07516,-0.873486,-2.180534\\Version=ES64L-G16Rev
 A.03\HF=-3034.331186\S2=8.762162\S2-1=0.\S2A=8.750046\RMSD=8.313e-09\P
 G=C01 [X(C8H16Cl3Fe1O1)]\\@


 TO ERR IS HUMAN - AND TO BLAME IT ON A COMPUTER IS EVEN MORE SO.
 Job cpu time:       0 days  1 hours  2 minutes 41.7 seconds.
 Elapsed time:       0 days  0 hours 15 minutes 44.0 seconds.
 File lengths (MBytes):  RWF=    174 Int=      0 D2E=      0 Chk=     13 Scr=      1
 Normal termination of Gaussian 16 at Tue Feb 11 14:15:56 2020.
 Initial command:
 /n/sw/g16_nehalem/g16/l1.exe "/scratch/Gau-98683.inp" -scrdir="/scratch/"
 Entering Link 1 = /n/sw/g16_nehalem/g16/l1.exe PID=    102826.
  
 Copyright (c) 1988,1990,1992,1993,1995,1998,2003,2009,2016,
            Gaussian, Inc.  All Rights Reserved.
  
 This is part of the Gaussian(R) 16 program.  It is based on
 the Gaussian(R) 09 system (copyright 2009, Gaussian, Inc.),
 the Gaussian(R) 03 system (copyright 2003, Gaussian, Inc.),
 the Gaussian(R) 98 system (copyright 1998, Gaussian, Inc.),
 the Gaussian(R) 94 system (copyright 1995, Gaussian, Inc.),
 the Gaussian 92(TM) system (copyright 1992, Gaussian, Inc.),
 the Gaussian 90(TM) system (copyright 1990, Gaussian, Inc.),
 the Gaussian 88(TM) system (copyright 1988, Gaussian, Inc.),
 the Gaussian 86(TM) system (copyright 1986, Carnegie Mellon
 University), and the Gaussian 82(TM) system (copyright 1983,
 Carnegie Mellon University). Gaussian is a federally registered
 trademark of Gaussian, Inc.
  
 This software contains proprietary and confidential information,
 including trade secrets, belonging to Gaussian, Inc.
  
 This software is provided under written license and may be
 used, copied, transmitted, or stored only in accord with that
 written license.
  
 The following legend is applicable only to US Government
 contracts under FAR:
  
                    RESTRICTED RIGHTS LEGEND
  
 Use, reproduction and disclosure by the US Government is
 subject to restrictions as set forth in subparagraphs (a)
 and (c) of the Commercial Computer Software - Restricted
 Rights clause in FAR 52.227-19.
  
 Gaussian, Inc.
 340 Quinnipiac St., Bldg. 40, Wallingford CT 06492
  
  
 ---------------------------------------------------------------
 Warning -- This program may not be used in any manner that
 competes with the business of Gaussian, Inc. or will provide
 assistance to any competitor of Gaussian, Inc.  The licensee
 of this program is prohibited from giving any competitor of
 Gaussian, Inc. access to this program.  By using this program,
 the user acknowledges that Gaussian, Inc. is engaged in the
 business of creating and licensing software in the field of
 computational chemistry and represents and warrants to the
 licensee that it is not a competitor of Gaussian, Inc. and that
 it will not use this program in any manner prohibited above.
 ---------------------------------------------------------------
  

 Cite this work as:
 Gaussian 16, Revision A.03,
 M. J. Frisch, G. W. Trucks, H. B. Schlegel, G. E. Scuseria, 
 M. A. Robb, J. R. Cheeseman, G. Scalmani, V. Barone, 
 G. A. Petersson, H. Nakatsuji, X. Li, M. Caricato, A. V. Marenich, 
 J. Bloino, B. G. Janesko, R. Gomperts, B. Mennucci, H. P. Hratchian, 
 J. V. Ortiz, A. F. Izmaylov, J. L. Sonnenberg, D. Williams-Young, 
 F. Ding, F. Lipparini, F. Egidi, J. Goings, B. Peng, A. Petrone, 
 T. Henderson, D. Ranasinghe, V. G. Zakrzewski, J. Gao, N. Rega, 
 G. Zheng, W. Liang, M. Hada, M. Ehara, K. Toyota, R. Fukuda, 
 J. Hasegawa, M. Ishida, T. Nakajima, Y. Honda, O. Kitao, H. Nakai, 
 T. Vreven, K. Throssell, J. A. Montgomery, Jr., J. E. Peralta, 
 F. Ogliaro, M. J. Bearpark, J. J. Heyd, E. N. Brothers, K. N. Kudin, 
 V. N. Staroverov, T. A. Keith, R. Kobayashi, J. Normand, 
 K. Raghavachari, A. P. Rendell, J. C. Burant, S. S. Iyengar, 
 J. Tomasi, M. Cossi, J. M. Millam, M. Klene, C. Adamo, R. Cammi, 
 J. W. Ochterski, R. L. Martin, K. Morokuma, O. Farkas, 
 J. B. Foresman, and D. J. Fox, Gaussian, Inc., Wallingford CT, 2016.
 
 ******************************************
 Gaussian 16:  ES64L-G16RevA.03 25-Dec-2016
                11-Feb-2020 
 ******************************************
 %chk=checkpoint.chk
 %mem=3GB
 %nprocshared=4
 Will use up to    4 processors via shared memory.
 -------------------------------------------------------------------
 #t pop=none jul-cc-pvdz guess=read ub3lyp empiricaldispersion=gd3bj
 -------------------------------------------------------------------
 ------------------------------
 theory_abbreviation b3lyp_d3bj
 ------------------------------
 Symbolic Z-matrix:
 Charge =  0 Multiplicity = 6
 O                    -0.3072   -0.15855  -0.45231 
 C                    -1.17022  -1.10446  -0.22192 
 C                    -2.62791  -0.26082   0.85668 
 C                    -3.05851   0.67567  -0.07227 
 C                    -4.16467   0.38819  -1.03133 
 Fe                    1.53261   0.17413  -0.09908 
 Cl                    1.86194   2.1305   -1.03098 
 C                    -2.34965   1.97006  -0.20955 
 Cl                    2.5373   -1.54054  -1.03785 
 Cl                    1.82922   0.21705   2.08595 
 H                    -3.26696  -1.13806   0.95615 
 H                    -2.82781   2.64526  -0.92201 
 H                    -2.21457   2.47613   0.75174 
 H                    -1.32934   1.73264  -0.56752 
 H                    -4.99572   1.073    -0.80849 
 H                    -3.86385   0.60377  -2.06417 
 H                    -4.53703  -0.6357   -0.96235 
 C                    -1.92937   0.19275   2.12763 
 H                    -2.53703   0.94738   2.6399 
 H                    -1.79229  -0.64118   2.81743 
 H                    -0.94739   0.62763   1.92915 
 C                    -0.7492   -2.17439   0.77785 
 H                    -1.57715  -2.82421   1.07058 
 H                     0.00372  -2.78147   0.25833 
 H                    -0.27033  -1.74668   1.65786 
 C                    -1.82599  -1.66441  -1.47232 
 H                    -1.08005  -2.31064  -1.95052 
 H                    -2.71002  -2.26787  -1.25074 
 H                    -2.07516  -0.87349  -2.18053 
 
                    Distance matrix (angstroms):
                    1          2          3          4          5
     1  O    0.000000
     2  C    1.301005   0.000000
     3  C    2.666385   2.000000   0.000000
     4  C    2.900006   2.599406   1.387572   0.000000
     5  C    3.938815   3.442374   2.519412   1.491995   0.000000
     6  Fe   1.902724   2.992514   4.290991   4.618509   5.777018
     7  Cl   3.206215   4.507054   5.425906   5.219818   6.273412
     8  C    2.959984   3.293007   2.488188   1.482151   2.543997
     9  Cl   3.216199   3.821200   5.648572   6.095653   6.973985
    10  Cl   3.338883   4.008648   4.648169   5.362658   6.758214
    11  H    3.421020   2.405272   1.089881   2.095403   2.661848
    12  H    3.799405   4.159109   3.413060   2.157448   2.625547
    13  H    3.468330   3.854777   2.769967   2.152411   3.367747
    14  H    2.152828   2.862505   2.772818   2.086264   3.172031
    15  H    4.860631   4.440705   3.187215   2.110134   1.099662
    16  H    3.978564   3.683426   3.287316   2.149753   1.097146
    17  H    4.287099   3.478995   2.663480   2.167473   1.091675
    18  C    3.067719   2.789164   1.519535   2.519463   3.874765
    19  H    3.969508   3.777335   2.155892   2.775180   4.054611
    20  H    3.623475   3.136752   2.165054   3.418730   4.636889
    21  H    2.588292   2.770718   2.182587   2.909433   4.378664
    22  C    2.402548   1.523657   2.682826   3.765426   4.637394
    23  H    3.322297   2.189445   2.778637   3.968581   4.629559
    24  H    2.735211   2.102648   3.692864   4.630159   5.393099
    25  H    2.641269   2.180778   2.899628   4.078602   5.191848
    26  C    2.369541   1.518905   2.835030   2.992527   3.142785
    27  H    2.733756   2.109755   3.805003   4.044769   4.200413
    28  H    3.295485   2.187001   2.911397   3.189776   3.036255
    29  H    2.573629   2.169897   3.147313   2.794932   2.697879
                    6          7          8          9         10
     6  Fe   0.000000
     7  Cl   2.191870   0.000000
     8  C    4.278962   4.293949   0.000000
     9  Cl   2.197901   3.732649   6.073931   0.000000
    10  Cl   2.205490   3.657547   5.079893   3.653580   0.000000
    11  H    5.086379   6.398270   3.443942   6.150407   5.392942
    12  H    5.079076   4.719181   1.091848   6.805791   6.052436
    13  H    4.479335   4.462678   1.094732   6.474294   4.820347
    14  H    3.292290   3.249211   1.107039   5.087813   4.394817
    15  H    6.627991   6.942281   2.857463   7.976811   7.462582
    16  H    5.759162   6.015235   2.756656   6.828331   7.055785
    17  H    6.183974   6.971610   3.484432   7.132359   7.109739
    18  C    4.116292   5.301483   2.966121   5.742443   3.758895
    19  H    4.966078   5.850312   3.033213   6.742732   4.461431
    20  H    4.497298   5.987143   4.036313   5.866629   3.793011
    21  H    3.235701   4.348946   2.888339   5.064294   2.811173
    22  C    3.389863   5.349951   4.551137   3.807832   3.752112
    23  H    4.475345   6.386941   5.021998   4.798123   4.677986
    24  H    3.346759   5.407657   5.322998   3.104674   3.957748
    25  H    3.166531   5.177736   4.650257   3.897711   2.906474
    26  C    4.067698   5.310078   3.883060   4.386613   5.437066
    27  H    4.053137   5.405978   4.792412   3.809367   5.580880
    28  H    5.028871   6.347972   4.378810   5.301759   6.157351
    29  H    4.294875   5.083912   3.470713   4.798487   5.885265
                   11         12         13         14         15
    11  H    0.000000
    12  H    4.246631   0.000000
    13  H    3.769838   1.790561   0.000000
    14  H    3.783769   1.789960   1.754091   0.000000
    15  H    3.315318   2.680426   3.483942   3.733029   0.000000
    16  H    3.537320   2.558437   3.762342   3.152470   1.754437
    17  H    2.355013   3.699691   4.244450   4.006767   1.775869
    18  C    2.220938   4.015257   2.681084   3.161505   4.335677
    19  H    2.777925   3.956585   2.450757   3.516064   4.237015
    20  H    2.426082   5.084917   3.763375   4.160194   5.132990
    21  H    3.073241   3.966855   2.531597   2.756862   4.907338
    22  C    2.728537   5.517172   4.875991   4.172707   5.576282
    23  H    2.389904   5.953960   5.348035   4.848676   5.514137
    24  H    3.726278   6.233798   5.727706   4.778737   6.402300
    25  H    3.137290   5.699607   4.736364   4.263738   6.030146
    26  C    2.872442   4.458675   4.716087   3.550395   4.240433
    27  H    3.821816   5.354761   5.612707   4.280537   5.299591
    28  H    2.541069   4.925528   5.173095   4.286862   4.072032
    29  H    3.365889   3.812081   4.453939   3.154360   3.768416
                   16         17         18         19         20
    16  H    0.000000
    17  H    1.789822   0.000000
    18  C    4.634905   4.127246   0.000000
    19  H    4.899678   4.413878   1.095969   0.000000
    20  H    5.447134   4.671220   1.090897   1.763429   0.000000
    21  H    4.944992   4.779358   1.092154   1.770419   1.764307
    22  C    5.049387   4.443368   2.969521   4.050807   2.756563
    23  H    5.177519   4.205146   3.216119   4.196306   2.804163
    24  H    5.640213   5.168446   4.009627   5.102122   3.788861
    25  H    5.682559   5.128786   2.595080   3.655167   2.209763
    26  C    3.106095   2.944158   4.052076   4.923146   4.410215
    27  H    4.031899   3.966433   4.860000   5.814592   5.101734
    28  H    3.199897   2.466808   4.251754   5.050232   4.476413
    29  H    2.322763   2.757047   4.440536   5.173537   5.011344
                   21         22         23         24         25
    21  H    0.000000
    22  C    3.035799   0.000000
    23  H    3.612326   1.092456   0.000000
    24  H    3.913849   1.097879   1.777848   0.000000
    25  H    2.483810   1.089345   1.792690   1.761987   0.000000
    26  C    4.194680   2.546132   2.805952   2.755140   3.496401
    27  H    4.868560   2.751734   3.104502   2.505053   3.740874
    28  H    4.647844   2.822889   2.642236   3.147292   3.831923
    29  H    4.518264   3.493215   3.824013   3.729642   4.330489
                   26         27         28         29
    26  C    0.000000
    27  H    1.096680   0.000000
    28  H    1.093055   1.774346   0.000000
    29  H    1.090516   1.763109   1.792171   0.000000
 Framework group  C1[X(C8H16Cl3FeO)]
 Deg. of freedom    81
                         Standard orientation:                         
 ---------------------------------------------------------------------
 Center     Atomic      Atomic             Coordinates (Angstroms)
 Number     Number       Type             X           Y           Z
 ---------------------------------------------------------------------
      1          8           0       -0.307203   -0.158554   -0.452308
      2          6           0       -1.170215   -1.104463   -0.221918
      3          6           0       -2.627913   -0.260816    0.856682
      4          6           0       -3.058508    0.675667   -0.072266
      5          6           0       -4.164671    0.388192   -1.031333
      6         26           0        1.532610    0.174126   -0.099079
      7         17           0        1.861942    2.130498   -1.030983
      8          6           0       -2.349650    1.970057   -0.209553
      9         17           0        2.537300   -1.540539   -1.037849
     10         17           0        1.829217    0.217050    2.085954
     11          1           0       -3.266963   -1.138062    0.956154
     12          1           0       -2.827814    2.645261   -0.922007
     13          1           0       -2.214568    2.476126    0.751741
     14          1           0       -1.329340    1.732644   -0.567517
     15          1           0       -4.995715    1.073000   -0.808487
     16          1           0       -3.863848    0.603770   -2.064174
     17          1           0       -4.537027   -0.635696   -0.962349
     18          6           0       -1.929368    0.192749    2.127627
     19          1           0       -2.537032    0.947378    2.639903
     20          1           0       -1.792291   -0.641184    2.817425
     21          1           0       -0.947387    0.627628    1.929149
     22          6           0       -0.749197   -2.174390    0.777848
     23          1           0       -1.577150   -2.824206    1.070582
     24          1           0        0.003724   -2.781472    0.258330
     25          1           0       -0.270334   -1.746675    1.657861
     26          6           0       -1.825986   -1.664412   -1.472315
     27          1           0       -1.080054   -2.310640   -1.950523
     28          1           0       -2.710015   -2.267873   -1.250737
     29          1           0       -2.075160   -0.873486   -2.180534
 ---------------------------------------------------------------------
 Rotational constants (GHZ):           0.6023189           0.3042613           0.2912940
   427 basis functions,  1056 primitive gaussians,   461 cartesian basis functions
    77 alpha electrons       72 beta electrons
       nuclear repulsion energy      1623.9711296514 Hartrees.
 NAtoms=   29 NActive=   29 NUniq=   29 SFac= 1.00D+00 NAtFMM=   60 NAOKFM=F Big=F
 Nuclear repulsion after empirical dispersion term =     1623.9040844320 Hartrees.
 Initial guess from the checkpoint file:  "checkpoint.chk"
 B after Tr=     0.000000    0.000000    0.000000
         Rot=    1.000000    0.000000    0.000000    0.000000 Ang=   0.00 deg.
 Initial guess <Sx>= 0.0000 <Sy>= 0.0000 <Sz>= 2.5000 <S**2>= 8.7622 S= 2.5020
 SCF Done:  E(UB3LYP) =  -3034.39823120     A.U. after    1 cycles
            NFock=  1  Conv=0.24D-08     -V/T= 2.0024
 <Sx>= 0.0000 <Sy>= 0.0000 <Sz>= 2.5000 <S**2>= 8.7622 S= 2.5020
 <L.S>= 0.000000000000E+00
 Annihilation of the first spin contaminant:
 S**2 before annihilation     8.7622,   after     8.7500
 1\1\GINC-HOLY7C08607\SP\UB3LYP\Jul-CC-pVDZ\C8H16Cl3Fe1O1(6)\EKWAN\11-F
 eb-2020\0\\#t pop=none jul-cc-pvdz guess=read ub3lyp empiricaldispersi
 on=gd3bj\\theory_abbreviation b3lyp_d3bj\\0,6\O,0,-0.307203,-0.158554,
 -0.452308\C,0,-1.170215,-1.104463,-0.221918\C,0,-2.627913,-0.260816,0.
 856682\C,0,-3.058508,0.675667,-0.072266\C,0,-4.164671,0.388192,-1.0313
 33\Fe,0,1.53261,0.174126,-0.099079\Cl,0,1.861942,2.130498,-1.030983\C,
 0,-2.34965,1.970057,-0.209553\Cl,0,2.5373,-1.540539,-1.037849\Cl,0,1.8
 29217,0.21705,2.085954\H,0,-3.266963,-1.138062,0.956154\H,0,-2.827814,
 2.645261,-0.922007\H,0,-2.214568,2.476126,0.751741\H,0,-1.32934,1.7326
 44,-0.567517\H,0,-4.995715,1.073,-0.808487\H,0,-3.863848,0.60377,-2.06
 4174\H,0,-4.537027,-0.635696,-0.962349\C,0,-1.929368,0.192749,2.127627
 \H,0,-2.537032,0.947378,2.639903\H,0,-1.792291,-0.641184,2.817425\H,0,
 -0.947387,0.627628,1.929149\C,0,-0.749197,-2.17439,0.777848\H,0,-1.577
 15,-2.824206,1.070582\H,0,0.003724,-2.781472,0.25833\H,0,-0.270334,-1.
 746675,1.657861\C,0,-1.825986,-1.664412,-1.472315\H,0,-1.080054,-2.310
 64,-1.950523\H,0,-2.710015,-2.267873,-1.250737\H,0,-2.07516,-0.873486,
 -2.180534\\Version=ES64L-G16RevA.03\HF=-3034.3982312\S2=8.762162\S2-1=
 0.\S2A=8.750046\RMSD=2.432e-09\PG=C01 [X(C8H16Cl3Fe1O1)]\\@


     SCHOPENHAUER'S LAW OF ENTROPY
 IF YOU PUT A SPOONFUL OF WINE IN A BARREL FULL
 OF SEWAGE, YOU GET SEWAGE.
 IF YOU PUT A SPOONFUL OF SEWAGE IN A BARREL FULL
 OF WINE, YOU GET SEWAGE.
 Job cpu time:       0 days  0 hours  4 minutes 36.6 seconds.
 Elapsed time:       0 days  0 hours  1 minutes  9.7 seconds.
 File lengths (MBytes):  RWF=    170 Int=      0 D2E=      0 Chk=     13 Scr=      1
 Normal termination of Gaussian 16 at Tue Feb 11 14:17:06 2020.
 Initial command:
 /n/sw/g16_nehalem/g16/l1.exe "/scratch/Gau-98683.inp" -scrdir="/scratch/"
 Entering Link 1 = /n/sw/g16_nehalem/g16/l1.exe PID=    103137.
  
 Copyright (c) 1988,1990,1992,1993,1995,1998,2003,2009,2016,
            Gaussian, Inc.  All Rights Reserved.
  
 This is part of the Gaussian(R) 16 program.  It is based on
 the Gaussian(R) 09 system (copyright 2009, Gaussian, Inc.),
 the Gaussian(R) 03 system (copyright 2003, Gaussian, Inc.),
 the Gaussian(R) 98 system (copyright 1998, Gaussian, Inc.),
 the Gaussian(R) 94 system (copyright 1995, Gaussian, Inc.),
 the Gaussian 92(TM) system (copyright 1992, Gaussian, Inc.),
 the Gaussian 90(TM) system (copyright 1990, Gaussian, Inc.),
 the Gaussian 88(TM) system (copyright 1988, Gaussian, Inc.),
 the Gaussian 86(TM) system (copyright 1986, Carnegie Mellon
 University), and the Gaussian 82(TM) system (copyright 1983,
 Carnegie Mellon University). Gaussian is a federally registered
 trademark of Gaussian, Inc.
  
 This software contains proprietary and confidential information,
 including trade secrets, belonging to Gaussian, Inc.
  
 This software is provided under written license and may be
 used, copied, transmitted, or stored only in accord with that
 written license.
  
 The following legend is applicable only to US Government
 contracts under FAR:
  
                    RESTRICTED RIGHTS LEGEND
  
 Use, reproduction and disclosure by the US Government is
 subject to restrictions as set forth in subparagraphs (a)
 and (c) of the Commercial Computer Software - Restricted
 Rights clause in FAR 52.227-19.
  
 Gaussian, Inc.
 340 Quinnipiac St., Bldg. 40, Wallingford CT 06492
  
  
 ---------------------------------------------------------------
 Warning -- This program may not be used in any manner that
 competes with the business of Gaussian, Inc. or will provide
 assistance to any competitor of Gaussian, Inc.  The licensee
 of this program is prohibited from giving any competitor of
 Gaussian, Inc. access to this program.  By using this program,
 the user acknowledges that Gaussian, Inc. is engaged in the
 business of creating and licensing software in the field of
 computational chemistry and represents and warrants to the
 licensee that it is not a competitor of Gaussian, Inc. and that
 it will not use this program in any manner prohibited above.
 ---------------------------------------------------------------
  

 Cite this work as:
 Gaussian 16, Revision A.03,
 M. J. Frisch, G. W. Trucks, H. B. Schlegel, G. E. Scuseria, 
 M. A. Robb, J. R. Cheeseman, G. Scalmani, V. Barone, 
 G. A. Petersson, H. Nakatsuji, X. Li, M. Caricato, A. V. Marenich, 
 J. Bloino, B. G. Janesko, R. Gomperts, B. Mennucci, H. P. Hratchian, 
 J. V. Ortiz, A. F. Izmaylov, J. L. Sonnenberg, D. Williams-Young, 
 F. Ding, F. Lipparini, F. Egidi, J. Goings, B. Peng, A. Petrone, 
 T. Henderson, D. Ranasinghe, V. G. Zakrzewski, J. Gao, N. Rega, 
 G. Zheng, W. Liang, M. Hada, M. Ehara, K. Toyota, R. Fukuda, 
 J. Hasegawa, M. Ishida, T. Nakajima, Y. Honda, O. Kitao, H. Nakai, 
 T. Vreven, K. Throssell, J. A. Montgomery, Jr., J. E. Peralta, 
 F. Ogliaro, M. J. Bearpark, J. J. Heyd, E. N. Brothers, K. N. Kudin, 
 V. N. Staroverov, T. A. Keith, R. Kobayashi, J. Normand, 
 K. Raghavachari, A. P. Rendell, J. C. Burant, S. S. Iyengar, 
 J. Tomasi, M. Cossi, J. M. Millam, M. Klene, C. Adamo, R. Cammi, 
 J. W. Ochterski, R. L. Martin, K. Morokuma, O. Farkas, 
 J. B. Foresman, and D. J. Fox, Gaussian, Inc., Wallingford CT, 2016.
 
 ******************************************
 Gaussian 16:  ES64L-G16RevA.03 25-Dec-2016
                11-Feb-2020 
 ******************************************
 %chk=checkpoint.chk
 %mem=3GB
 %nprocshared=4
 Will use up to    4 processors via shared memory.
 ----------------------------------------
 #t pop=none jul-cc-pvdz guess=read ub97d
 ----------------------------------------
 ------------------------
 theory_abbreviation b97d
 ------------------------
 Symbolic Z-matrix:
 Charge =  0 Multiplicity = 6
 O                    -0.3072   -0.15855  -0.45231 
 C                    -1.17022  -1.10446  -0.22192 
 C                    -2.62791  -0.26082   0.85668 
 C                    -3.05851   0.67567  -0.07227 
 C                    -4.16467   0.38819  -1.03133 
 Fe                    1.53261   0.17413  -0.09908 
 Cl                    1.86194   2.1305   -1.03098 
 C                    -2.34965   1.97006  -0.20955 
 Cl                    2.5373   -1.54054  -1.03785 
 Cl                    1.82922   0.21705   2.08595 
 H                    -3.26696  -1.13806   0.95615 
 H                    -2.82781   2.64526  -0.92201 
 H                    -2.21457   2.47613   0.75174 
 H                    -1.32934   1.73264  -0.56752 
 H                    -4.99572   1.073    -0.80849 
 H                    -3.86385   0.60377  -2.06417 
 H                    -4.53703  -0.6357   -0.96235 
 C                    -1.92937   0.19275   2.12763 
 H                    -2.53703   0.94738   2.6399 
 H                    -1.79229  -0.64118   2.81743 
 H                    -0.94739   0.62763   1.92915 
 C                    -0.7492   -2.17439   0.77785 
 H                    -1.57715  -2.82421   1.07058 
 H                     0.00372  -2.78147   0.25833 
 H                    -0.27033  -1.74668   1.65786 
 C                    -1.82599  -1.66441  -1.47232 
 H                    -1.08005  -2.31064  -1.95052 
 H                    -2.71002  -2.26787  -1.25074 
 H                    -2.07516  -0.87349  -2.18053 
 
                    Distance matrix (angstroms):
                    1          2          3          4          5
     1  O    0.000000
     2  C    1.301005   0.000000
     3  C    2.666385   2.000000   0.000000
     4  C    2.900006   2.599406   1.387572   0.000000
     5  C    3.938815   3.442374   2.519412   1.491995   0.000000
     6  Fe   1.902724   2.992514   4.290991   4.618509   5.777018
     7  Cl   3.206215   4.507054   5.425906   5.219818   6.273412
     8  C    2.959984   3.293007   2.488188   1.482151   2.543997
     9  Cl   3.216199   3.821200   5.648572   6.095653   6.973985
    10  Cl   3.338883   4.008648   4.648169   5.362658   6.758214
    11  H    3.421020   2.405272   1.089881   2.095403   2.661848
    12  H    3.799405   4.159109   3.413060   2.157448   2.625547
    13  H    3.468330   3.854777   2.769967   2.152411   3.367747
    14  H    2.152828   2.862505   2.772818   2.086264   3.172031
    15  H    4.860631   4.440705   3.187215   2.110134   1.099662
    16  H    3.978564   3.683426   3.287316   2.149753   1.097146
    17  H    4.287099   3.478995   2.663480   2.167473   1.091675
    18  C    3.067719   2.789164   1.519535   2.519463   3.874765
    19  H    3.969508   3.777335   2.155892   2.775180   4.054611
    20  H    3.623475   3.136752   2.165054   3.418730   4.636889
    21  H    2.588292   2.770718   2.182587   2.909433   4.378664
    22  C    2.402548   1.523657   2.682826   3.765426   4.637394
    23  H    3.322297   2.189445   2.778637   3.968581   4.629559
    24  H    2.735211   2.102648   3.692864   4.630159   5.393099
    25  H    2.641269   2.180778   2.899628   4.078602   5.191848
    26  C    2.369541   1.518905   2.835030   2.992527   3.142785
    27  H    2.733756   2.109755   3.805003   4.044769   4.200413
    28  H    3.295485   2.187001   2.911397   3.189776   3.036255
    29  H    2.573629   2.169897   3.147313   2.794932   2.697879
                    6          7          8          9         10
     6  Fe   0.000000
     7  Cl   2.191870   0.000000
     8  C    4.278962   4.293949   0.000000
     9  Cl   2.197901   3.732649   6.073931   0.000000
    10  Cl   2.205490   3.657547   5.079893   3.653580   0.000000
    11  H    5.086379   6.398270   3.443942   6.150407   5.392942
    12  H    5.079076   4.719181   1.091848   6.805791   6.052436
    13  H    4.479335   4.462678   1.094732   6.474294   4.820347
    14  H    3.292290   3.249211   1.107039   5.087813   4.394817
    15  H    6.627991   6.942281   2.857463   7.976811   7.462582
    16  H    5.759162   6.015235   2.756656   6.828331   7.055785
    17  H    6.183974   6.971610   3.484432   7.132359   7.109739
    18  C    4.116292   5.301483   2.966121   5.742443   3.758895
    19  H    4.966078   5.850312   3.033213   6.742732   4.461431
    20  H    4.497298   5.987143   4.036313   5.866629   3.793011
    21  H    3.235701   4.348946   2.888339   5.064294   2.811173
    22  C    3.389863   5.349951   4.551137   3.807832   3.752112
    23  H    4.475345   6.386941   5.021998   4.798123   4.677986
    24  H    3.346759   5.407657   5.322998   3.104674   3.957748
    25  H    3.166531   5.177736   4.650257   3.897711   2.906474
    26  C    4.067698   5.310078   3.883060   4.386613   5.437066
    27  H    4.053137   5.405978   4.792412   3.809367   5.580880
    28  H    5.028871   6.347972   4.378810   5.301759   6.157351
    29  H    4.294875   5.083912   3.470713   4.798487   5.885265
                   11         12         13         14         15
    11  H    0.000000
    12  H    4.246631   0.000000
    13  H    3.769838   1.790561   0.000000
    14  H    3.783769   1.789960   1.754091   0.000000
    15  H    3.315318   2.680426   3.483942   3.733029   0.000000
    16  H    3.537320   2.558437   3.762342   3.152470   1.754437
    17  H    2.355013   3.699691   4.244450   4.006767   1.775869
    18  C    2.220938   4.015257   2.681084   3.161505   4.335677
    19  H    2.777925   3.956585   2.450757   3.516064   4.237015
    20  H    2.426082   5.084917   3.763375   4.160194   5.132990
    21  H    3.073241   3.966855   2.531597   2.756862   4.907338
    22  C    2.728537   5.517172   4.875991   4.172707   5.576282
    23  H    2.389904   5.953960   5.348035   4.848676   5.514137
    24  H    3.726278   6.233798   5.727706   4.778737   6.402300
    25  H    3.137290   5.699607   4.736364   4.263738   6.030146
    26  C    2.872442   4.458675   4.716087   3.550395   4.240433
    27  H    3.821816   5.354761   5.612707   4.280537   5.299591
    28  H    2.541069   4.925528   5.173095   4.286862   4.072032
    29  H    3.365889   3.812081   4.453939   3.154360   3.768416
                   16         17         18         19         20
    16  H    0.000000
    17  H    1.789822   0.000000
    18  C    4.634905   4.127246   0.000000
    19  H    4.899678   4.413878   1.095969   0.000000
    20  H    5.447134   4.671220   1.090897   1.763429   0.000000
    21  H    4.944992   4.779358   1.092154   1.770419   1.764307
    22  C    5.049387   4.443368   2.969521   4.050807   2.756563
    23  H    5.177519   4.205146   3.216119   4.196306   2.804163
    24  H    5.640213   5.168446   4.009627   5.102122   3.788861
    25  H    5.682559   5.128786   2.595080   3.655167   2.209763
    26  C    3.106095   2.944158   4.052076   4.923146   4.410215
    27  H    4.031899   3.966433   4.860000   5.814592   5.101734
[...]
 Rotational constants (GHZ):           0.6023189           0.3042613           0.2912940
   427 basis functions,  1056 primitive gaussians,   461 cartesian basis functions
    77 alpha electrons       72 beta electrons
       nuclear repulsion energy      1623.9711296514 Hartrees.
 NAtoms=   29 NActive=   29 NUniq=   29 SFac= 1.00D+00 NAtFMM=   60 NAOKFM=F Big=F
 Nuclear repulsion after empirical dispersion term =     1623.9686891649 Hartrees.
 Initial guess from the checkpoint file:  "checkpoint.chk"
 B after Tr=     0.000000    0.000000    0.000000
         Rot=    1.000000    0.000000    0.000000    0.000000 Ang=   0.00 deg.
 Initial guess <Sx>= 0.0000 <Sy>= 0.0000 <Sz>= 2.5000 <S**2>= 8.7619 S= 2.5020
 SCF Done:  E(UM06L) =  -3034.19604677     A.U. after   16 cycles
            NFock= 16  Conv=0.95D-08     -V/T= 2.0020
 <Sx>= 0.0000 <Sy>= 0.0000 <Sz>= 2.5000 <S**2>= 8.7620 S= 2.5020
 <L.S>= 0.000000000000E+00
 Annihilation of the first spin contaminant:
 S**2 before annihilation     8.7620,   after     8.7500
 1\1\GINC-HOLY7C08607\SP\UM06L\Jul-CC-pVDZ\C8H16Cl3Fe1O1(6)\EKWAN\11-Fe
 b-2020\0\\#t pop=none jul-cc-pvdz guess=read um06l empiricaldispersion
 =gd3\\theory_abbreviation m06l_d3\\0,6\O,0,-0.307203,-0.158554,-0.4523
 08\C,0,-1.170215,-1.104463,-0.221918\C,0,-2.627913,-0.260816,0.856682\
 C,0,-3.058508,0.675667,-0.072266\C,0,-4.164671,0.388192,-1.031333\Fe,0
 ,1.53261,0.174126,-0.099079\Cl,0,1.861942,2.130498,-1.030983\C,0,-2.34
 965,1.970057,-0.209553\Cl,0,2.5373,-1.540539,-1.037849\Cl,0,1.829217,0
 .21705,2.085954\H,0,-3.266963,-1.138062,0.956154\H,0,-2.827814,2.64526
 1,-0.922007\H,0,-2.214568,2.476126,0.751741\H,0,-1.32934,1.732644,-0.5
 67517\H,0,-4.995715,1.073,-0.808487\H,0,-3.863848,0.60377,-2.064174\H,
 0,-4.537027,-0.635696,-0.962349\C,0,-1.929368,0.192749,2.127627\H,0,-2
 .537032,0.947378,2.639903\H,0,-1.792291,-0.641184,2.817425\H,0,-0.9473
 87,0.627628,1.929149\C,0,-0.749197,-2.17439,0.777848\H,0,-1.57715,-2.8
 24206,1.070582\H,0,0.003724,-2.781472,0.25833\H,0,-0.270334,-1.746675,
 1.657861\C,0,-1.825986,-1.664412,-1.472315\H,0,-1.080054,-2.31064,-1.9
 50523\H,0,-2.710015,-2.267873,-1.250737\H,0,-2.07516,-0.873486,-2.1805
 34\\Version=ES64L-G16RevA.03\HF=-3034.1960468\S2=8.761971\S2-1=0.\S2A=
 8.750046\RMSD=9.504e-09\PG=C01 [X(C8H16Cl3Fe1O1)]\\@


 THE MOST SERIOUS THREAT TO THE SURVIVAL OF MANKIND IS NOT NOW
 IGNORANCE IN THE TRADITIONAL SENSE,
 BUT A MORALLY NEUTRAL, AN INSENSITIVE OR INHIBITED HUMAN INTELLIGENCE.

                     -- MARGO JEFFERSON IN NEWSWEEK, SEPTEMBER 2, 1974
 Job cpu time:       0 days  1 hours  9 minutes 25.1 seconds.
 Elapsed time:       0 days  0 hours 17 minutes 24.5 seconds.
 File lengths (MBytes):  RWF=    174 Int=      0 D2E=      0 Chk=     13 Scr=      1
 Normal termination of Gaussian 16 at Tue Feb 11 23:39:52 2020.
 Initial command:
 /n/sw/g16_nehalem/g16/l1.exe "/scratch/Gau-98683.inp" -scrdir="/scratch/"
 Entering Link 1 = /n/sw/g16_nehalem/g16/l1.exe PID=    153281.
  
 Copyright (c) 1988,1990,1992,1993,1995,1998,2003,2009,2016,
            Gaussian, Inc.  All Rights Reserved.
  
 This is part of the Gaussian(R) 16 program.  It is based on
 the Gaussian(R) 09 system (copyright 2009, Gaussian, Inc.),
 the Gaussian(R) 03 system (copyright 2003, Gaussian, Inc.),
 the Gaussian(R) 98 system (copyright 1998, Gaussian, Inc.),
 the Gaussian(R) 94 system (copyright 1995, Gaussian, Inc.),
 the Gaussian 92(TM) system (copyright 1992, Gaussian, Inc.),
 the Gaussian 90(TM) system (copyright 1990, Gaussian, Inc.),
 the Gaussian 88(TM) system (copyright 1988, Gaussian, Inc.),
 the Gaussian 86(TM) system (copyright 1986, Carnegie Mellon
 University), and the Gaussian 82(TM) system (copyright 1983,
 Carnegie Mellon University). Gaussian is a federally registered
 trademark of Gaussian, Inc.
  
 This software contains proprietary and confidential information,
 including trade secrets, belonging to Gaussian, Inc.
  
 This software is provided under written license and may be
 used, copied, transmitted, or stored only in accord with that
 written license.
  
 The following legend is applicable only to US Government
 contracts under FAR:
  
                    RESTRICTED RIGHTS LEGEND
  
 Use, reproduction and disclosure by the US Government is
 subject to restrictions as set forth in subparagraphs (a)
 and (c) of the Commercial Computer Software - Restricted
 Rights clause in FAR 52.227-19.
  
 Gaussian, Inc.
 340 Quinnipiac St., Bldg. 40, Wallingford CT 06492
  
  
 ---------------------------------------------------------------
 Warning -- This program may not be used in any manner that
 competes with the business of Gaussian, Inc. or will provide
 assistance to any competitor of Gaussian, Inc.  The licensee
 of this program is prohibited from giving any competitor of
 Gaussian, Inc. access to this program.  By using this program,
 the user acknowledges that Gaussian, Inc. is engaged in the
 business of creating and licensing software in the field of
 computational chemistry and represents and warrants to the
 licensee that it is not a competitor of Gaussian, Inc. and that
 it will not use this program in any manner prohibited above.
 ---------------------------------------------------------------
  

 Cite this work as:
 Gaussian 16, Revision A.03,
 M. J. Frisch, G. W. Trucks, H. B. Schlegel, G. E. Scuseria, 
 M. A. Robb, J. R. Cheeseman, G. Scalmani, V. Barone, 
 G. A. Petersson, H. Nakatsuji, X. Li, M. Caricato, A. V. Marenich, 
 J. Bloino, B. G. Janesko, R. Gomperts, B. Mennucci, H. P. Hratchian, 
 J. V. Ortiz, A. F. Izmaylov, J. L. Sonnenberg, D. Williams-Young, 
 F. Ding, F. Lipparini, F. Egidi, J. Goings, B. Peng, A. Petrone, 
 T. Henderson, D. Ranasinghe, V. G. Zakrzewski, J. Gao, N. Rega, 
 G. Zheng, W. Liang, M. Hada, M. Ehara, K. Toyota, R. Fukuda, 
 J. Hasegawa, M. Ishida, T. Nakajima, Y. Honda, O. Kitao, H. Nakai, 
 T. Vreven, K. Throssell, J. A. Montgomery, Jr., J. E. Peralta, 
 F. Ogliaro, M. J. Bearpark, J. J. Heyd, E. N. Brothers, K. N. Kudin, 
 V. N. Staroverov, T. A. Keith, R. Kobayashi, J. Normand, 
 K. Raghavachari, A. P. Rendell, J. C. Burant, S. S. Iyengar, 
 J. Tomasi, M. Cossi, J. M. Millam, M. Klene, C. Adamo, R. Cammi, 
 J. W. Ochterski, R. L. Martin, K. Morokuma, O. Farkas, 
 J. B. Foresman, and D. J. Fox, Gaussian, Inc., Wallingford CT, 2016.
 
 ******************************************
 Gaussian 16:  ES64L-G16RevA.03 25-Dec-2016
                11-Feb-2020 
 ******************************************
 %chk=checkpoint.chk
 %mem=3GB
 %nprocshared=4
 Will use up to    4 processors via shared memory.
 -------------------------------------------------------------------
 #t pop=none jul-cc-pvdz guess=read ub97d3 empiricaldispersion=gd3bj
 -------------------------------------------------------------------
 ------------------------------
 theory_abbreviation b97d3_d3bj
 ------------------------------
 Symbolic Z-matrix:
 Charge =  0 Multiplicity = 6
 O                    -0.3072   -0.15855  -0.45231 
 C                    -1.17022  -1.10446  -0.22192 
 C                    -2.62791  -0.26082   0.85668 
 C                    -3.05851   0.67567  -0.07227 
 C                    -4.16467   0.38819  -1.03133 
 Fe                    1.53261   0.17413  -0.09908 
 Cl                    1.86194   2.1305   -1.03098 
 C                    -2.34965   1.97006  -0.20955 
 Cl                    2.5373   -1.54054  -1.03785 
 Cl                    1.82922   0.21705   2.08595 
 H                    -3.26696  -1.13806   0.95615 
 H                    -2.82781   2.64526  -0.92201 
 H                    -2.21457   2.47613   0.75174 
 H                    -1.32934   1.73264  -0.56752 
 H                    -4.99572   1.073    -0.80849 
 H                    -3.86385   0.60377  -2.06417 
 H                    -4.53703  -0.6357   -0.96235 
 C                    -1.92937   0.19275   2.12763 
 H                    -2.53703   0.94738   2.6399 
 H                    -1.79229  -0.64118   2.81743 
 H                    -0.94739   0.62763   1.92915 
 C                    -0.7492   -2.17439   0.77785 
 H                    -1.57715  -2.82421   1.07058 
 H                     0.00372  -2.78147   0.25833 
 H                    -0.27033  -1.74668   1.65786 
 C                    -1.82599  -1.66441  -1.47232 
 H                    -1.08005  -2.31064  -1.95052 
 H                    -2.71002  -2.26787  -1.25074 
 H                    -2.07516  -0.87349  -2.18053 
 
                    Distance matrix (angstroms):
                    1          2          3          4          5
     1  O    0.000000
     2  C    1.301005   0.000000
     3  C    2.666385   2.000000   0.000000
     4  C    2.900006   2.599406   1.387572   0.000000
     5  C    3.938815   3.442374   2.519412   1.491995   0.000000
     6  Fe   1.902724   2.992514   4.290991   4.618509   5.777018
     7  Cl   3.206215   4.507054   5.425906   5.219818   6.273412
     8  C    2.959984   3.293007   2.488188   1.482151   2.543997
     9  Cl   3.216199   3.821200   5.648572   6.095653   6.973985
    10  Cl   3.338883   4.008648   4.648169   5.362658   6.758214
    11  H    3.421020   2.405272   1.089881   2.095403   2.661848
    12  H    3.799405   4.159109   3.413060   2.157448   2.625547
    13  H    3.468330   3.854777   2.769967   2.152411   3.367747
    14  H    2.152828   2.862505   2.772818   2.086264   3.172031
    15  H    4.860631   4.440705   3.187215   2.110134   1.099662
    16  H    3.978564   3.683426   3.287316   2.149753   1.097146
    17  H    4.287099   3.478995   2.663480   2.167473   1.091675
    18  C    3.067719   2.789164   1.519535   2.519463   3.874765
    19  H    3.969508   3.777335   2.155892   2.775180   4.054611
    20  H    3.623475   3.136752   2.165054   3.418730   4.636889
    21  H    2.588292   2.770718   2.182587   2.909433   4.378664
    22  C    2.402548   1.523657   2.682826   3.765426   4.637394
    23  H    3.322297   2.189445   2.778637   3.968581   4.629559
    24  H    2.735211   2.102648   3.692864   4.630159   5.393099
    25  H    2.641269   2.180778   2.899628   4.078602   5.191848
    26  C    2.369541   1.518905   2.835030   2.992527   3.142785
    27  H    2.733756   2.109755   3.805003   4.044769   4.200413
    28  H    3.295485   2.187001   2.911397   3.189776   3.036255
    29  H    2.573629   2.169897   3.147313   2.794932   2.697879
                    6          7          8          9         10
     6  Fe   0.000000
     7  Cl   2.191870   0.000000
     8  C    4.278962   4.293949   0.000000
     9  Cl   2.197901   3.732649   6.073931   0.000000
    10  Cl   2.205490   3.657547   5.079893   3.653580   0.000000
    11  H    5.086379   6.398270   3.443942   6.150407   5.392942
    12  H    5.079076   4.719181   1.091848   6.805791   6.052436
    13  H    4.479335   4.462678   1.094732   6.474294   4.820347
    14  H    3.292290   3.249211   1.107039   5.087813   4.394817
    15  H    6.627991   6.942281   2.857463   7.976811   7.462582
    16  H    5.759162   6.015235   2.756656   6.828331   7.055785
    17  H    6.183974   6.971610   3.484432   7.132359   7.109739
    18  C    4.116292   5.301483   2.966121   5.742443   3.758895
    19  H    4.966078   5.850312   3.033213   6.742732   4.461431
    20  H    4.497298   5.987143   4.036313   5.866629   3.793011
    21  H    3.235701   4.348946   2.888339   5.064294   2.811173
    22  C    3.389863   5.349951   4.551137   3.807832   3.752112
    23  H    4.475345   6.386941   5.021998   4.798123   4.677986
    24  H    3.346759   5.407657   5.322998   3.104674   3.957748
    25  H    3.166531   5.177736   4.650257   3.897711   2.906474
    26  C    4.067698   5.310078   3.883060   4.386613   5.437066
    27  H    4.053137   5.405978   4.792412   3.809367   5.580880
    28  H    5.028871   6.347972   4.378810   5.301759   6.157351
    29  H    4.294875   5.083912   3.470713   4.798487   5.885265
                   11         12         13         14         15
    11  H    0.000000
    12  H    4.246631   0.000000
    13  H    3.769838   1.790561   0.000000
    14  H    3.783769   1.789960   1.754091   0.000000
    15  H    3.315318   2.680426   3.483942   3.733029   0.000000
    16  H    3.537320   2.558437   3.762342   3.152470   1.754437
    17  H    2.355013   3.699691   4.244450   4.006767   1.775869
    18  C    2.220938   4.015257   2.681084   3.161505   4.335677
    19  H    2.777925   3.956585   2.450757   3.516064   4.237015
    20  H    2.426082   5.084917   3.763375   4.160194   5.132990
    21  H    3.073241   3.966855   2.531597   2.756862   4.907338
    22  C    2.728537   5.517172   4.875991   4.172707   5.576282
    23  H    2.389904   5.953960   5.348035   4.848676   5.514137
    24  H    3.726278   6.233798   5.727706   4.778737   6.402300
    25  H    3.137290   5.699607   4.736364   4.263738   6.030146
    26  C    2.872442   4.458675   4.716087   3.550395   4.240433
    27  H    3.821816   5.354761   5.612707   4.280537   5.299591
    28  H    2.541069   4.925528   5.173095   4.286862   4.072032
    29  H    3.365889   3.812081   4.453939   3.154360   3.768416
                   16         17         18         19         20
    16  H    0.000000
    17  H    1.789822   0.000000
    18  C    4.634905   4.127246   0.000000
    19  H    4.899678   4.413878   1.095969   0.000000
    20  H    5.447134   4.671220   1.090897   1.763429   0.000000
    21  H    4.944992   4.779358   1.092154   1.770419   1.764307
    22  C    5.049387   4.443368   2.969521   4.050807   2.756563
    23  H    5.177519   4.205146   3.216119   4.196306   2.804163
    24  H    5.640213   5.168446   4.009627   5.102122   3.788861
    25  H    5.682559   5.128786   2.595080   3.655167   2.209763
    26  C    3.106095   2.944158   4.052076   4.923146   4.410215
    27  H    4.031899   3.966433   4.860000   5.814592   5.101734
    28  H    3.199897   2.466808   4.251754   5.050232   4.476413
    29  H    2.322763   2.757047   4.440536   5.173537   5.011344
                   21         22         23         24         25
    21  H    0.000000
    22  C    3.035799   0.000000
    23  H    3.612326   1.092456   0.000000
    24  H    3.913849   1.097879   1.777848   0.000000
    25  H    2.483810   1.089345   1.792690   1.761987   0.000000
    26  C    4.194680   2.546132   2.805952   2.755140   3.496401
    27  H    4.868560   2.751734   3.104502   2.505053   3.740874
    28  H    4.647844   2.822889   2.642236   3.147292   3.831923
    29  H    4.518264   3.493215   3.824013   3.729642   4.330489
                   26         27         28         29
    26  C    0.000000
    27  H    1.096680   0.000000
    28  H    1.093055   1.774346   0.000000
    29  H    1.090516   1.763109   1.792171   0.000000
 Framework group  C1[X(C8H16Cl3FeO)]
 Deg. of freedom    81
                         Standard orientation:                         
 ---------------------------------------------------------------------
 Center     Atomic      Atomic             Coordinates (Angstroms)
 Number     Number       Type             X           Y           Z
 ---------------------------------------------------------------------
      1          8           0       -0.307203   -0.158554   -0.452308
      2          6           0       -1.170215   -1.104463   -0.221918
      3          6           0       -2.627913   -0.260816    0.856682
      4          6           0       -3.058508    0.675667   -0.072266
      5          6           0       -4.164671    0.388192   -1.031333
      6         26           0        1.532610    0.174126   -0.099079
      7         17           0        1.861942    2.130498   -1.030983
      8          6           0       -2.349650    1.970057   -0.209553
      9         17           0        2.537300   -1.540539   -1.037849
     10         17           0        1.829217    0.217050    2.085954
     11          1           0       -3.266963   -1.138062    0.956154
     12          1           0       -2.827814    2.645261   -0.922007
     13          1           0       -2.214568    2.476126    0.751741
     14          1           0       -1.329340    1.732644   -0.567517
     15          1           0       -4.995715    1.073000   -0.808487
     16          1           0       -3.863848    0.603770   -2.064174
     17          1           0       -4.537027   -0.635696   -0.962349
     18          6           0       -1.929368    0.192749    2.127627
     19          1           0       -2.537032    0.947378    2.639903
     20          1           0       -1.792291   -0.641184    2.817425
     21          1           0       -0.947387    0.627628    1.929149
     22          6           0       -0.749197   -2.174390    0.777848
     23          1           0       -1.577150   -2.824206    1.070582
     24          1           0        0.003724   -2.781472    0.258330
     25          1           0       -0.270334   -1.746675    1.657861
     26          6           0       -1.825986   -1.664412   -1.472315
     27          1           0       -1.080054   -2.310640   -1.950523
     28          1           0       -2.710015   -2.267873   -1.250737
     29          1           0       -2.075160   -0.873486   -2.180534
 ---------------------------------------------------------------------
 Rotational constants (GHZ):           0.6023189           0.3042613           0.2912940
   427 basis functions,  1056 primitive gaussians,   461 cartesian basis functions
    77 alpha electrons       72 beta electrons
       nuclear repulsion energy      1623.9711296514 Hartrees.
 NAtoms=   29 NActive=   29 NUniq=   29 SFac= 1.00D+00 NAtFMM=   60 NAOKFM=F Big=F
 Nuclear repulsion after empirical dispersion term =     1623.8720057705 Hartrees.
 Initial guess from the checkpoint file:  "checkpoint.chk"
 B after Tr=     0.000000    0.000000    0.000000
         Rot=    1.000000    0.000000    0.000000    0.000000 Ang=   0.00 deg.
 Initial guess <Sx>= 0.0000 <Sy>= 0.0000 <Sz>= 2.5000 <S**2>= 8.7620 S= 2.5020
 EnCoef did     3 forward-backward iterations
 SCF Done:  E(UB97D3) =  -3034.61876044     A.U. after   17 cycles
            NFock= 17  Conv=0.39D-08     -V/T= 2.0019
 <Sx>= 0.0000 <Sy>= 0.0000 <Sz>= 2.5000 <S**2>= 8.7602 S= 2.5017
 <L.S>= 0.000000000000E+00
 Annihilation of the first spin contaminant:
 S**2 before annihilation     8.7602,   after     8.7500
 1\1\GINC-HOLY7C08607\SP\UB97D3\Jul-CC-pVDZ\C8H16Cl3Fe1O1(6)\EKWAN\11-F
 eb-2020\0\\#t pop=none jul-cc-pvdz guess=read ub97d3 empiricaldispersi
 on=gd3bj\\theory_abbreviation b97d3_d3bj\\0,6\O,0,-0.307203,-0.158554,
 -0.452308\C,0,-1.170215,-1.104463,-0.221918\C,0,-2.627913,-0.260816,0.
 856682\C,0,-3.058508,0.675667,-0.072266\C,0,-4.164671,0.388192,-1.0313
 33\Fe,0,1.53261,0.174126,-0.099079\Cl,0,1.861942,2.130498,-1.030983\C,
 0,-2.34965,1.970057,-0.209553\Cl,0,2.5373,-1.540539,-1.037849\Cl,0,1.8
 29217,0.21705,2.085954\H,0,-3.266963,-1.138062,0.956154\H,0,-2.827814,
 2.645261,-0.922007\H,0,-2.214568,2.476126,0.751741\H,0,-1.32934,1.7326
 44,-0.567517\H,0,-4.995715,1.073,-0.808487\H,0,-3.863848,0.60377,-2.06
 4174\H,0,-4.537027,-0.635696,-0.962349\C,0,-1.929368,0.192749,2.127627
 \H,0,-2.537032,0.947378,2.639903\H,0,-1.792291,-0.641184,2.817425\H,0,
 -0.947387,0.627628,1.929149\C,0,-0.749197,-2.17439,0.777848\H,0,-1.577
 15,-2.824206,1.070582\H,0,0.003724,-2.781472,0.25833\H,0,-0.270334,-1.
 746675,1.657861\C,0,-1.825986,-1.664412,-1.472315\H,0,-1.080054,-2.310
 64,-1.950523\H,0,-2.710015,-2.267873,-1.250737\H,0,-2.07516,-0.873486,
 -2.180534\\Version=ES64L-G16RevA.03\HF=-3034.6187604\S2=8.760213\S2-1=
 0.\S2A=8.750033\RMSD=3.875e-09\PG=C01 [X(C8H16Cl3Fe1O1)]\\@


 SACRED COWS MAKE GREAT HAMBURGERS -- ROBERT REISNER
 Job cpu time:       0 days  0 hours 52 minutes 47.6 seconds.
 Elapsed time:       0 days  0 hours 13 minutes 14.2 seconds.
 File lengths (MBytes):  RWF=    174 Int=      0 D2E=      0 Chk=     13 Scr=      1
 Normal termination of Gaussian 16 at Tue Feb 11 23:53:07 2020.
