 Entering Gaussian System, Link 0=g16
 Input=simple-grid-215-235-b3lyp_d3bj-631gd-gas-singlepoint-DFT-juldz2-gas.gjf
 Output=simple-grid-215-235-b3lyp_d3bj-631gd-gas-singlepoint-DFT-juldz2-gas.out
 Initial command:
 /n/sw/g16_nehalem/g16/l1.exe "/scratch/Gau-359437.inp" -scrdir="/scratch/"
 Entering Link 1 = /n/sw/g16_nehalem/g16/l1.exe PID=    359446.
  
 Copyright (c) 1988,1990,1992,1993,1995,1998,2003,2009,2016,
            Gaussian, Inc.  All Rights Reserved.
  
 This is part of the Gaussian(R) 16 program.  It is based on
 the Gaussian(R) 09 system (copyright 2009, Gaussian, Inc.),
 the Gaussian(R) 03 system (copyright 2003, Gaussian, Inc.),
 the Gaussian(R) 98 system (copyright 1998, Gaussian, Inc.),
 the Gaussian(R) 94 system (copyright 1995, Gaussian, Inc.),
 the Gaussian 92(TM) system (copyright 1992, Gaussian, Inc.),
 the Gaussian 90(TM) system (copyright 1990, Gaussian, Inc.),
 the Gaussian 88(TM) system (copyright 1988, Gaussian, Inc.),
 the Gaussian 86(TM) system (copyright 1986, Carnegie Mellon
 University), and the Gaussian 82(TM) system (copyright 1983,
 Carnegie Mellon University). Gaussian is a federally registered
 trademark of Gaussian, Inc.
  
 This software contains proprietary and confidential information,
 including trade secrets, belonging to Gaussian, Inc.
  
 This software is provided under written license and may be
 used, copied, transmitted, or stored only in accord with that
 written license.
  
 The following legend is applicable only to US Government
 contracts under FAR:
  
                    RESTRICTED RIGHTS LEGEND
  
 Use, reproduction and disclosure by the US Government is
 subject to restrictions as set forth in subparagraphs (a)
 and (c) of the Commercial Computer Software - Restricted
 Rights clause in FAR 52.227-19.
  
 Gaussian, Inc.
 340 Quinnipiac St., Bldg. 40, Wallingford CT 06492
  
  
 ---------------------------------------------------------------
 Warning -- This program may not be used in any manner that
 competes with the business of Gaussian, Inc. or will provide
 assistance to any competitor of Gaussian, Inc.  The licensee
 of this program is prohibited from giving any competitor of
 Gaussian, Inc. access to this program.  By using this program,
 the user acknowledges that Gaussian, Inc. is engaged in the
 business of creating and licensing software in the field of
 computational chemistry and represents and warrants to the
 licensee that it is not a competitor of Gaussian, Inc. and that
 it will not use this program in any manner prohibited above.
 ---------------------------------------------------------------
  

 Cite this work as:
 Gaussian 16, Revision A.03,
 M. J. Frisch, G. W. Trucks, H. B. Schlegel, G. E. Scuseria, 
 M. A. Robb, J. R. Cheeseman, G. Scalmani, V. Barone, 
 G. A. Petersson, H. Nakatsuji, X. Li, M. Caricato, A. V. Marenich, 
 J. Bloino, B. G. Janesko, R. Gomperts, B. Mennucci, H. P. Hratchian, 
 J. V. Ortiz, A. F. Izmaylov, J. L. Sonnenberg, D. Williams-Young, 
 F. Ding, F. Lipparini, F. Egidi, J. Goings, B. Peng, A. Petrone, 
 T. Henderson, D. Ranasinghe, V. G. Zakrzewski, J. Gao, N. Rega, 
 G. Zheng, W. Liang, M. Hada, M. Ehara, K. Toyota, R. Fukuda, 
 J. Hasegawa, M. Ishida, T. Nakajima, Y. Honda, O. Kitao, H. Nakai, 
 T. Vreven, K. Throssell, J. A. Montgomery, Jr., J. E. Peralta, 
 F. Ogliaro, M. J. Bearpark, J. J. Heyd, E. N. Brothers, K. N. Kudin, 
 V. N. Staroverov, T. A. Keith, R. Kobayashi, J. Normand, 
 K. Raghavachari, A. P. Rendell, J. C. Burant, S. S. Iyengar, 
 J. Tomasi, M. Cossi, J. M. Millam, M. Klene, C. Adamo, R. Cammi, 
 J. W. Ochterski, R. L. Martin, K. Morokuma, O. Farkas, 
 J. B. Foresman, and D. J. Fox, Gaussian, Inc., Wallingford CT, 2016.
 
 ******************************************
 Gaussian 16:  ES64L-G16RevA.03 25-Dec-2016
                11-Feb-2020 
 ******************************************
 %chk=checkpoint.chk
 %mem=3GB
 %nprocshared=4
 Will use up to    4 processors via shared memory.
 --------------------------------
 #t pop=none jul-cc-pvdz upbe1pbe
 --------------------------------
 ------------------------
 theory_abbreviation pbe0
 ------------------------
 Symbolic Z-matrix:
 Charge =  0 Multiplicity = 6
 O                    -0.32531  -0.11977  -0.621 
 C                    -1.23933  -1.03716  -0.54811 
 C                    -3.05644  -0.06492   0.06454 
 C                    -2.31189   1.05845  -0.18758 
 C                    -2.27404   1.69382  -1.53854 
 Fe                    1.44283   0.06751   0.04524 
 Cl                    2.04258   2.02401  -0.74796 
 C                    -1.56786   1.79008   0.88145 
 Cl                    2.48369  -1.6943   -0.7584 
 Cl                    1.33838   0.0249    2.25247 
 H                    -3.6862   -0.42068  -0.74765 
 H                    -2.25292   2.53604   1.31139 
 H                    -1.22755   1.14793   1.6942 
 H                    -0.7084    2.32666   0.47235 
 H                    -2.62446   2.72987  -1.43955 
 H                    -1.24133   1.74201  -1.9005 
 H                    -2.90791   1.18775  -2.26961 
 C                    -3.48911  -0.50674   1.4409 
 H                    -4.39436   0.04389   1.72844 
 H                    -3.74215  -1.57005   1.46162 
 H                    -2.73589  -0.31994   2.20911 
 C                    -1.11549  -2.04751   0.56307 
 H                    -1.97823  -2.71075   0.63217 
 H                    -0.235    -2.65268   0.30189 
 H                    -0.907    -1.57773   1.52446 
 C                    -1.71308  -1.57353  -1.87929 
 H                    -0.87638  -2.17082  -2.26704 
 H                    -2.58925  -2.21847  -1.78622 
 H                    -1.8997   -0.77333  -2.5958 
 
                    Distance matrix (angstroms):
                    1          2          3          4          5
     1  O    0.000000
     2  C    1.297045   0.000000
     3  C    2.816390   2.150000   0.000000
     4  C    2.350005   2.381578   1.371089   0.000000
     5  C    2.815766   3.083798   2.505032   1.493393   0.000000
     6  Fe   1.898750   2.960789   4.501259   3.890246   4.355264
     7  Cl   3.196692   4.492392   5.569906   4.495301   4.400828
     8  C    2.729247   3.185092   2.514807   1.493887   2.522765
     9  Cl   3.223123   3.786411   5.833113   5.558868   5.892707
    10  Cl   3.323498   3.951680   4.910155   4.510716   5.496063
    11  H    3.376704   2.531212   1.087566   2.095283   2.662853
    12  H    3.808293   4.153649   2.994208   2.105627   2.971849
    13  H    2.789492   3.130926   2.733431   2.173681   3.441476
    14  H    2.706873   3.555056   3.376277   2.148261   2.625908
    15  H    3.751871   4.111412   3.203084   2.111583   1.098173
    16  H    2.437716   3.090754   3.228168   2.132480   1.095374
    17  H    3.331266   3.270769   2.653207   2.169520   1.091952
    18  C    3.796151   3.049428   1.508897   2.547078   3.898194
    19  H    4.701464   4.038011   2.137849   3.006184   4.229794
    20  H    4.256215   3.253783   2.165046   3.416794   4.670023
    21  H    3.722960   3.218124   2.183332   2.797109   4.279411
    22  C    2.396367   1.506937   2.818950   3.412007   4.444831
    23  H    3.318999   2.177146   2.912934   3.871716   4.919323
    24  H    2.697318   2.083532   3.835806   4.280833   5.141689
    25  H    2.658384   2.167534   3.006673   3.442998   4.685492
    26  C    2.371205   1.511353   2.803392   3.185553   3.332619
    27  H    2.686996   2.090850   3.824101   4.100365   4.173680
    28  H    3.299647   2.179614   2.877736   3.656603   3.932767
    29  H    2.608768   2.167657   2.986190   3.053660   2.710123
                    6          7          8          9         10
     6  Fe   0.000000
     7  Cl   2.194711   0.000000
     8  C    3.568009   3.967993   0.000000
     9  Cl   2.198459   3.744401   5.589727   0.000000
    10  Cl   2.210116   3.673547   3.666304   3.651401   0.000000
    11  H    5.212854   6.228595   3.468252   6.299978   5.869042
    12  H    4.621176   4.791073   1.100278   6.679465   4.482065
    13  H    3.319236   4.174380   1.090280   5.278911   2.856032
    14  H    3.148639   3.024673   1.092679   5.279421   3.557564
    15  H    5.082865   4.770512   2.717846   6.791936   6.054092
    16  H    3.714098   3.491693   2.801467   5.195037   5.181756
    17  H    5.053941   5.246152   3.476745   6.297561   6.311296
    18  C    5.157673   6.464934   3.046234   6.474684   4.924015
    19  H    6.075067   7.175488   3.428656   7.517527   5.756676
    20  H    5.618868   7.159789   4.044076   6.610976   5.383407
    21  H    4.721663   6.088687   2.753019   6.159464   4.089071
    22  C    3.359533   5.316908   3.877250   3.850345   3.629114
    23  H    4.445993   6.363149   4.526369   4.782842   4.594461
    24  H    3.206309   5.306696   4.674453   3.071478   3.667385
    25  H    3.227478   5.180394   3.491752   4.089233   2.853097
    26  C    4.044323   5.322330   4.353922   4.345554   5.379390
    27  H    3.966798   5.331472   5.106844   3.713913   5.491115
    28  H    4.983727   6.366351   4.922210   5.202485   6.063828
    29  H    4.342181   5.175055   4.332722   4.841310   5.884562
                   11         12         13         14         15
    11  H    0.000000
    12  H    3.877641   0.000000
    13  H    3.803694   1.767695   0.000000
    14  H    4.231252   1.770129   1.775339   0.000000
    15  H    3.395873   2.782679   3.778131   2.736644   0.000000
    16  H    3.461749   3.459774   3.643491   2.501247   1.761073
    17  H    2.347156   3.882072   4.305461   3.695036   1.774112
    18  C    2.199091   3.286858   2.813666   4.086384   4.418174
    19  H    2.616925   3.312181   3.353916   4.513877   4.514776
    20  H    2.490993   4.370390   3.710078   5.036522   5.306156
    21  H    3.107347   3.032451   2.166760   3.759187   4.756724
    22  C    3.312562   4.781489   3.391590   4.394004   5.395441
    23  H    3.172616   5.297700   4.071965   5.197451   5.857473
    24  H    4.241951   5.658084   4.167539   5.004695   6.141171
    25  H    3.771629   4.333591   2.749696   4.048534   5.503677
    26  C    2.550073   5.230718   4.517957   4.663799   4.420769
    27  H    3.642334   6.070793   5.179661   5.268754   5.268514
    28  H    2.348187   5.684509   5.029932   5.412656   4.960585
    29  H    2.594536   5.132527   4.748384   4.521354   3.759599
                   16         17         18         19         20
    16  H    0.000000
    17  H    1.794701   0.000000
    18  C    4.612418   4.120315   0.000000
    19  H    5.098476   4.416145   1.097883   0.000000
    20  H    5.341136   4.714179   1.093197   1.761062   0.000000
    21  H    4.834691   4.728805   1.091953   1.764633   1.770325
    22  C    4.521671   4.658723   2.962871   4.059923   2.816858
    23  H    5.175384   4.948024   2.791860   3.824595   2.258455
    24  H    5.017630   5.339099   4.060990   5.158178   3.849309
    25  H    4.781514   5.103577   2.796655   3.851354   2.835855
    26  C    3.349006   3.033911   3.913565   4.777130   3.908813
    27  H    3.946876   3.925186   4.831596   5.765838   4.740933
    28  H    4.185134   3.455066   3.762195   4.552966   3.506871
    29  H    2.691443   2.229063   4.346523   5.058676   4.526815
                   21         22         23         24         25
    21  H    0.000000
    22  C    2.884377   0.000000
    23  H    2.962563   1.090403   0.000000
    24  H    3.915818   1.099873   1.775193   0.000000
    25  H    2.322849   1.090155   1.796511   1.761187   0.000000
    26  C    4.396885   2.558685   2.769657   2.847252   3.497899
    27  H    5.188390   2.842864   3.148172   2.691276   3.837728
    28  H    4.425898   2.778551   2.542503   3.176675   3.768439
    29  H    4.898152   3.495274   3.765574   3.834031   4.313821
                   26         27         28         29
    26  C    0.000000
    27  H    1.098711   0.000000
    28  H    1.091911   1.779704   0.000000
    29  H    1.090197   1.763017   1.794240   0.000000
 Framework group  C1[X(C8H16Cl3FeO)]
 Deg. of freedom    81
                         Standard orientation:                         
 ---------------------------------------------------------------------
 Center     Atomic      Atomic             Coordinates (Angstroms)
 Number     Number       Type             X           Y           Z
 ---------------------------------------------------------------------
      1          8           0       -0.325312   -0.119771   -0.620997
      2          6           0       -1.239325   -1.037155   -0.548106
      3          6           0       -3.056444   -0.064921    0.064542
      4          6           0       -2.311887    1.058446   -0.187580
      5          6           0       -2.274043    1.693817   -1.538541
      6         26           0        1.442825    0.067512    0.045236
      7         17           0        2.042581    2.024011   -0.747960
      8          6           0       -1.567856    1.790076    0.881454
      9         17           0        2.483690   -1.694302   -0.758402
     10         17           0        1.338384    0.024896    2.252472
     11          1           0       -3.686196   -0.420679   -0.747646
     12          1           0       -2.252915    2.536039    1.311389
     13          1           0       -1.227554    1.147934    1.694202
     14          1           0       -0.708401    2.326655    0.472348
     15          1           0       -2.624458    2.729865   -1.439554
     16          1           0       -1.241326    1.742014   -1.900503
     17          1           0       -2.907908    1.187745   -2.269612
     18          6           0       -3.489105   -0.506739    1.440904
     19          1           0       -4.394359    0.043885    1.728436
     20          1           0       -3.742147   -1.570045    1.461624
     21          1           0       -2.735890   -0.319937    2.209105
     22          6           0       -1.115493   -2.047510    0.563068
     23          1           0       -1.978228   -2.710754    0.632170
     24          1           0       -0.234997   -2.652683    0.301893
     25          1           0       -0.906999   -1.577733    1.524462
     26          6           0       -1.713079   -1.573531   -1.879288
     27          1           0       -0.876384   -2.170824   -2.267037
     28          1           0       -2.589246   -2.218466   -1.786224
     29          1           0       -1.899696   -0.773334   -2.595799
 ---------------------------------------------------------------------
 Rotational constants (GHZ):           0.5859353           0.3383895           0.3169317
   427 basis functions,  1056 primitive gaussians,   461 cartesian basis functions
    77 alpha electrons       72 beta electrons
       nuclear repulsion energy      1650.1817977026 Hartrees.
 NAtoms=   29 NActive=   29 NUniq=   29 SFac= 1.00D+00 NAtFMM=   60 NAOKFM=F Big=F
 ExpMin= 1.40D-02 ExpMax= 4.32D+06 ExpMxC= 4.91D+03 IAcc=3 IRadAn=         5 AccDes= 0.00D+00
 Harris functional with IExCor= 1009 and IRadAn=       5 diagonalized for initial guess.
 HarFok:  IExCor= 1009 AccDes= 0.00D+00 IRadAn=         5 IDoV= 1 UseB2=F ITyADJ=14
 ICtDFT=  3500011 ScaDFX=  1.000000  1.000000  1.000000  1.000000
 FoFCou: FMM=F IPFlag=           0 FMFlag=      100000 FMFlg1=           0
         NFxFlg=           0 DoJE=T BraDBF=F KetDBF=T FulRan=T
         wScrn=  0.000000 ICntrl=       500 IOpCl=  0 I1Cent=   200000004 NGrid=           0
         NMat0=    1 NMatS0=      1 NMatT0=    0 NMatD0=    1 NMtDS0=    0 NMtDT0=    0
 Petite list used in FoFCou.
 Initial guess <Sx>= 0.0000 <Sy>= 0.0000 <Sz>= 2.5000 <S**2>= 8.7500 S= 2.5000
 EnCoef did   100 forward-backward iterations
 SCF Done:  E(UPBE1PBE) =  -3033.10806476     A.U. after   20 cycles
            NFock= 20  Conv=0.48D-08     -V/T= 2.0021
 <Sx>= 0.0000 <Sy>= 0.0000 <Sz>= 2.5000 <S**2>= 8.7624 S= 2.5021
 <L.S>= 0.000000000000E+00
 Annihilation of the first spin contaminant:
 S**2 before annihilation     8.7624,   after     8.7500
 1\1\GINC-HOLY7C04212\SP\UPBE1PBE\Jul-CC-pVDZ\C8H16Cl3Fe1O1(6)\EKWAN\11
 -Feb-2020\0\\#t pop=none jul-cc-pvdz upbe1pbe\\theory_abbreviation pbe
 0\\0,6\O,0,-0.325312,-0.119771,-0.620997\C,0,-1.239325,-1.037155,-0.54
 8106\C,0,-3.056444,-0.064921,0.064542\C,0,-2.311887,1.058446,-0.18758\
 C,0,-2.274043,1.693817,-1.538541\Fe,0,1.442825,0.067512,0.045236\Cl,0,
 2.042581,2.024011,-0.74796\C,0,-1.567856,1.790076,0.881454\Cl,0,2.4836
 9,-1.694302,-0.758402\Cl,0,1.338384,0.024896,2.252472\H,0,-3.686196,-0
 .420679,-0.747646\H,0,-2.252915,2.536039,1.311389\H,0,-1.227554,1.1479
 34,1.694202\H,0,-0.708401,2.326655,0.472348\H,0,-2.624458,2.729865,-1.
 439554\H,0,-1.241326,1.742014,-1.900503\H,0,-2.907908,1.187745,-2.2696
 12\C,0,-3.489105,-0.506739,1.440904\H,0,-4.394359,0.043885,1.728436\H,
 0,-3.742147,-1.570045,1.461624\H,0,-2.73589,-0.319937,2.209105\C,0,-1.
 115493,-2.04751,0.563068\H,0,-1.978228,-2.710754,0.63217\H,0,-0.234997
 ,-2.652683,0.301893\H,0,-0.906999,-1.577733,1.524462\C,0,-1.713079,-1.
 573531,-1.879288\H,0,-0.876384,-2.170824,-2.267037\H,0,-2.589246,-2.21
 8466,-1.786224\H,0,-1.899696,-0.773334,-2.595799\\Version=ES64L-G16Rev
 A.03\HF=-3033.1080648\S2=8.762444\S2-1=0.\S2A=8.750048\RMSD=4.756e-09\
 PG=C01 [X(C8H16Cl3Fe1O1)]\\@


 The hours that make us happy make us wise.
                         -- John Masefield
 Job cpu time:       0 days  1 hours 24 minutes 40.2 seconds.
 Elapsed time:       0 days  0 hours 21 minutes 15.7 seconds.
 File lengths (MBytes):  RWF=    173 Int=      0 D2E=      0 Chk=     13 Scr=      1
 Normal termination of Gaussian 16 at Tue Feb 11 13:57:51 2020.
 Initial command:
 /n/sw/g16_nehalem/g16/l1.exe "/scratch/Gau-359437.inp" -scrdir="/scratch/"
 Entering Link 1 = /n/sw/g16_nehalem/g16/l1.exe PID=    360977.
  
 Copyright (c) 1988,1990,1992,1993,1995,1998,2003,2009,2016,
            Gaussian, Inc.  All Rights Reserved.
  
 This is part of the Gaussian(R) 16 program.  It is based on
 the Gaussian(R) 09 system (copyright 2009, Gaussian, Inc.),
 the Gaussian(R) 03 system (copyright 2003, Gaussian, Inc.),
 the Gaussian(R) 98 system (copyright 1998, Gaussian, Inc.),
 the Gaussian(R) 94 system (copyright 1995, Gaussian, Inc.),
 the Gaussian 92(TM) system (copyright 1992, Gaussian, Inc.),
 the Gaussian 90(TM) system (copyright 1990, Gaussian, Inc.),
 the Gaussian 88(TM) system (copyright 1988, Gaussian, Inc.),
 the Gaussian 86(TM) system (copyright 1986, Carnegie Mellon
 University), and the Gaussian 82(TM) system (copyright 1983,
 Carnegie Mellon University). Gaussian is a federally registered
 trademark of Gaussian, Inc.
  
 This software contains proprietary and confidential information,
 including trade secrets, belonging to Gaussian, Inc.
  
 This software is provided under written license and may be
 used, copied, transmitted, or stored only in accord with that
 written license.
  
 The following legend is applicable only to US Government
 contracts under FAR:
  
                    RESTRICTED RIGHTS LEGEND
  
 Use, reproduction and disclosure by the US Government is
 subject to restrictions as set forth in subparagraphs (a)
 and (c) of the Commercial Computer Software - Restricted
 Rights clause in FAR 52.227-19.
  
 Gaussian, Inc.
 340 Quinnipiac St., Bldg. 40, Wallingford CT 06492
  
  
 ---------------------------------------------------------------
 Warning -- This program may not be used in any manner that
 competes with the business of Gaussian, Inc. or will provide
 assistance to any competitor of Gaussian, Inc.  The licensee
 of this program is prohibited from giving any competitor of
 Gaussian, Inc. access to this program.  By using this program,
 the user acknowledges that Gaussian, Inc. is engaged in the
 business of creating and licensing software in the field of
 computational chemistry and represents and warrants to the
 licensee that it is not a competitor of Gaussian, Inc. and that
 it will not use this program in any manner prohibited above.
 ---------------------------------------------------------------
  

 Cite this work as:
 Gaussian 16, Revision A.03,
 M. J. Frisch, G. W. Trucks, H. B. Schlegel, G. E. Scuseria, 
 M. A. Robb, J. R. Cheeseman, G. Scalmani, V. Barone, 
 G. A. Petersson, H. Nakatsuji, X. Li, M. Caricato, A. V. Marenich, 
 J. Bloino, B. G. Janesko, R. Gomperts, B. Mennucci, H. P. Hratchian, 
 J. V. Ortiz, A. F. Izmaylov, J. L. Sonnenberg, D. Williams-Young, 
 F. Ding, F. Lipparini, F. Egidi, J. Goings, B. Peng, A. Petrone, 
 T. Henderson, D. Ranasinghe, V. G. Zakrzewski, J. Gao, N. Rega, 
 G. Zheng, W. Liang, M. Hada, M. Ehara, K. Toyota, R. Fukuda, 
 J. Hasegawa, M. Ishida, T. Nakajima, Y. Honda, O. Kitao, H. Nakai, 
 T. Vreven, K. Throssell, J. A. Montgomery, Jr., J. E. Peralta, 
 F. Ogliaro, M. J. Bearpark, J. J. Heyd, E. N. Brothers, K. N. Kudin, 
 V. N. Staroverov, T. A. Keith, R. Kobayashi, J. Normand, 
 K. Raghavachari, A. P. Rendell, J. C. Burant, S. S. Iyengar, 
 J. Tomasi, M. Cossi, J. M. Millam, M. Klene, C. Adamo, R. Cammi, 
 J. W. Ochterski, R. L. Martin, K. Morokuma, O. Farkas, 
 J. B. Foresman, and D. J. Fox, Gaussian, Inc., Wallingford CT, 2016.
 
 ******************************************
 Gaussian 16:  ES64L-G16RevA.03 25-Dec-2016
                11-Feb-2020 
 ******************************************
 %chk=checkpoint.chk
 %mem=3GB
 %nprocshared=4
 Will use up to    4 processors via shared memory.
 ---------------------------------------------------------------------
 #t pop=none jul-cc-pvdz guess=read upbe1pbe empiricaldispersion=gd3bj
 ---------------------------------------------------------------------
 -----------------------------
 theory_abbreviation pbe0_d3bj
 -----------------------------
 Symbolic Z-matrix:
 Charge =  0 Multiplicity = 6
 O                    -0.32531  -0.11977  -0.621 
 C                    -1.23933  -1.03716  -0.54811 
 C                    -3.05644  -0.06492   0.06454 
 C                    -2.31189   1.05845  -0.18758 
 C                    -2.27404   1.69382  -1.53854 
 Fe                    1.44283   0.06751   0.04524 
 Cl                    2.04258   2.02401  -0.74796 
 C                    -1.56786   1.79008   0.88145 
 Cl                    2.48369  -1.6943   -0.7584 
 Cl                    1.33838   0.0249    2.25247 
 H                    -3.6862   -0.42068  -0.74765 
 H                    -2.25292   2.53604   1.31139 
 H                    -1.22755   1.14793   1.6942 
 H                    -0.7084    2.32666   0.47235 
 H                    -2.62446   2.72987  -1.43955 
 H                    -1.24133   1.74201  -1.9005 
 H                    -2.90791   1.18775  -2.26961 
 C                    -3.48911  -0.50674   1.4409 
 H                    -4.39436   0.04389   1.72844 
 H                    -3.74215  -1.57005   1.46162 
 H                    -2.73589  -0.31994   2.20911 
 C                    -1.11549  -2.04751   0.56307 
 H                    -1.97823  -2.71075   0.63217 
 H                    -0.235    -2.65268   0.30189 
 H                    -0.907    -1.57773   1.52446 
 C                    -1.71308  -1.57353  -1.87929 
 H                    -0.87638  -2.17082  -2.26704 
 H                    -2.58925  -2.21847  -1.78622 
 H                    -1.8997   -0.77333  -2.5958 
 
                    Distance matrix (angstroms):
                    1          2          3          4          5
     1  O    0.000000
     2  C    1.297045   0.000000
     3  C    2.816390   2.150000   0.000000
     4  C    2.350005   2.381578   1.371089   0.000000
     5  C    2.815766   3.083798   2.505032   1.493393   0.000000
     6  Fe   1.898750   2.960789   4.501259   3.890246   4.355264
     7  Cl   3.196692   4.492392   5.569906   4.495301   4.400828
     8  C    2.729247   3.185092   2.514807   1.493887   2.522765
     9  Cl   3.223123   3.786411   5.833113   5.558868   5.892707
    10  Cl   3.323498   3.951680   4.910155   4.510716   5.496063
    11  H    3.376704   2.531212   1.087566   2.095283   2.662853
    12  H    3.808293   4.153649   2.994208   2.105627   2.971849
    13  H    2.789492   3.130926   2.733431   2.173681   3.441476
    14  H    2.706873   3.555056   3.376277   2.148261   2.625908
    15  H    3.751871   4.111412   3.203084   2.111583   1.098173
    16  H    2.437716   3.090754   3.228168   2.132480   1.095374
    17  H    3.331266   3.270769   2.653207   2.169520   1.091952
    18  C    3.796151   3.049428   1.508897   2.547078   3.898194
    19  H    4.701464   4.038011   2.137849   3.006184   4.229794
    20  H    4.256215   3.253783   2.165046   3.416794   4.670023
    21  H    3.722960   3.218124   2.183332   2.797109   4.279411
    22  C    2.396367   1.506937   2.818950   3.412007   4.444831
    23  H    3.318999   2.177146   2.912934   3.871716   4.919323
    24  H    2.697318   2.083532   3.835806   4.280833   5.141689
    25  H    2.658384   2.167534   3.006673   3.442998   4.685492
    26  C    2.371205   1.511353   2.803392   3.185553   3.332619
    27  H    2.686996   2.090850   3.824101   4.100365   4.173680
    28  H    3.299647   2.179614   2.877736   3.656603   3.932767
    29  H    2.608768   2.167657   2.986190   3.053660   2.710123
                    6          7          8          9         10
     6  Fe   0.000000
     7  Cl   2.194711   0.000000
     8  C    3.568009   3.967993   0.000000
     9  Cl   2.198459   3.744401   5.589727   0.000000
    10  Cl   2.210116   3.673547   3.666304   3.651401   0.000000
    11  H    5.212854   6.228595   3.468252   6.299978   5.869042
    12  H    4.621176   4.791073   1.100278   6.679465   4.482065
    13  H    3.319236   4.174380   1.090280   5.278911   2.856032
    14  H    3.148639   3.024673   1.092679   5.279421   3.557564
    15  H    5.082865   4.770512   2.717846   6.791936   6.054092
    16  H    3.714098   3.491693   2.801467   5.195037   5.181756
    17  H    5.053941   5.246152   3.476745   6.297561   6.311296
    18  C    5.157673   6.464934   3.046234   6.474684   4.924015
    19  H    6.075067   7.175488   3.428656   7.517527   5.756676
    20  H    5.618868   7.159789   4.044076   6.610976   5.383407
    21  H    4.721663   6.088687   2.753019   6.159464   4.089071
    22  C    3.359533   5.316908   3.877250   3.850345   3.629114
    23  H    4.445993   6.363149   4.526369   4.782842   4.594461
    24  H    3.206309   5.306696   4.674453   3.071478   3.667385
    25  H    3.227478   5.180394   3.491752   4.089233   2.853097
    26  C    4.044323   5.322330   4.353922   4.345554   5.379390
    27  H    3.966798   5.331472   5.106844   3.713913   5.491115
    28  H    4.983727   6.366351   4.922210   5.202485   6.063828
    29  H    4.342181   5.175055   4.332722   4.841310   5.884562
                   11         12         13         14         15
    11  H    0.000000
    12  H    3.877641   0.000000
    13  H    3.803694   1.767695   0.000000
    14  H    4.231252   1.770129   1.775339   0.000000
    15  H    3.395873   2.782679   3.778131   2.736644   0.000000
    16  H    3.461749   3.459774   3.643491   2.501247   1.761073
    17  H    2.347156   3.882072   4.305461   3.695036   1.774112
    18  C    2.199091   3.286858   2.813666   4.086384   4.418174
    19  H    2.616925   3.312181   3.353916   4.513877   4.514776
    20  H    2.490993   4.370390   3.710078   5.036522   5.306156
    21  H    3.107347   3.032451   2.166760   3.759187   4.756724
    22  C    3.312562   4.781489   3.391590   4.394004   5.395441
    23  H    3.172616   5.297700   4.071965   5.197451   5.857473
    24  H    4.241951   5.658084   4.167539   5.004695   6.141171
    25  H    3.771629   4.333591   2.749696   4.048534   5.503677
    26  C    2.550073   5.230718   4.517957   4.663799   4.420769
    27  H    3.642334   6.070793   5.179661   5.268754   5.268514
    28  H    2.348187   5.684509   5.029932   5.412656   4.960585
    29  H    2.594536   5.132527   4.748384   4.521354   3.759599
                   16         17         18         19         20
    16  H    0.000000
    17  H    1.794701   0.000000
    18  C    4.612418   4.120315   0.000000
    19  H    5.098476   4.416145   1.097883   0.000000
    20  H    5.341136   4.714179   1.093197   1.761062   0.000000
    21  H    4.834691   4.728805   1.091953   1.764633   1.770325
    22  C    4.521671   4.658723   2.962871   4.059923   2.816858
    23  H    5.175384   4.948024   2.791860   3.824595   2.258455
    24  H    5.017630   5.339099   4.060990   5.158178   3.849309
    25  H    4.781514   5.103577   2.796655   3.851354   2.835855
    26  C    3.349006   3.033911   3.913565   4.777130   3.908813
    27  H    3.946876   3.925186   4.831596   5.765838   4.740933
    28  H    4.185134   3.455066   3.762195   4.552966   3.506871
    29  H    2.691443   2.229063   4.346523   5.058676   4.526815
                   21         22         23         24         25
    21  H    0.000000
    22  C    2.884377   0.000000
    23  H    2.962563   1.090403   0.000000
    24  H    3.915818   1.099873   1.775193   0.000000
    25  H    2.322849   1.090155   1.796511   1.761187   0.000000
    26  C    4.396885   2.558685   2.769657   2.847252   3.497899
    27  H    5.188390   2.842864   3.148172   2.691276   3.837728
    28  H    4.425898   2.778551   2.542503   3.176675   3.768439
    29  H    4.898152   3.495274   3.765574   3.834031   4.313821
                   26         27         28         29
    26  C    0.000000
    27  H    1.098711   0.000000
    28  H    1.091911   1.779704   0.000000
    29  H    1.090197   1.763017   1.794240   0.000000
 Framework group  C1[X(C8H16Cl3FeO)]
 Deg. of freedom    81
                         Standard orientation:                         
 ---------------------------------------------------------------------
 Center     Atomic      Atomic             Coordinates (Angstroms)
 Number     Number       Type             X           Y           Z
 ---------------------------------------------------------------------
      1          8           0       -0.325312   -0.119771   -0.620997
      2          6           0       -1.239325   -1.037155   -0.548106
      3          6           0       -3.056444   -0.064921    0.064542
      4          6           0       -2.311887    1.058446   -0.187580
      5          6           0       -2.274043    1.693817   -1.538541
      6         26           0        1.442825    0.067512    0.045236
      7         17           0        2.042581    2.024011   -0.747960
      8          6           0       -1.567856    1.790076    0.881454
      9         17           0        2.483690   -1.694302   -0.758402
     10         17           0        1.338384    0.024896    2.252472
     11          1           0       -3.686196   -0.420679   -0.747646
     12          1           0       -2.252915    2.536039    1.311389
     13          1           0       -1.227554    1.147934    1.694202
     14          1           0       -0.708401    2.326655    0.472348
     15          1           0       -2.624458    2.729865   -1.439554
     16          1           0       -1.241326    1.742014   -1.900503
     17          1           0       -2.907908    1.187745   -2.269612
     18          6           0       -3.489105   -0.506739    1.440904
     19          1           0       -4.394359    0.043885    1.728436
     20          1           0       -3.742147   -1.570045    1.461624
     21          1           0       -2.735890   -0.319937    2.209105
     22          6           0       -1.115493   -2.047510    0.563068
     23          1           0       -1.978228   -2.710754    0.632170
     24          1           0       -0.234997   -2.652683    0.301893
     25          1           0       -0.906999   -1.577733    1.524462
     26          6           0       -1.713079   -1.573531   -1.879288
     27          1           0       -0.876384   -2.170824   -2.267037
     28          1           0       -2.589246   -2.218466   -1.786224
     29          1           0       -1.899696   -0.773334   -2.595799
 ---------------------------------------------------------------------
 Rotational constants (GHZ):           0.5859353           0.3383895           0.3169317
   427 basis functions,  1056 primitive gaussians,   461 cartesian basis functions
    77 alpha electrons       72 beta electrons
       nuclear repulsion energy      1650.1817977026 Hartrees.
 NAtoms=   29 NActive=   29 NUniq=   29 SFac= 1.00D+00 NAtFMM=   60 NAOKFM=F Big=F
 Nuclear repulsion after empirical dispersion term =     1650.1439641280 Hartrees.
 Initial guess from the checkpoint file:  "checkpoint.chk"
 B after Tr=     0.000000    0.000000    0.000000
         Rot=    1.000000    0.000000    0.000000    0.000000 Ang=   0.00 deg.
 Initial guess <Sx>= 0.0000 <Sy>= 0.0000 <Sz>= 2.5000 <S**2>= 8.7624 S= 2.5021
 SCF Done:  E(UPBE1PBE) =  -3033.14589834     A.U. after    1 cycles
            NFock=  1  Conv=0.21D-08     -V/T= 2.0021
 <Sx>= 0.0000 <Sy>= 0.0000 <Sz>= 2.5000 <S**2>= 8.7624 S= 2.5021
 <L.S>= 0.000000000000E+00
 Annihilation of the first spin contaminant:
 S**2 before annihilation     8.7624,   after     8.7500
 1\1\GINC-HOLY7C04212\SP\UPBE1PBE\Jul-CC-pVDZ\C8H16Cl3Fe1O1(6)\EKWAN\11
 -Feb-2020\0\\#t pop=none jul-cc-pvdz guess=read upbe1pbe empiricaldisp
 ersion=gd3bj\\theory_abbreviation pbe0_d3bj\\0,6\O,0,-0.325312,-0.1197
 71,-0.620997\C,0,-1.239325,-1.037155,-0.548106\C,0,-3.056444,-0.064921
 ,0.064542\C,0,-2.311887,1.058446,-0.18758\C,0,-2.274043,1.693817,-1.53
 8541\Fe,0,1.442825,0.067512,0.045236\Cl,0,2.042581,2.024011,-0.74796\C
 ,0,-1.567856,1.790076,0.881454\Cl,0,2.48369,-1.694302,-0.758402\Cl,0,1
 .338384,0.024896,2.252472\H,0,-3.686196,-0.420679,-0.747646\H,0,-2.252
 915,2.536039,1.311389\H,0,-1.227554,1.147934,1.694202\H,0,-0.708401,2.
 326655,0.472348\H,0,-2.624458,2.729865,-1.439554\H,0,-1.241326,1.74201
 4,-1.900503\H,0,-2.907908,1.187745,-2.269612\C,0,-3.489105,-0.506739,1
 .440904\H,0,-4.394359,0.043885,1.728436\H,0,-3.742147,-1.570045,1.4616
 24\H,0,-2.73589,-0.319937,2.209105\C,0,-1.115493,-2.04751,0.563068\H,0
 ,-1.978228,-2.710754,0.63217\H,0,-0.234997,-2.652683,0.301893\H,0,-0.9
 06999,-1.577733,1.524462\C,0,-1.713079,-1.573531,-1.879288\H,0,-0.8763
 84,-2.170824,-2.267037\H,0,-2.589246,-2.218466,-1.786224\H,0,-1.899696
 ,-0.773334,-2.595799\\Version=ES64L-G16RevA.03\HF=-3033.1458983\S2=8.7
 62444\S2-1=0.\S2A=8.750048\RMSD=2.132e-09\PG=C01 [X(C8H16Cl3Fe1O1)]\\@


            THE IRISH PIG
 'TWAS AN EVENING IN NOVEMBER,
 AS I VERY WELL REMEMBER
 I WAS STROLLING DOWN THE STREET IN DRUNKEN PRIDE,
 BUT MY KNEES WERE ALL A'FLUTTER
 SO I LANDED IN THE GUTTER,
 AND A PIG CAME UP AND LAY DOWN BY MY SIDE.

 YES, I LAY THERE IN THE GUTTER
 THINKING THOUGHTS I COULD NOT UTTER
 WHEN A COLLEEN PASSING BY DID SOFTLY SAY,
 'YE CAN TELL A MAN THAT BOOZES
 BY THE COMPANY THAT HE CHOOSES.' -
 AT THAT, THE PIG GOT UP AND WALKED AWAY!
     -- THE ECONOMIST, AUGUST 23, 1986
 Job cpu time:       0 days  0 hours  4 minutes 36.4 seconds.
 Elapsed time:       0 days  0 hours  1 minutes 10.7 seconds.
 File lengths (MBytes):  RWF=    170 Int=      0 D2E=      0 Chk=     13 Scr=      1
 Normal termination of Gaussian 16 at Tue Feb 11 13:59:02 2020.
 Initial command:
 /n/sw/g16_nehalem/g16/l1.exe "/scratch/Gau-359437.inp" -scrdir="/scratch/"
 Entering Link 1 = /n/sw/g16_nehalem/g16/l1.exe PID=    361294.
  
 Copyright (c) 1988,1990,1992,1993,1995,1998,2003,2009,2016,
            Gaussian, Inc.  All Rights Reserved.
  
 This is part of the Gaussian(R) 16 program.  It is based on
 the Gaussian(R) 09 system (copyright 2009, Gaussian, Inc.),
 the Gaussian(R) 03 system (copyright 2003, Gaussian, Inc.),
 the Gaussian(R) 98 system (copyright 1998, Gaussian, Inc.),
 the Gaussian(R) 94 system (copyright 1995, Gaussian, Inc.),
 the Gaussian 92(TM) system (copyright 1992, Gaussian, Inc.),
 the Gaussian 90(TM) system (copyright 1990, Gaussian, Inc.),
 the Gaussian 88(TM) system (copyright 1988, Gaussian, Inc.),
 the Gaussian 86(TM) system (copyright 1986, Carnegie Mellon
 University), and the Gaussian 82(TM) system (copyright 1983,
 Carnegie Mellon University). Gaussian is a federally registered
 trademark of Gaussian, Inc.
  
 This software contains proprietary and confidential information,
 including trade secrets, belonging to Gaussian, Inc.
  
 This software is provided under written license and may be
 used, copied, transmitted, or stored only in accord with that
 written license.
  
 The following legend is applicable only to US Government
 contracts under FAR:
  
                    RESTRICTED RIGHTS LEGEND
  
 Use, reproduction and disclosure by the US Government is
 subject to restrictions as set forth in subparagraphs (a)
 and (c) of the Commercial Computer Software - Restricted
 Rights clause in FAR 52.227-19.
  
 Gaussian, Inc.
 340 Quinnipiac St., Bldg. 40, Wallingford CT 06492
  
  
 ---------------------------------------------------------------
 Warning -- This program may not be used in any manner that
 competes with the business of Gaussian, Inc. or will provide
 assistance to any competitor of Gaussian, Inc.  The licensee
 of this program is prohibited from giving any competitor of
 Gaussian, Inc. access to this program.  By using this program,
 the user acknowledges that Gaussian, Inc. is engaged in the
 business of creating and licensing software in the field of
 computational chemistry and represents and warrants to the
 licensee that it is not a competitor of Gaussian, Inc. and that
 it will not use this program in any manner prohibited above.
 ---------------------------------------------------------------
  

 Cite this work as:
 Gaussian 16, Revision A.03,
 M. J. Frisch, G. W. Trucks, H. B. Schlegel, G. E. Scuseria, 
 M. A. Robb, J. R. Cheeseman, G. Scalmani, V. Barone, 
 G. A. Petersson, H. Nakatsuji, X. Li, M. Caricato, A. V. Marenich, 
 J. Bloino, B. G. Janesko, R. Gomperts, B. Mennucci, H. P. Hratchian, 
 J. V. Ortiz, A. F. Izmaylov, J. L. Sonnenberg, D. Williams-Young, 
 F. Ding, F. Lipparini, F. Egidi, J. Goings, B. Peng, A. Petrone, 
 T. Henderson, D. Ranasinghe, V. G. Zakrzewski, J. Gao, N. Rega, 
 G. Zheng, W. Liang, M. Hada, M. Ehara, K. Toyota, R. Fukuda, 
 J. Hasegawa, M. Ishida, T. Nakajima, Y. Honda, O. Kitao, H. Nakai, 
 T. Vreven, K. Throssell, J. A. Montgomery, Jr., J. E. Peralta, 
 F. Ogliaro, M. J. Bearpark, J. J. Heyd, E. N. Brothers, K. N. Kudin, 
 V. N. Staroverov, T. A. Keith, R. Kobayashi, J. Normand, 
 K. Raghavachari, A. P. Rendell, J. C. Burant, S. S. Iyengar, 
 J. Tomasi, M. Cossi, J. M. Millam, M. Klene, C. Adamo, R. Cammi, 
 J. W. Ochterski, R. L. Martin, K. Morokuma, O. Farkas, 
 J. B. Foresman, and D. J. Fox, Gaussian, Inc., Wallingford CT, 2016.
 
 ******************************************
 Gaussian 16:  ES64L-G16RevA.03 25-Dec-2016
                11-Feb-2020 
 ******************************************
 %chk=checkpoint.chk
 %mem=3GB
 %nprocshared=4
 Will use up to    4 processors via shared memory.
 -----------------------------------------
 #t pop=none jul-cc-pvdz guess=read ub3lyp
 -----------------------------------------
 -------------------------
 theory_abbreviation b3lyp
 -------------------------
 Symbolic Z-matrix:
 Charge =  0 Multiplicity = 6
 O                    -0.32531  -0.11977  -0.621 
 C                    -1.23933  -1.03716  -0.54811 
 C                    -3.05644  -0.06492   0.06454 
 C                    -2.31189   1.05845  -0.18758 
 C                    -2.27404   1.69382  -1.53854 
 Fe                    1.44283   0.06751   0.04524 
 Cl                    2.04258   2.02401  -0.74796 
 C                    -1.56786   1.79008   0.88145 
 Cl                    2.48369  -1.6943   -0.7584 
 Cl                    1.33838   0.0249    2.25247 
 H                    -3.6862   -0.42068  -0.74765 
 H                    -2.25292   2.53604   1.31139 
 H                    -1.22755   1.14793   1.6942 
 H                    -0.7084    2.32666   0.47235 
 H                    -2.62446   2.72987  -1.43955 
 H                    -1.24133   1.74201  -1.9005 
 H                    -2.90791   1.18775  -2.26961 
 C                    -3.48911  -0.50674   1.4409 
 H                    -4.39436   0.04389   1.72844 
 H                    -3.74215  -1.57005   1.46162 
 H                    -2.73589  -0.31994   2.20911 
 C                    -1.11549  -2.04751   0.56307 
 H                    -1.97823  -2.71075   0.63217 
 H                    -0.235    -2.65268   0.30189 
 H                    -0.907    -1.57773   1.52446 
 C                    -1.71308  -1.57353  -1.87929 
 H                    -0.87638  -2.17082  -2.26704 
 H                    -2.58925  -2.21847  -1.78622 
 H                    -1.8997   -0.77333  -2.5958 
 
                    Distance matrix (angstroms):
                    1          2          3          4          5
     1  O    0.000000
     2  C    1.297045   0.000000
     3  C    2.816390   2.150000   0.000000
     4  C    2.350005   2.381578   1.371089   0.000000
     5  C    2.815766   3.083798   2.505032   1.493393   0.000000
     6  Fe   1.898750   2.960789   4.501259   3.890246   4.355264
     7  Cl   3.196692   4.492392   5.569906   4.495301   4.400828
     8  C    2.729247   3.185092   2.514807   1.493887   2.522765
     9  Cl   3.223123   3.786411   5.833113   5.558868   5.892707
    10  Cl   3.323498   3.951680   4.910155   4.510716   5.496063
    11  H    3.376704   2.531212   1.087566   2.095283   2.662853
    12  H    3.808293   4.153649   2.994208   2.105627   2.971849
    13  H    2.789492   3.130926   2.733431   2.173681   3.441476
    14  H    2.706873   3.555056   3.376277   2.148261   2.625908
    15  H    3.751871   4.111412   3.203084   2.111583   1.098173
    16  H    2.437716   3.090754   3.228168   2.132480   1.095374
    17  H    3.331266   3.270769   2.653207   2.169520   1.091952
    18  C    3.796151   3.049428   1.508897   2.547078   3.898194
    19  H    4.701464   4.038011   2.137849   3.006184   4.229794
    20  H    4.256215   3.253783   2.165046   3.416794   4.670023
    21  H    3.722960   3.218124   2.183332   2.797109   4.279411
    22  C    2.396367   1.506937   2.818950   3.412007   4.444831
    23  H    3.318999   2.177146   2.912934   3.871716   4.919323
    24  H    2.697318   2.083532   3.835806   4.280833   5.141689
    25  H    2.658384   2.167534   3.006673   3.442998   4.685492
    26  C    2.371205   1.511353   2.803392   3.185553   3.332619
    27  H    2.686996   2.090850   3.824101   4.100365   4.173680
    28  H    3.299647   2.179614   2.877736   3.656603   3.932767
    29  H    2.608768   2.167657   2.986190   3.053660   2.710123
                    6          7          8          9         10
     6  Fe   0.000000
     7  Cl   2.194711   0.000000
     8  C    3.568009   3.967993   0.000000
     9  Cl   2.198459   3.744401   5.589727   0.000000
    10  Cl   2.210116   3.673547   3.666304   3.651401   0.000000
    11  H    5.212854   6.228595   3.468252   6.299978   5.869042
    12  H    4.621176   4.791073   1.100278   6.679465   4.482065
    13  H    3.319236   4.174380   1.090280   5.278911   2.856032
    14  H    3.148639   3.024673   1.092679   5.279421   3.557564
    15  H    5.082865   4.770512   2.717846   6.791936   6.054092
    16  H    3.714098   3.491693   2.801467   5.195037   5.181756
    17  H    5.053941   5.246152   3.476745   6.297561   6.311296
    18  C    5.157673   6.464934   3.046234   6.474684   4.924015
    19  H    6.075067   7.175488   3.428656   7.517527   5.756676
    20  H    5.618868   7.159789   4.044076   6.610976   5.383407
    21  H    4.721663   6.088687   2.753019   6.159464   4.089071
    22  C    3.359533   5.316908   3.877250   3.850345   3.629114
    23  H    4.445993   6.363149   4.526369   4.782842   4.594461
    24  H    3.206309   5.306696   4.674453   3.071478   3.667385
    25  H    3.227478   5.180394   3.491752   4.089233   2.853097
    26  C    4.044323   5.322330   4.353922   4.345554   5.379390
    27  H    3.966798   5.331472   5.106844   3.713913   5.491115
    28  H    4.983727   6.366351   4.922210   5.202485   6.063828
    29  H    4.342181   5.175055   4.332722   4.841310   5.884562
                   11         12         13         14         15
    11  H    0.000000
    12  H    3.877641   0.000000
    13  H    3.803694   1.767695   0.000000
    14  H    4.231252   1.770129   1.775339   0.000000
    15  H    3.395873   2.782679   3.778131   2.736644   0.000000
    16  H    3.461749   3.459774   3.643491   2.501247   1.761073
    17  H    2.347156   3.882072   4.305461   3.695036   1.774112
    18  C    2.199091   3.286858   2.813666   4.086384   4.418174
    19  H    2.616925   3.312181   3.353916   4.513877   4.514776
    20  H    2.490993   4.370390   3.710078   5.036522   5.306156
    21  H    3.107347   3.032451   2.166760   3.759187   4.756724
    22  C    3.312562   4.781489   3.391590   4.394004   5.395441
    23  H    3.172616   5.297700   4.071965   5.197451   5.857473
    24  H    4.241951   5.658084   4.167539   5.004695   6.141171
    25  H    3.771629   4.333591   2.749696   4.048534   5.503677
    26  C    2.550073   5.230718   4.517957   4.663799   4.420769
    27  H    3.642334   6.070793   5.179661   5.268754   5.268514
    28  H    2.348187   5.684509   5.029932   5.412656   4.960585
    29  H    2.594536   5.132527   4.748384   4.521354   3.759599
                   16         17         18         19         20
    16  H    0.000000
    17  H    1.794701   0.000000
    18  C    4.612418   4.120315   0.000000
    19  H    5.098476   4.416145   1.097883   0.000000
    20  H    5.341136   4.714179   1.093197   1.761062   0.000000
    21  H    4.834691   4.728805   1.091953   1.764633   1.770325
    22  C    4.521671   4.658723   2.962871   4.059923   2.816858
    23  H    5.175384   4.948024   2.791860   3.824595   2.258455
    24  H    5.017630   5.339099   4.060990   5.158178   3.849309
    25  H    4.781514   5.103577   2.796655   3.851354   2.835855
    26  C    3.349006   3.033911   3.913565   4.777130   3.908813
    27  H    3.946876   3.925186   4.831596   5.765838   4.740933
    28  H    4.185134   3.455066   3.762195   4.552966   3.506871
    29  H    2.691443   2.229063   4.346523   5.058676   4.526815
                   21         22         23         24         25
    21  H    0.000000
    22  C    2.884377   0.000000
    23  H    2.962563   1.090403   0.000000
    24  H    3.915818   1.099873   1.775193   0.000000
    25  H    2.322849   1.090155   1.796511   1.761187   0.000000
    26  C    4.396885   2.558685   2.769657   2.847252   3.497899
    27  H    5.188390   2.842864   3.148172   2.691276   3.837728
    28  H    4.425898   2.778551   2.542503   3.176675   3.768439
    29  H    4.898152   3.495274   3.765574   3.834031   4.313821
                   26         27         28         29
    26  C    0.000000
    27  H    1.098711   0.000000
    28  H    1.091911   1.779704   0.000000
    29  H    1.090197   1.763017   1.794240   0.000000
 Framework group  C1[X(C8H16Cl3FeO)]
 Deg. of freedom    81
                         Standard orientation:                         
 ---------------------------------------------------------------------
 Center     Atomic      Atomic             Coordinates (Angstroms)
 Number     Number       Type             X           Y           Z
 ---------------------------------------------------------------------
      1          8           0       -0.325312   -0.119771   -0.620997
      2          6           0       -1.239325   -1.037155   -0.548106
      3          6           0       -3.056444   -0.064921    0.064542
      4          6           0       -2.311887    1.058446   -0.187580
      5          6           0       -2.274043    1.693817   -1.538541
      6         26           0        1.442825    0.067512    0.045236
      7         17           0        2.042581    2.024011   -0.747960
      8          6           0       -1.567856    1.790076    0.881454
      9         17           0        2.483690   -1.694302   -0.758402
     10         17           0        1.338384    0.024896    2.252472
     11          1           0       -3.686196   -0.420679   -0.747646
     12          1           0       -2.252915    2.536039    1.311389
     13          1           0       -1.227554    1.147934    1.694202
     14          1           0       -0.708401    2.326655    0.472348
     15          1           0       -2.624458    2.729865   -1.439554
     16          1           0       -1.241326    1.742014   -1.900503
     17          1           0       -2.907908    1.187745   -2.269612
     18          6           0       -3.489105   -0.506739    1.440904
     19          1           0       -4.394359    0.043885    1.728436
     20          1           0       -3.742147   -1.570045    1.461624
     21          1           0       -2.735890   -0.319937    2.209105
     22          6           0       -1.115493   -2.047510    0.563068
     23          1           0       -1.978228   -2.710754    0.632170
     24          1           0       -0.234997   -2.652683    0.301893
     25          1           0       -0.906999   -1.577733    1.524462
     26          6           0       -1.713079   -1.573531   -1.879288
     27          1           0       -0.876384   -2.170824   -2.267037
     28          1           0       -2.589246   -2.218466   -1.786224
     29          1           0       -1.899696   -0.773334   -2.595799
 ---------------------------------------------------------------------
 Rotational constants (GHZ):           0.5859353           0.3383895           0.3169317
   427 basis functions,  1056 primitive gaussians,   461 cartesian basis functions
    77 alpha electrons       72 beta electrons
       nuclear repulsion energy      1650.1817977026 Hartrees.
 NAtoms=   29 NActive=   29 NUniq=   29 SFac= 1.00D+00 NAtFMM=   60 NAOKFM=F Big=F
 Initial guess from the checkpoint file:  "checkpoint.chk"
 B after Tr=     0.000000    0.000000    0.000000
         Rot=    1.000000    0.000000    0.000000    0.000000 Ang=   0.00 deg.
 Initial guess <Sx>= 0.0000 <Sy>= 0.0000 <Sz>= 2.5000 <S**2>= 8.7624 S= 2.5021
 SCF Done:  E(UB3LYP) =  -3034.32200582     A.U. after   13 cycles
            NFock= 13  Conv=0.85D-08     -V/T= 2.0024
 <Sx>= 0.0000 <Sy>= 0.0000 <Sz>= 2.5000 <S**2>= 8.7617 S= 2.5019
 <L.S>= 0.000000000000E+00
 Annihilation of the first spin contaminant:
 S**2 before annihilation     8.7617,   after     8.7500
 1\1\GINC-HOLY7C04212\SP\UB3LYP\Jul-CC-pVDZ\C8H16Cl3Fe1O1(6)\EKWAN\11-F
 eb-2020\0\\#t pop=none jul-cc-pvdz guess=read ub3lyp\\theory_abbreviat
 ion b3lyp\\0,6\O,0,-0.325312,-0.119771,-0.620997\C,0,-1.239325,-1.0371
 55,-0.548106\C,0,-3.056444,-0.064921,0.064542\C,0,-2.311887,1.058446,-
 0.18758\C,0,-2.274043,1.693817,-1.538541\Fe,0,1.442825,0.067512,0.0452
 36\Cl,0,2.042581,2.024011,-0.74796\C,0,-1.567856,1.790076,0.881454\Cl,
 0,2.48369,-1.694302,-0.758402\Cl,0,1.338384,0.024896,2.252472\H,0,-3.6
 86196,-0.420679,-0.747646\H,0,-2.252915,2.536039,1.311389\H,0,-1.22755
 4,1.147934,1.694202\H,0,-0.708401,2.326655,0.472348\H,0,-2.624458,2.72
 9865,-1.439554\H,0,-1.241326,1.742014,-1.900503\H,0,-2.907908,1.187745
 ,-2.269612\C,0,-3.489105,-0.506739,1.440904\H,0,-4.394359,0.043885,1.7
 28436\H,0,-3.742147,-1.570045,1.461624\H,0,-2.73589,-0.319937,2.209105
 \C,0,-1.115493,-2.04751,0.563068\H,0,-1.978228,-2.710754,0.63217\H,0,-
 0.234997,-2.652683,0.301893\H,0,-0.906999,-1.577733,1.524462\C,0,-1.71
 3079,-1.573531,-1.879288\H,0,-0.876384,-2.170824,-2.267037\H,0,-2.5892
 46,-2.218466,-1.786224\H,0,-1.899696,-0.773334,-2.595799\\Version=ES64
 L-G16RevA.03\HF=-3034.3220058\S2=8.761689\S2-1=0.\S2A=8.750042\RMSD=8.
 533e-09\PG=C01 [X(C8H16Cl3Fe1O1)]\\@


 THERE ARE PEOPLE SO ADDICTED TO EXAGERATING THEY
 CAN'T TELL THE TRUTH WITHOUT LYING. -- FORTUNE COOKIE
 Job cpu time:       0 days  0 hours 54 minutes 22.8 seconds.
 Elapsed time:       0 days  0 hours 13 minutes 40.2 seconds.
 File lengths (MBytes):  RWF=    174 Int=      0 D2E=      0 Chk=     13 Scr=      1
 Normal termination of Gaussian 16 at Tue Feb 11 14:12:43 2020.
 Initial command:
 /n/sw/g16_nehalem/g16/l1.exe "/scratch/Gau-359437.inp" -scrdir="/scratch/"
 Entering Link 1 = /n/sw/g16_nehalem/g16/l1.exe PID=    362428.
  
 Copyright (c) 1988,1990,1992,1993,1995,1998,2003,2009,2016,
            Gaussian, Inc.  All Rights Reserved.
  
 This is part of the Gaussian(R) 16 program.  It is based on
 the Gaussian(R) 09 system (copyright 2009, Gaussian, Inc.),
 the Gaussian(R) 03 system (copyright 2003, Gaussian, Inc.),
 the Gaussian(R) 98 system (copyright 1998, Gaussian, Inc.),
 the Gaussian(R) 94 system (copyright 1995, Gaussian, Inc.),
 the Gaussian 92(TM) system (copyright 1992, Gaussian, Inc.),
 the Gaussian 90(TM) system (copyright 1990, Gaussian, Inc.),
 the Gaussian 88(TM) system (copyright 1988, Gaussian, Inc.),
 the Gaussian 86(TM) system (copyright 1986, Carnegie Mellon
 University), and the Gaussian 82(TM) system (copyright 1983,
 Carnegie Mellon University). Gaussian is a federally registered
 trademark of Gaussian, Inc.
  
 This software contains proprietary and confidential information,
 including trade secrets, belonging to Gaussian, Inc.
  
 This software is provided under written license and may be
 used, copied, transmitted, or stored only in accord with that
 written license.
  
 The following legend is applicable only to US Government
 contracts under FAR:
  
                    RESTRICTED RIGHTS LEGEND
  
 Use, reproduction and disclosure by the US Government is
 subject to restrictions as set forth in subparagraphs (a)
 and (c) of the Commercial Computer Software - Restricted
 Rights clause in FAR 52.227-19.
  
 Gaussian, Inc.
 340 Quinnipiac St., Bldg. 40, Wallingford CT 06492
  
  
 ---------------------------------------------------------------
 Warning -- This program may not be used in any manner that
 competes with the business of Gaussian, Inc. or will provide
 assistance to any competitor of Gaussian, Inc.  The licensee
 of this program is prohibited from giving any competitor of
 Gaussian, Inc. access to this program.  By using this program,
 the user acknowledges that Gaussian, Inc. is engaged in the
 business of creating and licensing software in the field of
 computational chemistry and represents and warrants to the
 licensee that it is not a competitor of Gaussian, Inc. and that
 it will not use this program in any manner prohibited above.
 ---------------------------------------------------------------
  

 Cite this work as:
 Gaussian 16, Revision A.03,
 M. J. Frisch, G. W. Trucks, H. B. Schlegel, G. E. Scuseria, 
 M. A. Robb, J. R. Cheeseman, G. Scalmani, V. Barone, 
 G. A. Petersson, H. Nakatsuji, X. Li, M. Caricato, A. V. Marenich, 
 J. Bloino, B. G. Janesko, R. Gomperts, B. Mennucci, H. P. Hratchian, 
 J. V. Ortiz, A. F. Izmaylov, J. L. Sonnenberg, D. Williams-Young, 
 F. Ding, F. Lipparini, F. Egidi, J. Goings, B. Peng, A. Petrone, 
 T. Henderson, D. Ranasinghe, V. G. Zakrzewski, J. Gao, N. Rega, 
 G. Zheng, W. Liang, M. Hada, M. Ehara, K. Toyota, R. Fukuda, 
 J. Hasegawa, M. Ishida, T. Nakajima, Y. Honda, O. Kitao, H. Nakai, 
 T. Vreven, K. Throssell, J. A. Montgomery, Jr., J. E. Peralta, 
 F. Ogliaro, M. J. Bearpark, J. J. Heyd, E. N. Brothers, K. N. Kudin, 
 V. N. Staroverov, T. A. Keith, R. Kobayashi, J. Normand, 
 K. Raghavachari, A. P. Rendell, J. C. Burant, S. S. Iyengar, 
 J. Tomasi, M. Cossi, J. M. Millam, M. Klene, C. Adamo, R. Cammi, 
 J. W. Ochterski, R. L. Martin, K. Morokuma, O. Farkas, 
 J. B. Foresman, and D. J. Fox, Gaussian, Inc., Wallingford CT, 2016.
 
 ******************************************
 Gaussian 16:  ES64L-G16RevA.03 25-Dec-2016
                11-Feb-2020 
 ******************************************
 %chk=checkpoint.chk
 %mem=3GB
 %nprocshared=4
 Will use up to    4 processors via shared memory.
 -------------------------------------------------------------------
 #t pop=none jul-cc-pvdz guess=read ub3lyp empiricaldispersion=gd3bj
 -------------------------------------------------------------------
 ------------------------------
 theory_abbreviation b3lyp_d3bj
 ------------------------------
 Symbolic Z-matrix:
 Charge =  0 Multiplicity = 6
 O                    -0.32531  -0.11977  -0.621 
 C                    -1.23933  -1.03716  -0.54811 
 C                    -3.05644  -0.06492   0.06454 
 C                    -2.31189   1.05845  -0.18758 
 C                    -2.27404   1.69382  -1.53854 
 Fe                    1.44283   0.06751   0.04524 
 Cl                    2.04258   2.02401  -0.74796 
 C                    -1.56786   1.79008   0.88145 
 Cl                    2.48369  -1.6943   -0.7584 
 Cl                    1.33838   0.0249    2.25247 
 H                    -3.6862   -0.42068  -0.74765 
 H                    -2.25292   2.53604   1.31139 
 H                    -1.22755   1.14793   1.6942 
 H                    -0.7084    2.32666   0.47235 
 H                    -2.62446   2.72987  -1.43955 
 H                    -1.24133   1.74201  -1.9005 
 H                    -2.90791   1.18775  -2.26961 
 C                    -3.48911  -0.50674   1.4409 
 H                    -4.39436   0.04389   1.72844 
 H                    -3.74215  -1.57005   1.46162 
 H                    -2.73589  -0.31994   2.20911 
 C                    -1.11549  -2.04751   0.56307 
 H                    -1.97823  -2.71075   0.63217 
 H                    -0.235    -2.65268   0.30189 
 H                    -0.907    -1.57773   1.52446 
 C                    -1.71308  -1.57353  -1.87929 
 H                    -0.87638  -2.17082  -2.26704 
 H                    -2.58925  -2.21847  -1.78622 
 H                    -1.8997   -0.77333  -2.5958 
 
                    Distance matrix (angstroms):
                    1          2          3          4          5
     1  O    0.000000
     2  C    1.297045   0.000000
     3  C    2.816390   2.150000   0.000000
     4  C    2.350005   2.381578   1.371089   0.000000
     5  C    2.815766   3.083798   2.505032   1.493393   0.000000
     6  Fe   1.898750   2.960789   4.501259   3.890246   4.355264
     7  Cl   3.196692   4.492392   5.569906   4.495301   4.400828
     8  C    2.729247   3.185092   2.514807   1.493887   2.522765
     9  Cl   3.223123   3.786411   5.833113   5.558868   5.892707
    10  Cl   3.323498   3.951680   4.910155   4.510716   5.496063
    11  H    3.376704   2.531212   1.087566   2.095283   2.662853
    12  H    3.808293   4.153649   2.994208   2.105627   2.971849
    13  H    2.789492   3.130926   2.733431   2.173681   3.441476
    14  H    2.706873   3.555056   3.376277   2.148261   2.625908
    15  H    3.751871   4.111412   3.203084   2.111583   1.098173
    16  H    2.437716   3.090754   3.228168   2.132480   1.095374
    17  H    3.331266   3.270769   2.653207   2.169520   1.091952
    18  C    3.796151   3.049428   1.508897   2.547078   3.898194
    19  H    4.701464   4.038011   2.137849   3.006184   4.229794
    20  H    4.256215   3.253783   2.165046   3.416794   4.670023
    21  H    3.722960   3.218124   2.183332   2.797109   4.279411
    22  C    2.396367   1.506937   2.818950   3.412007   4.444831
    23  H    3.318999   2.177146   2.912934   3.871716   4.919323
    24  H    2.697318   2.083532   3.835806   4.280833   5.141689
    25  H    2.658384   2.167534   3.006673   3.442998   4.685492
    26  C    2.371205   1.511353   2.803392   3.185553   3.332619
    27  H    2.686996   2.090850   3.824101   4.100365   4.173680
    28  H    3.299647   2.179614   2.877736   3.656603   3.932767
    29  H    2.608768   2.167657   2.986190   3.053660   2.710123
                    6          7          8          9         10
     6  Fe   0.000000
     7  Cl   2.194711   0.000000
     8  C    3.568009   3.967993   0.000000
     9  Cl   2.198459   3.744401   5.589727   0.000000
    10  Cl   2.210116   3.673547   3.666304   3.651401   0.000000
    11  H    5.212854   6.228595   3.468252   6.299978   5.869042
    12  H    4.621176   4.791073   1.100278   6.679465   4.482065
    13  H    3.319236   4.174380   1.090280   5.278911   2.856032
    14  H    3.148639   3.024673   1.092679   5.279421   3.557564
    15  H    5.082865   4.770512   2.717846   6.791936   6.054092
    16  H    3.714098   3.491693   2.801467   5.195037   5.181756
    17  H    5.053941   5.246152   3.476745   6.297561   6.311296
    18  C    5.157673   6.464934   3.046234   6.474684   4.924015
    19  H    6.075067   7.175488   3.428656   7.517527   5.756676
    20  H    5.618868   7.159789   4.044076   6.610976   5.383407
    21  H    4.721663   6.088687   2.753019   6.159464   4.089071
    22  C    3.359533   5.316908   3.877250   3.850345   3.629114
    23  H    4.445993   6.363149   4.526369   4.782842   4.594461
    24  H    3.206309   5.306696   4.674453   3.071478   3.667385
    25  H    3.227478   5.180394   3.491752   4.089233   2.853097
    26  C    4.044323   5.322330   4.353922   4.345554   5.379390
    27  H    3.966798   5.331472   5.106844   3.713913   5.491115
    28  H    4.983727   6.366351   4.922210   5.202485   6.063828
    29  H    4.342181   5.175055   4.332722   4.841310   5.884562
                   11         12         13         14         15
    11  H    0.000000
    12  H    3.877641   0.000000
    13  H    3.803694   1.767695   0.000000
    14  H    4.231252   1.770129   1.775339   0.000000
    15  H    3.395873   2.782679   3.778131   2.736644   0.000000
    16  H    3.461749   3.459774   3.643491   2.501247   1.761073
    17  H    2.347156   3.882072   4.305461   3.695036   1.774112
    18  C    2.199091   3.286858   2.813666   4.086384   4.418174
    19  H    2.616925   3.312181   3.353916   4.513877   4.514776
    20  H    2.490993   4.370390   3.710078   5.036522   5.306156
    21  H    3.107347   3.032451   2.166760   3.759187   4.756724
    22  C    3.312562   4.781489   3.391590   4.394004   5.395441
    23  H    3.172616   5.297700   4.071965   5.197451   5.857473
    24  H    4.241951   5.658084   4.167539   5.004695   6.141171
    25  H    3.771629   4.333591   2.749696   4.048534   5.503677
    26  C    2.550073   5.230718   4.517957   4.663799   4.420769
    27  H    3.642334   6.070793   5.179661   5.268754   5.268514
    28  H    2.348187   5.684509   5.029932   5.412656   4.960585
    29  H    2.594536   5.132527   4.748384   4.521354   3.759599
                   16         17         18         19         20
    16  H    0.000000
    17  H    1.794701   0.000000
    18  C    4.612418   4.120315   0.000000
    19  H    5.098476   4.416145   1.097883   0.000000
    20  H    5.341136   4.714179   1.093197   1.761062   0.000000
    21  H    4.834691   4.728805   1.091953   1.764633   1.770325
    22  C    4.521671   4.658723   2.962871   4.059923   2.816858
    23  H    5.175384   4.948024   2.791860   3.824595   2.258455
    24  H    5.017630   5.339099   4.060990   5.158178   3.849309
    25  H    4.781514   5.103577   2.796655   3.851354   2.835855
    26  C    3.349006   3.033911   3.913565   4.777130   3.908813
    27  H    3.946876   3.925186   4.831596   5.765838   4.740933
    28  H    4.185134   3.455066   3.762195   4.552966   3.506871
    29  H    2.691443   2.229063   4.346523   5.058676   4.526815
                   21         22         23         24         25
    21  H    0.000000
    22  C    2.884377   0.000000
    23  H    2.962563   1.090403   0.000000
    24  H    3.915818   1.099873   1.775193   0.000000
    25  H    2.322849   1.090155   1.796511   1.761187   0.000000
    26  C    4.396885   2.558685   2.769657   2.847252   3.497899
    27  H    5.188390   2.842864   3.148172   2.691276   3.837728
    28  H    4.425898   2.778551   2.542503   3.176675   3.768439
    29  H    4.898152   3.495274   3.765574   3.834031   4.313821
                   26         27         28         29
    26  C    0.000000
    27  H    1.098711   0.000000
    28  H    1.091911   1.779704   0.000000
    29  H    1.090197   1.763017   1.794240   0.000000
 Framework group  C1[X(C8H16Cl3FeO)]
 Deg. of freedom    81
                         Standard orientation:                         
 ---------------------------------------------------------------------
 Center     Atomic      Atomic             Coordinates (Angstroms)
 Number     Number       Type             X           Y           Z
 ---------------------------------------------------------------------
      1          8           0       -0.325312   -0.119771   -0.620997
      2          6           0       -1.239325   -1.037155   -0.548106
      3          6           0       -3.056444   -0.064921    0.064542
      4          6           0       -2.311887    1.058446   -0.187580
      5          6           0       -2.274043    1.693817   -1.538541
      6         26           0        1.442825    0.067512    0.045236
      7         17           0        2.042581    2.024011   -0.747960
      8          6           0       -1.567856    1.790076    0.881454
      9         17           0        2.483690   -1.694302   -0.758402
     10         17           0        1.338384    0.024896    2.252472
     11          1           0       -3.686196   -0.420679   -0.747646
     12          1           0       -2.252915    2.536039    1.311389
     13          1           0       -1.227554    1.147934    1.694202
     14          1           0       -0.708401    2.326655    0.472348
     15          1           0       -2.624458    2.729865   -1.439554
     16          1           0       -1.241326    1.742014   -1.900503
     17          1           0       -2.907908    1.187745   -2.269612
     18          6           0       -3.489105   -0.506739    1.440904
     19          1           0       -4.394359    0.043885    1.728436
     20          1           0       -3.742147   -1.570045    1.461624
     21          1           0       -2.735890   -0.319937    2.209105
     22          6           0       -1.115493   -2.047510    0.563068
     23          1           0       -1.978228   -2.710754    0.632170
     24          1           0       -0.234997   -2.652683    0.301893
     25          1           0       -0.906999   -1.577733    1.524462
     26          6           0       -1.713079   -1.573531   -1.879288
     27          1           0       -0.876384   -2.170824   -2.267037
     28          1           0       -2.589246   -2.218466   -1.786224
     29          1           0       -1.899696   -0.773334   -2.595799
 ---------------------------------------------------------------------
 Rotational constants (GHZ):           0.5859353           0.3383895           0.3169317
   427 basis functions,  1056 primitive gaussians,   461 cartesian basis functions
    77 alpha electrons       72 beta electrons
       nuclear repulsion energy      1650.1817977026 Hartrees.
 NAtoms=   29 NActive=   29 NUniq=   29 SFac= 1.00D+00 NAtFMM=   60 NAOKFM=F Big=F
 Nuclear repulsion after empirical dispersion term =     1650.1112840154 Hartrees.
 Initial guess from the checkpoint file:  "checkpoint.chk"
 B after Tr=     0.000000    0.000000    0.000000
         Rot=    1.000000    0.000000    0.000000    0.000000 Ang=   0.00 deg.
 Initial guess <Sx>= 0.0000 <Sy>= 0.0000 <Sz>= 2.5000 <S**2>= 8.7617 S= 2.5019
 SCF Done:  E(UB3LYP) =  -3034.39251951     A.U. after    1 cycles
            NFock=  1  Conv=0.55D-08     -V/T= 2.0024
 <Sx>= 0.0000 <Sy>= 0.0000 <Sz>= 2.5000 <S**2>= 8.7617 S= 2.5019
 <L.S>= 0.000000000000E+00
 Annihilation of the first spin contaminant:
 S**2 before annihilation     8.7617,   after     8.7500
 1\1\GINC-HOLY7C04212\SP\UB3LYP\Jul-CC-pVDZ\C8H16Cl3Fe1O1(6)\EKWAN\11-F
 eb-2020\0\\#t pop=none jul-cc-pvdz guess=read ub3lyp empiricaldispersi
 on=gd3bj\\theory_abbreviation b3lyp_d3bj\\0,6\O,0,-0.325312,-0.119771,
 -0.620997\C,0,-1.239325,-1.037155,-0.548106\C,0,-3.056444,-0.064921,0.
 064542\C,0,-2.311887,1.058446,-0.18758\C,0,-2.274043,1.693817,-1.53854
 1\Fe,0,1.442825,0.067512,0.045236\Cl,0,2.042581,2.024011,-0.74796\C,0,
 -1.567856,1.790076,0.881454\Cl,0,2.48369,-1.694302,-0.758402\Cl,0,1.33
 8384,0.024896,2.252472\H,0,-3.686196,-0.420679,-0.747646\H,0,-2.252915
 ,2.536039,1.311389\H,0,-1.227554,1.147934,1.694202\H,0,-0.708401,2.326
 655,0.472348\H,0,-2.624458,2.729865,-1.439554\H,0,-1.241326,1.742014,-
 1.900503\H,0,-2.907908,1.187745,-2.269612\C,0,-3.489105,-0.506739,1.44
 0904\H,0,-4.394359,0.043885,1.728436\H,0,-3.742147,-1.570045,1.461624\
 H,0,-2.73589,-0.319937,2.209105\C,0,-1.115493,-2.04751,0.563068\H,0,-1
 .978228,-2.710754,0.63217\H,0,-0.234997,-2.652683,0.301893\H,0,-0.9069
 99,-1.577733,1.524462\C,0,-1.713079,-1.573531,-1.879288\H,0,-0.876384,
 -2.170824,-2.267037\H,0,-2.589246,-2.218466,-1.786224\H,0,-1.899696,-0
 .773334,-2.595799\\Version=ES64L-G16RevA.03\HF=-3034.3925195\S2=8.7616
 89\S2-1=0.\S2A=8.750042\RMSD=5.458e-09\PG=C01 [X(C8H16Cl3Fe1O1)]\\@


 HOW IS IT THAT THE SKY FEEDS THE STARS?

                           -- LUCRETIUS
 Job cpu time:       0 days  0 hours  4 minutes 39.9 seconds.
 Elapsed time:       0 days  0 hours  1 minutes 11.3 seconds.
 File lengths (MBytes):  RWF=    170 Int=      0 D2E=      0 Chk=     13 Scr=      1
 Normal termination of Gaussian 16 at Tue Feb 11 14:13:56 2020.
 Initial command:
 /n/sw/g16_nehalem/g16/l1.exe "/scratch/Gau-359437.inp" -scrdir="/scratch/"
 Entering Link 1 = /n/sw/g16_nehalem/g16/l1.exe PID=    362636.
  
 Copyright (c) 1988,1990,1992,1993,1995,1998,2003,2009,2016,
            Gaussian, Inc.  All Rights Reserved.
  
 This is part of the Gaussian(R) 16 program.  It is based on
 the Gaussian(R) 09 system (copyright 2009, Gaussian, Inc.),
 the Gaussian(R) 03 system (copyright 2003, Gaussian, Inc.),
 the Gaussian(R) 98 system (copyright 1998, Gaussian, Inc.),
 the Gaussian(R) 94 system (copyright 1995, Gaussian, Inc.),
 the Gaussian 92(TM) system (copyright 1992, Gaussian, Inc.),
 the Gaussian 90(TM) system (copyright 1990, Gaussian, Inc.),
 the Gaussian 88(TM) system (copyright 1988, Gaussian, Inc.),
 the Gaussian 86(TM) system (copyright 1986, Carnegie Mellon
 University), and the Gaussian 82(TM) system (copyright 1983,
 Carnegie Mellon University). Gaussian is a federally registered
 trademark of Gaussian, Inc.
  
 This software contains proprietary and confidential information,
 including trade secrets, belonging to Gaussian, Inc.
  
 This software is provided under written license and may be
 used, copied, transmitted, or stored only in accord with that
 written license.
  
 The following legend is applicable only to US Government
 contracts under FAR:
  
                    RESTRICTED RIGHTS LEGEND
  
 Use, reproduction and disclosure by the US Government is
 subject to restrictions as set forth in subparagraphs (a)
 and (c) of the Commercial Computer Software - Restricted
 Rights clause in FAR 52.227-19.
  
 Gaussian, Inc.
 340 Quinnipiac St., Bldg. 40, Wallingford CT 06492
  
  
 ---------------------------------------------------------------
 Warning -- This program may not be used in any manner that
 competes with the business of Gaussian, Inc. or will provide
 assistance to any competitor of Gaussian, Inc.  The licensee
 of this program is prohibited from giving any competitor of
 Gaussian, Inc. access to this program.  By using this program,
 the user acknowledges that Gaussian, Inc. is engaged in the
 business of creating and licensing software in the field of
 computational chemistry and represents and warrants to the
 licensee that it is not a competitor of Gaussian, Inc. and that
 it will not use this program in any manner prohibited above.
 ---------------------------------------------------------------
  

 Cite this work as:
 Gaussian 16, Revision A.03,
 M. J. Frisch, G. W. Trucks, H. B. Schlegel, G. E. Scuseria, 
 M. A. Robb, J. R. Cheeseman, G. Scalmani, V. Barone, 
 G. A. Petersson, H. Nakatsuji, X. Li, M. Caricato, A. V. Marenich, 
 J. Bloino, B. G. Janesko, R. Gomperts, B. Mennucci, H. P. Hratchian, 
 J. V. Ortiz, A. F. Izmaylov, J. L. Sonnenberg, D. Williams-Young, 
 F. Ding, F. Lipparini, F. Egidi, J. Goings, B. Peng, A. Petrone, 
 T. Henderson, D. Ranasinghe, V. G. Zakrzewski, J. Gao, N. Rega, 
 G. Zheng, W. Liang, M. Hada, M. Ehara, K. Toyota, R. Fukuda, 
 J. Hasegawa, M. Ishida, T. Nakajima, Y. Honda, O. Kitao, H. Nakai, 
 T. Vreven, K. Throssell, J. A. Montgomery, Jr., J. E. Peralta, 
 F. Ogliaro, M. J. Bearpark, J. J. Heyd, E. N. Brothers, K. N. Kudin, 
 V. N. Staroverov, T. A. Keith, R. Kobayashi, J. Normand, 
 K. Raghavachari, A. P. Rendell, J. C. Burant, S. S. Iyengar, 
 J. Tomasi, M. Cossi, J. M. Millam, M. Klene, C. Adamo, R. Cammi, 
 J. W. Ochterski, R. L. Martin, K. Morokuma, O. Farkas, 
 J. B. Foresman, and D. J. Fox, Gaussian, Inc., Wallingford CT, 2016.
 
 ******************************************
 Gaussian 16:  ES64L-G16RevA.03 25-Dec-2016
                11-Feb-2020 
 ******************************************
 %chk=checkpoint.chk
 %mem=3GB
 %nprocshared=4
 Will use up to    4 processors via shared memory.
 ----------------------------------------
 #t pop=none jul-cc-pvdz guess=read ub97d
 ----------------------------------------
 ------------------------
 theory_abbreviation b97d
 ------------------------
 Symbolic Z-matrix:
 Charge =  0 Multiplicity = 6
 O                    -0.32531  -0.11977  -0.621 
 C                    -1.23933  -1.03716  -0.54811 
 C                    -3.05644  -0.06492   0.06454 
 C                    -2.31189   1.05845  -0.18758 
 C                    -2.27404   1.69382  -1.53854 
 Fe                    1.44283   0.06751   0.04524 
 Cl                    2.04258   2.02401  -0.74796 
 C                    -1.56786   1.79008   0.88145 
 Cl                    2.48369  -1.6943   -0.7584 
 Cl                    1.33838   0.0249    2.25247 
 H                    -3.6862   -0.42068  -0.74765 
 H                    -2.25292   2.53604   1.31139 
 H                    -1.22755   1.14793   1.6942 
 H                    -0.7084    2.32666   0.47235 
 H                    -2.62446   2.72987  -1.43955 
 H                    -1.24133   1.74201  -1.9005 
 H                    -2.90791   1.18775  -2.26961 
 C                    -3.48911  -0.50674   1.4409 
 H                    -4.39436   0.04389   1.72844 
 H                    -3.74215  -1.57005   1.46162 
 H                    -2.73589  -0.31994   2.20911 
 C                    -1.11549  -2.04751   0.56307 
 H                    -1.97823  -2.71075   0.63217 
 H                    -0.235    -2.65268   0.30189 
 H                    -0.907    -1.57773   1.52446 
 C                    -1.71308  -1.57353  -1.87929 
 H                    -0.87638  -2.17082  -2.26704 
 H                    -2.58925  -2.21847  -1.78622 
 H                    -1.8997   -0.77333  -2.5958 
 
                    Distance matrix (angstroms):
                    1          2          3          4          5
     1  O    0.000000
     2  C    1.297045   0.000000
     3  C    2.816390   2.150000   0.000000
     4  C    2.350005   2.381578   1.371089   0.000000
     5  C    2.815766   3.083798   2.505032   1.493393   0.000000
     6  Fe   1.898750   2.960789   4.501259   3.890246   4.355264
     7  Cl   3.196692   4.492392   5.569906   4.495301   4.400828
     8  C    2.729247   3.185092   2.514807   1.493887   2.522765
     9  Cl   3.223123   3.786411   5.833113   5.558868   5.892707
    10  Cl   3.323498   3.951680   4.910155   4.510716   5.496063
    11  H    3.376704   2.531212   1.087566   2.095283   2.662853
    12  H    3.808293   4.153649   2.994208   2.105627   2.971849
    13  H    2.789492   3.130926   2.733431   2.173681   3.441476
    14  H    2.706873   3.555056   3.376277   2.148261   2.625908
    15  H    3.751871   4.111412   3.203084   2.111583   1.098173
    16  H    2.437716   3.090754   3.228168   2.132480   1.095374
    17  H    3.331266   3.270769   2.653207   2.169520   1.091952
    18  C    3.796151   3.049428   1.508897   2.547078   3.898194
    19  H    4.701464   4.038011   2.137849   3.006184   4.229794
    20  H    4.256215   3.253783   2.165046   3.416794   4.670023
    21  H    3.722960   3.218124   2.183332   2.797109   4.279411
    22  C    2.396367   1.506937   2.818950   3.412007   4.444831
    23  H    3.318999   2.177146   2.912934   3.871716   4.919323
    24  H    2.697318   2.083532   3.835806   4.280833   5.141689
    25  H    2.658384   2.167534   3.006673   3.442998   4.685492
    26  C    2.371205   1.511353   2.803392   3.185553   3.332619
    27  H    2.686996   2.090850   3.824101   4.100365   4.173680
    28  H    3.299647   2.179614   2.877736   3.656603   3.932767
    29  H    2.608768   2.167657   2.986190   3.053660   2.710123
                    6          7          8          9         10
     6  Fe   0.000000
     7  Cl   2.194711   0.000000
     8  C    3.568009   3.967993   0.000000
     9  Cl   2.198459   3.744401   5.589727   0.000000
    10  Cl   2.210116   3.673547   3.666304   3.651401   0.000000
    11  H    5.212854   6.228595   3.468252   6.299978   5.869042
    12  H    4.621176   4.791073   1.100278   6.679465   4.482065
    13  H    3.319236   4.174380   1.090280   5.278911   2.856032
    14  H    3.148639   3.024673   1.092679   5.279421   3.557564
    15  H    5.082865   4.770512   2.717846   6.791936   6.054092
    16  H    3.714098   3.491693   2.801467   5.195037   5.181756
    17  H    5.053941   5.246152   3.476745   6.297561   6.311296
    18  C    5.157673   6.464934   3.046234   6.474684   4.924015
    19  H    6.075067   7.175488   3.428656   7.517527   5.756676
    20  H    5.618868   7.159789   4.044076   6.610976   5.383407
    21  H    4.721663   6.088687   2.753019   6.159464   4.089071
    22  C    3.359533   5.316908   3.877250   3.850345   3.629114
    23  H    4.445993   6.363149   4.526369   4.782842   4.594461
    24  H    3.206309   5.306696   4.674453   3.071478   3.667385
    25  H    3.227478   5.180394   3.491752   4.089233   2.853097
    26  C    4.044323   5.322330   4.353922   4.345554   5.379390
    27  H    3.966798   5.331472   5.106844   3.713913   5.491115
    28  H    4.983727   6.366351   4.922210   5.202485   6.063828
    29  H    4.342181   5.175055   4.332722   4.841310   5.884562
                   11         12         13         14         15
    11  H    0.000000
    12  H    3.877641   0.000000
    13  H    3.803694   1.767695   0.000000
    14  H    4.231252   1.770129   1.775339   0.000000
    15  H    3.395873   2.782679   3.778131   2.736644   0.000000
    16  H    3.461749   3.459774   3.643491   2.501247   1.761073
    17  H    2.347156   3.882072   4.305461   3.695036   1.774112
    18  C    2.199091   3.286858   2.813666   4.086384   4.418174
    19  H    2.616925   3.312181   3.353916   4.513877   4.514776
    20  H    2.490993   4.370390   3.710078   5.036522   5.306156
    21  H    3.107347   3.032451   2.166760   3.759187   4.756724
    22  C    3.312562   4.781489   3.391590   4.394004   5.395441
    23  H    3.172616   5.297700   4.071965   5.197451   5.857473
    24  H    4.241951   5.658084   4.167539   5.004695   6.141171
    25  H    3.771629   4.333591   2.749696   4.048534   5.503677
    26  C    2.550073   5.230718   4.517957   4.663799   4.420769
    27  H    3.642334   6.070793   5.179661   5.268754   5.268514
    28  H    2.348187   5.684509   5.029932   5.412656   4.960585
    29  H    2.594536   5.132527   4.748384   4.521354   3.759599
                   16         17         18         19         20
    16  H    0.000000
    17  H    1.794701   0.000000
    18  C    4.612418   4.120315   0.000000
    19  H    5.098476   4.416145   1.097883   0.000000
    20  H    5.341136   4.714179   1.093197   1.761062   0.000000
    21  H    4.834691   4.728805   1.091953   1.764633   1.770325
    22  C    4.521671   4.658723   2.962871   4.059923   2.816858
[...]
    77 alpha electrons       72 beta electrons
       nuclear repulsion energy      1650.1817977026 Hartrees.
 NAtoms=   29 NActive=   29 NUniq=   29 SFac= 1.00D+00 NAtFMM=   60 NAOKFM=F Big=F
 Nuclear repulsion after empirical dispersion term =     1650.1793640357 Hartrees.
 Initial guess from the checkpoint file:  "checkpoint.chk"
 B after Tr=     0.000000    0.000000    0.000000
         Rot=    1.000000    0.000000    0.000000    0.000000 Ang=   0.00 deg.
 Initial guess <Sx>= 0.0000 <Sy>= 0.0000 <Sz>= 2.5000 <S**2>= 8.7614 S= 2.5019
 SCF Done:  E(UM06L) =  -3034.18972729     A.U. after   17 cycles
            NFock= 17  Conv=0.10D-07     -V/T= 2.0020
 <Sx>= 0.0000 <Sy>= 0.0000 <Sz>= 2.5000 <S**2>= 8.7615 S= 2.5019
 <L.S>= 0.000000000000E+00
 Annihilation of the first spin contaminant:
 S**2 before annihilation     8.7615,   after     8.7500
 1\1\GINC-HOLY7C04212\SP\UM06L\Jul-CC-pVDZ\C8H16Cl3Fe1O1(6)\EKWAN\11-Fe
 b-2020\0\\#t pop=none jul-cc-pvdz guess=read um06l empiricaldispersion
 =gd3\\theory_abbreviation m06l_d3\\0,6\O,0,-0.325312,-0.119771,-0.6209
 97\C,0,-1.239325,-1.037155,-0.548106\C,0,-3.056444,-0.064921,0.064542\
 C,0,-2.311887,1.058446,-0.18758\C,0,-2.274043,1.693817,-1.538541\Fe,0,
 1.442825,0.067512,0.045236\Cl,0,2.042581,2.024011,-0.74796\C,0,-1.5678
 56,1.790076,0.881454\Cl,0,2.48369,-1.694302,-0.758402\Cl,0,1.338384,0.
 024896,2.252472\H,0,-3.686196,-0.420679,-0.747646\H,0,-2.252915,2.5360
 39,1.311389\H,0,-1.227554,1.147934,1.694202\H,0,-0.708401,2.326655,0.4
 72348\H,0,-2.624458,2.729865,-1.439554\H,0,-1.241326,1.742014,-1.90050
 3\H,0,-2.907908,1.187745,-2.269612\C,0,-3.489105,-0.506739,1.440904\H,
 0,-4.394359,0.043885,1.728436\H,0,-3.742147,-1.570045,1.461624\H,0,-2.
 73589,-0.319937,2.209105\C,0,-1.115493,-2.04751,0.563068\H,0,-1.978228
 ,-2.710754,0.63217\H,0,-0.234997,-2.652683,0.301893\H,0,-0.906999,-1.5
 77733,1.524462\C,0,-1.713079,-1.573531,-1.879288\H,0,-0.876384,-2.1708
 24,-2.267037\H,0,-2.589246,-2.218466,-1.786224\H,0,-1.899696,-0.773334
 ,-2.595799\\Version=ES64L-G16RevA.03\HF=-3034.1897273\S2=8.7615\S2-1=0
 .\S2A=8.750042\RMSD=9.962e-09\PG=C01 [X(C8H16Cl3Fe1O1)]\\@


 A successful marriage requires falling in love
 many times, always with the same person.
                           -- Mignon McLaughlin
 Job cpu time:       0 days  1 hours 15 minutes  9.2 seconds.
 Elapsed time:       0 days  0 hours 18 minutes 53.0 seconds.
 File lengths (MBytes):  RWF=    174 Int=      0 D2E=      0 Chk=     13 Scr=      1
 Normal termination of Gaussian 16 at Tue Feb 11 23:18:22 2020.
 Initial command:
 /n/sw/g16_nehalem/g16/l1.exe "/scratch/Gau-359437.inp" -scrdir="/scratch/"
 Entering Link 1 = /n/sw/g16_nehalem/g16/l1.exe PID=    411114.
  
 Copyright (c) 1988,1990,1992,1993,1995,1998,2003,2009,2016,
            Gaussian, Inc.  All Rights Reserved.
  
 This is part of the Gaussian(R) 16 program.  It is based on
 the Gaussian(R) 09 system (copyright 2009, Gaussian, Inc.),
 the Gaussian(R) 03 system (copyright 2003, Gaussian, Inc.),
 the Gaussian(R) 98 system (copyright 1998, Gaussian, Inc.),
 the Gaussian(R) 94 system (copyright 1995, Gaussian, Inc.),
 the Gaussian 92(TM) system (copyright 1992, Gaussian, Inc.),
 the Gaussian 90(TM) system (copyright 1990, Gaussian, Inc.),
 the Gaussian 88(TM) system (copyright 1988, Gaussian, Inc.),
 the Gaussian 86(TM) system (copyright 1986, Carnegie Mellon
 University), and the Gaussian 82(TM) system (copyright 1983,
 Carnegie Mellon University). Gaussian is a federally registered
 trademark of Gaussian, Inc.
  
 This software contains proprietary and confidential information,
 including trade secrets, belonging to Gaussian, Inc.
  
 This software is provided under written license and may be
 used, copied, transmitted, or stored only in accord with that
 written license.
  
 The following legend is applicable only to US Government
 contracts under FAR:
  
                    RESTRICTED RIGHTS LEGEND
  
 Use, reproduction and disclosure by the US Government is
 subject to restrictions as set forth in subparagraphs (a)
 and (c) of the Commercial Computer Software - Restricted
 Rights clause in FAR 52.227-19.
  
 Gaussian, Inc.
 340 Quinnipiac St., Bldg. 40, Wallingford CT 06492
  
  
 ---------------------------------------------------------------
 Warning -- This program may not be used in any manner that
 competes with the business of Gaussian, Inc. or will provide
 assistance to any competitor of Gaussian, Inc.  The licensee
 of this program is prohibited from giving any competitor of
 Gaussian, Inc. access to this program.  By using this program,
 the user acknowledges that Gaussian, Inc. is engaged in the
 business of creating and licensing software in the field of
 computational chemistry and represents and warrants to the
 licensee that it is not a competitor of Gaussian, Inc. and that
 it will not use this program in any manner prohibited above.
 ---------------------------------------------------------------
  

 Cite this work as:
 Gaussian 16, Revision A.03,
 M. J. Frisch, G. W. Trucks, H. B. Schlegel, G. E. Scuseria, 
 M. A. Robb, J. R. Cheeseman, G. Scalmani, V. Barone, 
 G. A. Petersson, H. Nakatsuji, X. Li, M. Caricato, A. V. Marenich, 
 J. Bloino, B. G. Janesko, R. Gomperts, B. Mennucci, H. P. Hratchian, 
 J. V. Ortiz, A. F. Izmaylov, J. L. Sonnenberg, D. Williams-Young, 
 F. Ding, F. Lipparini, F. Egidi, J. Goings, B. Peng, A. Petrone, 
 T. Henderson, D. Ranasinghe, V. G. Zakrzewski, J. Gao, N. Rega, 
 G. Zheng, W. Liang, M. Hada, M. Ehara, K. Toyota, R. Fukuda, 
 J. Hasegawa, M. Ishida, T. Nakajima, Y. Honda, O. Kitao, H. Nakai, 
 T. Vreven, K. Throssell, J. A. Montgomery, Jr., J. E. Peralta, 
 F. Ogliaro, M. J. Bearpark, J. J. Heyd, E. N. Brothers, K. N. Kudin, 
 V. N. Staroverov, T. A. Keith, R. Kobayashi, J. Normand, 
 K. Raghavachari, A. P. Rendell, J. C. Burant, S. S. Iyengar, 
 J. Tomasi, M. Cossi, J. M. Millam, M. Klene, C. Adamo, R. Cammi, 
 J. W. Ochterski, R. L. Martin, K. Morokuma, O. Farkas, 
 J. B. Foresman, and D. J. Fox, Gaussian, Inc., Wallingford CT, 2016.
 
 ******************************************
 Gaussian 16:  ES64L-G16RevA.03 25-Dec-2016
                11-Feb-2020 
 ******************************************
 %chk=checkpoint.chk
 %mem=3GB
 %nprocshared=4
 Will use up to    4 processors via shared memory.
 -------------------------------------------------------------------
 #t pop=none jul-cc-pvdz guess=read ub97d3 empiricaldispersion=gd3bj
 -------------------------------------------------------------------
 ------------------------------
 theory_abbreviation b97d3_d3bj
 ------------------------------
 Symbolic Z-matrix:
 Charge =  0 Multiplicity = 6
 O                    -0.32531  -0.11977  -0.621 
 C                    -1.23933  -1.03716  -0.54811 
 C                    -3.05644  -0.06492   0.06454 
 C                    -2.31189   1.05845  -0.18758 
 C                    -2.27404   1.69382  -1.53854 
 Fe                    1.44283   0.06751   0.04524 
 Cl                    2.04258   2.02401  -0.74796 
 C                    -1.56786   1.79008   0.88145 
 Cl                    2.48369  -1.6943   -0.7584 
 Cl                    1.33838   0.0249    2.25247 
 H                    -3.6862   -0.42068  -0.74765 
 H                    -2.25292   2.53604   1.31139 
 H                    -1.22755   1.14793   1.6942 
 H                    -0.7084    2.32666   0.47235 
 H                    -2.62446   2.72987  -1.43955 
 H                    -1.24133   1.74201  -1.9005 
 H                    -2.90791   1.18775  -2.26961 
 C                    -3.48911  -0.50674   1.4409 
 H                    -4.39436   0.04389   1.72844 
 H                    -3.74215  -1.57005   1.46162 
 H                    -2.73589  -0.31994   2.20911 
 C                    -1.11549  -2.04751   0.56307 
 H                    -1.97823  -2.71075   0.63217 
 H                    -0.235    -2.65268   0.30189 
 H                    -0.907    -1.57773   1.52446 
 C                    -1.71308  -1.57353  -1.87929 
 H                    -0.87638  -2.17082  -2.26704 
 H                    -2.58925  -2.21847  -1.78622 
 H                    -1.8997   -0.77333  -2.5958 
 
                    Distance matrix (angstroms):
                    1          2          3          4          5
     1  O    0.000000
     2  C    1.297045   0.000000
     3  C    2.816390   2.150000   0.000000
     4  C    2.350005   2.381578   1.371089   0.000000
     5  C    2.815766   3.083798   2.505032   1.493393   0.000000
     6  Fe   1.898750   2.960789   4.501259   3.890246   4.355264
     7  Cl   3.196692   4.492392   5.569906   4.495301   4.400828
     8  C    2.729247   3.185092   2.514807   1.493887   2.522765
     9  Cl   3.223123   3.786411   5.833113   5.558868   5.892707
    10  Cl   3.323498   3.951680   4.910155   4.510716   5.496063
    11  H    3.376704   2.531212   1.087566   2.095283   2.662853
    12  H    3.808293   4.153649   2.994208   2.105627   2.971849
    13  H    2.789492   3.130926   2.733431   2.173681   3.441476
    14  H    2.706873   3.555056   3.376277   2.148261   2.625908
    15  H    3.751871   4.111412   3.203084   2.111583   1.098173
    16  H    2.437716   3.090754   3.228168   2.132480   1.095374
    17  H    3.331266   3.270769   2.653207   2.169520   1.091952
    18  C    3.796151   3.049428   1.508897   2.547078   3.898194
    19  H    4.701464   4.038011   2.137849   3.006184   4.229794
    20  H    4.256215   3.253783   2.165046   3.416794   4.670023
    21  H    3.722960   3.218124   2.183332   2.797109   4.279411
    22  C    2.396367   1.506937   2.818950   3.412007   4.444831
    23  H    3.318999   2.177146   2.912934   3.871716   4.919323
    24  H    2.697318   2.083532   3.835806   4.280833   5.141689
    25  H    2.658384   2.167534   3.006673   3.442998   4.685492
    26  C    2.371205   1.511353   2.803392   3.185553   3.332619
    27  H    2.686996   2.090850   3.824101   4.100365   4.173680
    28  H    3.299647   2.179614   2.877736   3.656603   3.932767
    29  H    2.608768   2.167657   2.986190   3.053660   2.710123
                    6          7          8          9         10
     6  Fe   0.000000
     7  Cl   2.194711   0.000000
     8  C    3.568009   3.967993   0.000000
     9  Cl   2.198459   3.744401   5.589727   0.000000
    10  Cl   2.210116   3.673547   3.666304   3.651401   0.000000
    11  H    5.212854   6.228595   3.468252   6.299978   5.869042
    12  H    4.621176   4.791073   1.100278   6.679465   4.482065
    13  H    3.319236   4.174380   1.090280   5.278911   2.856032
    14  H    3.148639   3.024673   1.092679   5.279421   3.557564
    15  H    5.082865   4.770512   2.717846   6.791936   6.054092
    16  H    3.714098   3.491693   2.801467   5.195037   5.181756
    17  H    5.053941   5.246152   3.476745   6.297561   6.311296
    18  C    5.157673   6.464934   3.046234   6.474684   4.924015
    19  H    6.075067   7.175488   3.428656   7.517527   5.756676
    20  H    5.618868   7.159789   4.044076   6.610976   5.383407
    21  H    4.721663   6.088687   2.753019   6.159464   4.089071
    22  C    3.359533   5.316908   3.877250   3.850345   3.629114
    23  H    4.445993   6.363149   4.526369   4.782842   4.594461
    24  H    3.206309   5.306696   4.674453   3.071478   3.667385
    25  H    3.227478   5.180394   3.491752   4.089233   2.853097
    26  C    4.044323   5.322330   4.353922   4.345554   5.379390
    27  H    3.966798   5.331472   5.106844   3.713913   5.491115
    28  H    4.983727   6.366351   4.922210   5.202485   6.063828
    29  H    4.342181   5.175055   4.332722   4.841310   5.884562
                   11         12         13         14         15
    11  H    0.000000
    12  H    3.877641   0.000000
    13  H    3.803694   1.767695   0.000000
    14  H    4.231252   1.770129   1.775339   0.000000
    15  H    3.395873   2.782679   3.778131   2.736644   0.000000
    16  H    3.461749   3.459774   3.643491   2.501247   1.761073
    17  H    2.347156   3.882072   4.305461   3.695036   1.774112
    18  C    2.199091   3.286858   2.813666   4.086384   4.418174
    19  H    2.616925   3.312181   3.353916   4.513877   4.514776
    20  H    2.490993   4.370390   3.710078   5.036522   5.306156
    21  H    3.107347   3.032451   2.166760   3.759187   4.756724
    22  C    3.312562   4.781489   3.391590   4.394004   5.395441
    23  H    3.172616   5.297700   4.071965   5.197451   5.857473
    24  H    4.241951   5.658084   4.167539   5.004695   6.141171
    25  H    3.771629   4.333591   2.749696   4.048534   5.503677
    26  C    2.550073   5.230718   4.517957   4.663799   4.420769
    27  H    3.642334   6.070793   5.179661   5.268754   5.268514
    28  H    2.348187   5.684509   5.029932   5.412656   4.960585
    29  H    2.594536   5.132527   4.748384   4.521354   3.759599
                   16         17         18         19         20
    16  H    0.000000
    17  H    1.794701   0.000000
    18  C    4.612418   4.120315   0.000000
    19  H    5.098476   4.416145   1.097883   0.000000
    20  H    5.341136   4.714179   1.093197   1.761062   0.000000
    21  H    4.834691   4.728805   1.091953   1.764633   1.770325
    22  C    4.521671   4.658723   2.962871   4.059923   2.816858
    23  H    5.175384   4.948024   2.791860   3.824595   2.258455
    24  H    5.017630   5.339099   4.060990   5.158178   3.849309
    25  H    4.781514   5.103577   2.796655   3.851354   2.835855
    26  C    3.349006   3.033911   3.913565   4.777130   3.908813
    27  H    3.946876   3.925186   4.831596   5.765838   4.740933
    28  H    4.185134   3.455066   3.762195   4.552966   3.506871
    29  H    2.691443   2.229063   4.346523   5.058676   4.526815
                   21         22         23         24         25
    21  H    0.000000
    22  C    2.884377   0.000000
    23  H    2.962563   1.090403   0.000000
    24  H    3.915818   1.099873   1.775193   0.000000
    25  H    2.322849   1.090155   1.796511   1.761187   0.000000
    26  C    4.396885   2.558685   2.769657   2.847252   3.497899
    27  H    5.188390   2.842864   3.148172   2.691276   3.837728
    28  H    4.425898   2.778551   2.542503   3.176675   3.768439
    29  H    4.898152   3.495274   3.765574   3.834031   4.313821
                   26         27         28         29
    26  C    0.000000
    27  H    1.098711   0.000000
    28  H    1.091911   1.779704   0.000000
    29  H    1.090197   1.763017   1.794240   0.000000
 Framework group  C1[X(C8H16Cl3FeO)]
 Deg. of freedom    81
                         Standard orientation:                         
 ---------------------------------------------------------------------
 Center     Atomic      Atomic             Coordinates (Angstroms)
 Number     Number       Type             X           Y           Z
 ---------------------------------------------------------------------
      1          8           0       -0.325312   -0.119771   -0.620997
      2          6           0       -1.239325   -1.037155   -0.548106
      3          6           0       -3.056444   -0.064921    0.064542
      4          6           0       -2.311887    1.058446   -0.187580
      5          6           0       -2.274043    1.693817   -1.538541
      6         26           0        1.442825    0.067512    0.045236
      7         17           0        2.042581    2.024011   -0.747960
      8          6           0       -1.567856    1.790076    0.881454
      9         17           0        2.483690   -1.694302   -0.758402
     10         17           0        1.338384    0.024896    2.252472
     11          1           0       -3.686196   -0.420679   -0.747646
     12          1           0       -2.252915    2.536039    1.311389
     13          1           0       -1.227554    1.147934    1.694202
     14          1           0       -0.708401    2.326655    0.472348
     15          1           0       -2.624458    2.729865   -1.439554
     16          1           0       -1.241326    1.742014   -1.900503
     17          1           0       -2.907908    1.187745   -2.269612
     18          6           0       -3.489105   -0.506739    1.440904
     19          1           0       -4.394359    0.043885    1.728436
     20          1           0       -3.742147   -1.570045    1.461624
     21          1           0       -2.735890   -0.319937    2.209105
     22          6           0       -1.115493   -2.047510    0.563068
     23          1           0       -1.978228   -2.710754    0.632170
     24          1           0       -0.234997   -2.652683    0.301893
     25          1           0       -0.906999   -1.577733    1.524462
     26          6           0       -1.713079   -1.573531   -1.879288
     27          1           0       -0.876384   -2.170824   -2.267037
     28          1           0       -2.589246   -2.218466   -1.786224
     29          1           0       -1.899696   -0.773334   -2.595799
 ---------------------------------------------------------------------
 Rotational constants (GHZ):           0.5859353           0.3383895           0.3169317
   427 basis functions,  1056 primitive gaussians,   461 cartesian basis functions
    77 alpha electrons       72 beta electrons
       nuclear repulsion energy      1650.1817977026 Hartrees.
 NAtoms=   29 NActive=   29 NUniq=   29 SFac= 1.00D+00 NAtFMM=   60 NAOKFM=F Big=F
 Nuclear repulsion after empirical dispersion term =     1650.0781433471 Hartrees.
 Initial guess from the checkpoint file:  "checkpoint.chk"
 B after Tr=     0.000000    0.000000    0.000000
         Rot=    1.000000    0.000000    0.000000    0.000000 Ang=   0.00 deg.
 Initial guess <Sx>= 0.0000 <Sy>= 0.0000 <Sz>= 2.5000 <S**2>= 8.7615 S= 2.5019
 EnCoef did     2 forward-backward iterations
 SCF Done:  E(UB97D3) =  -3034.61224481     A.U. after   15 cycles
            NFock= 15  Conv=0.88D-08     -V/T= 2.0019
 <Sx>= 0.0000 <Sy>= 0.0000 <Sz>= 2.5000 <S**2>= 8.7594 S= 2.5016
 <L.S>= 0.000000000000E+00
 Annihilation of the first spin contaminant:
 S**2 before annihilation     8.7594,   after     8.7500
 1\1\GINC-HOLY7C04212\SP\UB97D3\Jul-CC-pVDZ\C8H16Cl3Fe1O1(6)\EKWAN\11-F
 eb-2020\0\\#t pop=none jul-cc-pvdz guess=read ub97d3 empiricaldispersi
 on=gd3bj\\theory_abbreviation b97d3_d3bj\\0,6\O,0,-0.325312,-0.119771,
 -0.620997\C,0,-1.239325,-1.037155,-0.548106\C,0,-3.056444,-0.064921,0.
 064542\C,0,-2.311887,1.058446,-0.18758\C,0,-2.274043,1.693817,-1.53854
 1\Fe,0,1.442825,0.067512,0.045236\Cl,0,2.042581,2.024011,-0.74796\C,0,
 -1.567856,1.790076,0.881454\Cl,0,2.48369,-1.694302,-0.758402\Cl,0,1.33
 8384,0.024896,2.252472\H,0,-3.686196,-0.420679,-0.747646\H,0,-2.252915
 ,2.536039,1.311389\H,0,-1.227554,1.147934,1.694202\H,0,-0.708401,2.326
 655,0.472348\H,0,-2.624458,2.729865,-1.439554\H,0,-1.241326,1.742014,-
 1.900503\H,0,-2.907908,1.187745,-2.269612\C,0,-3.489105,-0.506739,1.44
 0904\H,0,-4.394359,0.043885,1.728436\H,0,-3.742147,-1.570045,1.461624\
 H,0,-2.73589,-0.319937,2.209105\C,0,-1.115493,-2.04751,0.563068\H,0,-1
 .978228,-2.710754,0.63217\H,0,-0.234997,-2.652683,0.301893\H,0,-0.9069
 99,-1.577733,1.524462\C,0,-1.713079,-1.573531,-1.879288\H,0,-0.876384,
 -2.170824,-2.267037\H,0,-2.589246,-2.218466,-1.786224\H,0,-1.899696,-0
 .773334,-2.595799\\Version=ES64L-G16RevA.03\HF=-3034.6122448\S2=8.7594
 36\S2-1=0.\S2A=8.750028\RMSD=8.809e-09\PG=C01 [X(C8H16Cl3Fe1O1)]\\@


 I think that all right-thinking people in this
 country are sick and tired of being told that
 ordinary, decent people are fed up in this country
 with being sick and tired.  I'm certainly not!
 But I'm sick and tired of being told that I am!
                               -- Monty Python
 Job cpu time:       0 days  0 hours 48 minutes 10.4 seconds.
 Elapsed time:       0 days  0 hours 12 minutes  7.0 seconds.
 File lengths (MBytes):  RWF=    174 Int=      0 D2E=      0 Chk=     13 Scr=      1
 Normal termination of Gaussian 16 at Tue Feb 11 23:30:30 2020.
