 Entering Gaussian System, Link 0=g16
 Input=styrene-first_betaine_gs3-b3lyp_d3bj-juldz-dce.gjf
 Output=styrene-first_betaine_gs3-b3lyp_d3bj-juldz-dce.out
 Initial command:
 /SFS/product/gaussian/g16.a03/x86_64/avx/g16/l1.exe "/scratch/kwaneu.3005377.bmbhpcps002/Gau-27409.inp" -scrdir="/scratch/kwaneu.3005377.bmbhpcps002/"
 Entering Link 1 = /SFS/product/gaussian/g16.a03/x86_64/avx/g16/l1.exe PID=     27410.
  
 Copyright (c) 1988,1990,1992,1993,1995,1998,2003,2009,2016,
            Gaussian, Inc.  All Rights Reserved.
  
 This is part of the Gaussian(R) 16 program.  It is based on
 the Gaussian(R) 09 system (copyright 2009, Gaussian, Inc.),
 the Gaussian(R) 03 system (copyright 2003, Gaussian, Inc.),
 the Gaussian(R) 98 system (copyright 1998, Gaussian, Inc.),
 the Gaussian(R) 94 system (copyright 1995, Gaussian, Inc.),
 the Gaussian 92(TM) system (copyright 1992, Gaussian, Inc.),
 the Gaussian 90(TM) system (copyright 1990, Gaussian, Inc.),
 the Gaussian 88(TM) system (copyright 1988, Gaussian, Inc.),
 the Gaussian 86(TM) system (copyright 1986, Carnegie Mellon
 University), and the Gaussian 82(TM) system (copyright 1983,
 Carnegie Mellon University). Gaussian is a federally registered
 trademark of Gaussian, Inc.
  
 This software contains proprietary and confidential information,
 including trade secrets, belonging to Gaussian, Inc.
  
 This software is provided under written license and may be
 used, copied, transmitted, or stored only in accord with that
 written license.
  
 The following legend is applicable only to US Government
 contracts under FAR:
  
                    RESTRICTED RIGHTS LEGEND
  
 Use, reproduction and disclosure by the US Government is
 subject to restrictions as set forth in subparagraphs (a)
 and (c) of the Commercial Computer Software - Restricted
 Rights clause in FAR 52.227-19.
  
 Gaussian, Inc.
 340 Quinnipiac St., Bldg. 40, Wallingford CT 06492
  
  
 ---------------------------------------------------------------
 Warning -- This program may not be used in any manner that
 competes with the business of Gaussian, Inc. or will provide
 assistance to any competitor of Gaussian, Inc.  The licensee
 of this program is prohibited from giving any competitor of
 Gaussian, Inc. access to this program.  By using this program,
 the user acknowledges that Gaussian, Inc. is engaged in the
 business of creating and licensing software in the field of
 computational chemistry and represents and warrants to the
 licensee that it is not a competitor of Gaussian, Inc. and that
 it will not use this program in any manner prohibited above.
 ---------------------------------------------------------------
  

 Cite this work as:
 Gaussian 16, Revision A.03,
 M. J. Frisch, G. W. Trucks, H. B. Schlegel, G. E. Scuseria, 
 M. A. Robb, J. R. Cheeseman, G. Scalmani, V. Barone, 
 G. A. Petersson, H. Nakatsuji, X. Li, M. Caricato, A. V. Marenich, 
 J. Bloino, B. G. Janesko, R. Gomperts, B. Mennucci, H. P. Hratchian, 
 J. V. Ortiz, A. F. Izmaylov, J. L. Sonnenberg, D. Williams-Young, 
 F. Ding, F. Lipparini, F. Egidi, J. Goings, B. Peng, A. Petrone, 
 T. Henderson, D. Ranasinghe, V. G. Zakrzewski, J. Gao, N. Rega, 
 G. Zheng, W. Liang, M. Hada, M. Ehara, K. Toyota, R. Fukuda, 
 J. Hasegawa, M. Ishida, T. Nakajima, Y. Honda, O. Kitao, H. Nakai, 
 T. Vreven, K. Throssell, J. A. Montgomery, Jr., J. E. Peralta, 
 F. Ogliaro, M. J. Bearpark, J. J. Heyd, E. N. Brothers, K. N. Kudin, 
 V. N. Staroverov, T. A. Keith, R. Kobayashi, J. Normand, 
 K. Raghavachari, A. P. Rendell, J. C. Burant, S. S. Iyengar, 
 J. Tomasi, M. Cossi, J. M. Millam, M. Klene, C. Adamo, R. Cammi, 
 J. W. Ochterski, R. L. Martin, K. Morokuma, O. Farkas, 
 J. B. Foresman, and D. J. Fox, Gaussian, Inc., Wallingford CT, 2016.
 
 ******************************************
 Gaussian 16:  ES64L-G16RevA.03 25-Dec-2016
                30-Jun-2021 
 ******************************************
 %nprocshared=16
 Will use up to   16 processors via shared memory.
 %mem=16GB
 ----------------------------------------------------------------------
 #p opt=maxstep=5 freq=noraman ub3lyp scrf=(solvent=dichloroethane,pcm)
  jul-cc-pvdz pop=cm5
 ----------------------------------------------------------------------
 1/8=5,18=20,19=15,26=3,38=1/1,3;
 2/9=110,12=2,17=6,18=5,40=1/2;
 3/5=16,7=50,11=2,25=1,30=1,70=2201,71=1,72=10,74=-5,116=2/1,2,3;
 4//1;
 5/5=2,38=5,53=10/2;
 6/7=2,8=2,9=2,10=2,28=1,79=1/1;
 7//1,2,3,16;
 1/8=5,18=20,19=15,26=3/3(2);
 2/9=110/2;
 99//99;
 2/9=110/2;
 3/5=16,7=50,11=2,25=1,30=1,70=2205,71=1,72=10,74=-5,116=2/1,2,3;
 4/5=5,16=3,69=1/1;
 5/5=2,38=5,53=10/2;
 7//1,2,3,16;
 1/8=5,18=20,19=15,26=3/3(-5);
 2/9=110/2;
 6/7=2,8=2,9=2,10=2,19=2,28=1,79=1/1;
 99/9=1/99;
 Leave Link    1 at Wed Jun 30 07:46:57 2021, MaxMem=  2147483648 cpu:               2.9 elap:               0.2
 (Enter /SFS/product/gaussian/g16.a03/x86_64/avx/g16/l101.exe)
 -----
 title
 -----
 Symbolic Z-matrix:
 Charge =  0 Multiplicity = 6
 C                    -0.08347  -2.88432   0.12187 
 C                     0.14637  -1.56541   0.55141 
 C                     0.23828  -1.31736   1.92871 
 C                     0.0997   -2.35735   2.85374 
 C                    -0.13493  -3.66454   2.41746 
 C                    -0.22257  -3.92372   1.04556 
 C                     0.27613  -0.40572  -0.44499 
 C                     1.48185  -0.50809  -1.50308 
 C                     0.87051  -0.38112  -2.90605 
 C                    -0.46761   0.33605  -2.69434 
 C                    -1.01867  -0.38096  -1.43324 
 C                    -2.14844   0.29715  -0.82258 
 O                     0.37547   0.79169   0.231 
 Fe                    0.8058    2.56261   0.41254 
 Cl                    2.32664   3.19019  -1.13079 
 Cl                    1.61098   2.902     2.50106 
 Cl                   -1.11776   3.75746   0.15668 
 H                     0.42201  -0.30204   2.2737 
 H                     0.17635  -2.14118   3.92054 
 H                    -0.24625  -4.47548   3.13883 
 H                    -0.39864  -4.93967   0.68907 
 H                    -0.13946  -3.12238  -0.93983 
 H                     2.08652   0.37637  -1.2815 
 C                     2.40228  -1.70787  -1.34844 
 H                     1.52998   0.17092  -3.58767 
 H                     0.70473  -1.37693  -3.33758 
 H                    -0.32356   1.40541  -2.49215 
 H                    -1.15401   0.23496  -3.54347 
 H                    -1.24998  -1.41642  -1.69603 
 O                     3.304    -1.49569  -0.37501 
 O                     2.36387  -2.7133   -2.03405 
 C                     4.29913  -2.53285  -0.1271 
 C                     5.24121  -2.14423   0.9984 
 H                     3.77585  -3.47232   0.08408 
 H                     4.8296   -2.61993  -1.0826 
 H                     6.0143   -2.91985   1.10014 
 H                     5.73634  -1.18807   0.78187 
 H                     4.70775  -2.05797   1.95363 
 C                    -3.4122   -0.22369  -0.50992 
 C                    -4.353     0.64821   0.12464 
 C                    -3.79223  -1.57418  -0.78709 
 C                    -5.61303   0.18879   0.46844 
 H                    -4.05719   1.67617   0.33652 
 C                    -5.05246  -2.02192  -0.43588 
 H                    -3.09305  -2.24919  -1.2764 
 C                    -5.95909  -1.1433    0.18818 
 H                    -6.3296    0.85105   0.9525 
 H                    -5.34817  -3.04978  -0.64254 
 H                    -6.9523   -1.5063    0.45727 
 H                    -1.98675   1.3471   -0.55948 
 
 ITRead=  0  0  0  0  0  0  0  0  0  0  0  0  0  0  0  0  0  0  0  0
 ITRead=  0  0  0  0  0  0  0  0  0  0  0  0  0  0  0  0  0  0  0  0
 ITRead=  0  0  0  0  0  0  0  0  0  0
 MicOpt= -1 -1 -1 -1 -1 -1 -1 -1 -1 -1 -1 -1 -1 -1 -1 -1 -1 -1 -1 -1
 MicOpt= -1 -1 -1 -1 -1 -1 -1 -1 -1 -1 -1 -1 -1 -1 -1 -1 -1 -1 -1 -1
 MicOpt= -1 -1 -1 -1 -1 -1 -1 -1 -1 -1
 NAtoms=     50 NQM=       50 NQMF=       0 NMMI=      0 NMMIF=      0
                NMic=       0 NMicF=      0.
                    Isotopes and Nuclear Properties:
 (Nuclear quadrupole moments (NQMom) in fm**2, nuclear magnetic moments (NMagM)
  in nuclear magnetons)

  Atom         1           2           3           4           5           6           7           8           9          10
 IAtWgt=          12          12          12          12          12          12          12          12          12          12
 AtmWgt=  12.0000000  12.0000000  12.0000000  12.0000000  12.0000000  12.0000000  12.0000000  12.0000000  12.0000000  12.0000000
 NucSpn=           0           0           0           0           0           0           0           0           0           0
 AtZEff=  -0.0000000  -0.0000000  -0.0000000  -0.0000000  -0.0000000  -0.0000000  -0.0000000  -0.0000000  -0.0000000  -0.0000000
 NQMom=    0.0000000   0.0000000   0.0000000   0.0000000   0.0000000   0.0000000   0.0000000   0.0000000   0.0000000   0.0000000
 NMagM=    0.0000000   0.0000000   0.0000000   0.0000000   0.0000000   0.0000000   0.0000000   0.0000000   0.0000000   0.0000000
 AtZNuc=   6.0000000   6.0000000   6.0000000   6.0000000   6.0000000   6.0000000   6.0000000   6.0000000   6.0000000   6.0000000

  Atom        11          12          13          14          15          16          17          18          19          20
 IAtWgt=          12          12          16          56          35          35          35           1           1           1
 AtmWgt=  12.0000000  12.0000000  15.9949146  55.9349393  34.9688527  34.9688527  34.9688527   1.0078250   1.0078250   1.0078250
 NucSpn=           0           0           0           0           3           3           3           1           1           1
 AtZEff=  -0.0000000  -0.0000000  -0.0000000  -0.0000000  -0.0000000  -0.0000000  -0.0000000  -0.0000000  -0.0000000  -0.0000000
 NQMom=    0.0000000   0.0000000   0.0000000   0.0000000  -8.1650000  -8.1650000  -8.1650000   0.0000000   0.0000000   0.0000000
 NMagM=    0.0000000   0.0000000   0.0000000   0.0000000   0.8218740   0.8218740   0.8218740   2.7928460   2.7928460   2.7928460
 AtZNuc=   6.0000000   6.0000000   8.0000000  26.0000000  17.0000000  17.0000000  17.0000000   1.0000000   1.0000000   1.0000000

  Atom        21          22          23          24          25          26          27          28          29          30
 IAtWgt=           1           1           1          12           1           1           1           1           1          16
 AtmWgt=   1.0078250   1.0078250   1.0078250  12.0000000   1.0078250   1.0078250   1.0078250   1.0078250   1.0078250  15.9949146
 NucSpn=           1           1           1           0           1           1           1           1           1           0
 AtZEff=  -0.0000000  -0.0000000  -0.0000000  -0.0000000  -0.0000000  -0.0000000  -0.0000000  -0.0000000  -0.0000000  -0.0000000
 NQMom=    0.0000000   0.0000000   0.0000000   0.0000000   0.0000000   0.0000000   0.0000000   0.0000000   0.0000000   0.0000000
 NMagM=    2.7928460   2.7928460   2.7928460   0.0000000   2.7928460   2.7928460   2.7928460   2.7928460   2.7928460   0.0000000
 AtZNuc=   1.0000000   1.0000000   1.0000000   6.0000000   1.0000000   1.0000000   1.0000000   1.0000000   1.0000000   8.0000000

  Atom        31          32          33          34          35          36          37          38          39          40
 IAtWgt=          16          12          12           1           1           1           1           1          12          12
 AtmWgt=  15.9949146  12.0000000  12.0000000   1.0078250   1.0078250   1.0078250   1.0078250   1.0078250  12.0000000  12.0000000
 NucSpn=           0           0           0           1           1           1           1           1           0           0
 AtZEff=  -0.0000000  -0.0000000  -0.0000000  -0.0000000  -0.0000000  -0.0000000  -0.0000000  -0.0000000  -0.0000000  -0.0000000
 NQMom=    0.0000000   0.0000000   0.0000000   0.0000000   0.0000000   0.0000000   0.0000000   0.0000000   0.0000000   0.0000000
 NMagM=    0.0000000   0.0000000   0.0000000   2.7928460   2.7928460   2.7928460   2.7928460   2.7928460   0.0000000   0.0000000
 AtZNuc=   8.0000000   6.0000000   6.0000000   1.0000000   1.0000000   1.0000000   1.0000000   1.0000000   6.0000000   6.0000000

  Atom        41          42          43          44          45          46          47          48          49          50
 IAtWgt=          12          12           1          12           1          12           1           1           1           1
 AtmWgt=  12.0000000  12.0000000   1.0078250  12.0000000   1.0078250  12.0000000   1.0078250   1.0078250   1.0078250   1.0078250
 NucSpn=           0           0           1           0           1           0           1           1           1           1
 AtZEff=  -0.0000000  -0.0000000  -0.0000000  -0.0000000  -0.0000000  -0.0000000  -0.0000000  -0.0000000  -0.0000000  -0.0000000
 NQMom=    0.0000000   0.0000000   0.0000000   0.0000000   0.0000000   0.0000000   0.0000000   0.0000000   0.0000000   0.0000000
 NMagM=    0.0000000   0.0000000   2.7928460   0.0000000   2.7928460   0.0000000   2.7928460   2.7928460   2.7928460   2.7928460
 AtZNuc=   6.0000000   6.0000000   1.0000000   6.0000000   1.0000000   6.0000000   1.0000000   1.0000000   1.0000000   1.0000000
 Leave Link  101 at Wed Jun 30 07:46:57 2021, MaxMem=  2147483648 cpu:               6.4 elap:               0.4
 (Enter /SFS/product/gaussian/g16.a03/x86_64/avx/g16/l103.exe)

 GradGradGradGradGradGradGradGradGradGradGradGradGradGradGradGradGradGrad
 Berny optimization.
 Initialization pass.
                           ----------------------------
                           !    Initial Parameters    !
                           ! (Angstroms and Degrees)  !
 --------------------------                            --------------------------
 ! Name  Definition              Value          Derivative Info.                !
 --------------------------------------------------------------------------------
 ! R1    R(1,2)                  1.406          estimate D2E/DX2                !
 ! R2    R(1,6)                  1.3975         estimate D2E/DX2                !
 ! R3    R(1,22)                 1.0895         estimate D2E/DX2                !
 ! R4    R(2,3)                  1.4025         estimate D2E/DX2                !
 ! R5    R(2,7)                  1.5345         estimate D2E/DX2                !
 ! R6    R(3,4)                  1.3987         estimate D2E/DX2                !
 ! R7    R(3,18)                 1.088          estimate D2E/DX2                !
 ! R8    R(4,5)                  1.3979         estimate D2E/DX2                !
 ! R9    R(4,19)                 1.0912         estimate D2E/DX2                !
 ! R10   R(5,6)                  1.3989         estimate D2E/DX2                !
 ! R11   R(5,20)                 1.0911         estimate D2E/DX2                !
 ! R12   R(6,21)                 1.091          estimate D2E/DX2                !
 ! R13   R(7,8)                  1.6074         estimate D2E/DX2                !
 ! R14   R(7,11)                 1.629          estimate D2E/DX2                !
 ! R15   R(7,13)                 1.3786         estimate D2E/DX2                !
 ! R16   R(8,9)                  1.5356         estimate D2E/DX2                !
 ! R17   R(8,23)                 1.0941         estimate D2E/DX2                !
 ! R18   R(8,24)                 1.5201         estimate D2E/DX2                !
 ! R19   R(9,10)                 1.5329         estimate D2E/DX2                !
 ! R20   R(9,25)                 1.0974         estimate D2E/DX2                !
 ! R21   R(9,26)                 1.0979         estimate D2E/DX2                !
 ! R22   R(10,11)                1.5518         estimate D2E/DX2                !
 ! R23   R(10,27)                1.0978         estimate D2E/DX2                !
 ! R24   R(10,28)                1.0965         estimate D2E/DX2                !
 ! R25   R(11,12)                1.4523         estimate D2E/DX2                !
 ! R26   R(11,29)                1.093          estimate D2E/DX2                !
 ! R27   R(12,39)                1.4022         estimate D2E/DX2                !
 ! R28   R(12,50)                1.0944         estimate D2E/DX2                !
 ! R29   R(13,14)                1.8315         estimate D2E/DX2                !
 ! R30   R(14,15)                2.2558         estimate D2E/DX2                !
 ! R31   R(14,16)                2.2639         estimate D2E/DX2                !
 ! R32   R(14,17)                2.2789         estimate D2E/DX2                !
 ! R33   R(24,30)                1.3438         estimate D2E/DX2                !
 ! R34   R(24,31)                1.2176         estimate D2E/DX2                !
 ! R35   R(30,32)                1.4586         estimate D2E/DX2                !
 ! R36   R(32,33)                1.5183         estimate D2E/DX2                !
 ! R37   R(32,34)                1.0959         estimate D2E/DX2                !
 ! R38   R(32,35)                1.0963         estimate D2E/DX2                !
 ! R39   R(33,36)                1.0998         estimate D2E/DX2                !
 ! R40   R(33,37)                1.0983         estimate D2E/DX2                !
 ! R41   R(33,38)                1.0975         estimate D2E/DX2                !
 ! R42   R(39,40)                1.4311         estimate D2E/DX2                !
 ! R43   R(39,41)                1.4301         estimate D2E/DX2                !
 ! R44   R(40,42)                1.3845         estimate D2E/DX2                !
 ! R45   R(40,43)                1.0905         estimate D2E/DX2                !
 ! R46   R(41,44)                1.3827         estimate D2E/DX2                !
 ! R47   R(41,45)                1.0881         estimate D2E/DX2                !
 ! R48   R(42,46)                1.4045         estimate D2E/DX2                !
 ! R49   R(42,47)                1.0892         estimate D2E/DX2                !
 ! R50   R(44,46)                1.4083         estimate D2E/DX2                !
 ! R51   R(44,48)                1.0893         estimate D2E/DX2                !
 ! R52   R(46,49)                1.0912         estimate D2E/DX2                !
 ! A1    A(2,1,6)              120.8004         estimate D2E/DX2                !
 ! A2    A(2,1,22)             120.7354         estimate D2E/DX2                !
 ! A3    A(6,1,22)             118.4553         estimate D2E/DX2                !
 ! A4    A(1,2,3)              118.4662         estimate D2E/DX2                !
 ! A5    A(1,2,7)              121.6277         estimate D2E/DX2                !
 ! A6    A(3,2,7)              119.9            estimate D2E/DX2                !
 ! A7    A(2,3,4)              120.7615         estimate D2E/DX2                !
 ! A8    A(2,3,18)             119.178          estimate D2E/DX2                !
 ! A9    A(4,3,18)             120.0603         estimate D2E/DX2                !
 ! A10   A(3,4,5)              120.3646         estimate D2E/DX2                !
 ! A11   A(3,4,19)             119.4919         estimate D2E/DX2                !
 ! A12   A(5,4,19)             120.1435         estimate D2E/DX2                !
 ! A13   A(4,5,6)              119.3299         estimate D2E/DX2                !
 ! A14   A(4,5,20)             120.385          estimate D2E/DX2                !
 ! A15   A(6,5,20)             120.2849         estimate D2E/DX2                !
 ! A16   A(1,6,5)              120.2762         estimate D2E/DX2                !
 ! A17   A(1,6,21)             119.5192         estimate D2E/DX2                !
 ! A18   A(5,6,21)             120.2045         estimate D2E/DX2                !
 ! A19   A(2,7,8)              116.2786         estimate D2E/DX2                !
 ! A20   A(2,7,11)             109.7672         estimate D2E/DX2                !
 ! A21   A(2,7,13)             110.1278         estimate D2E/DX2                !
 ! A22   A(8,7,11)             101.4107         estimate D2E/DX2                !
 ! A23   A(8,7,13)             108.9069         estimate D2E/DX2                !
 ! A24   A(11,7,13)            109.9704         estimate D2E/DX2                !
 ! A25   A(7,8,9)              107.3078         estimate D2E/DX2                !
 ! A26   A(7,8,23)             103.2834         estimate D2E/DX2                !
 ! A27   A(7,8,24)             115.9446         estimate D2E/DX2                !
 ! A28   A(9,8,23)             109.7679         estimate D2E/DX2                !
 ! A29   A(9,8,24)             113.5324         estimate D2E/DX2                !
 ! A30   A(23,8,24)            106.428          estimate D2E/DX2                !
 ! A31   A(8,9,10)             105.0717         estimate D2E/DX2                !
 ! A32   A(8,9,25)             111.705          estimate D2E/DX2                !
 ! A33   A(8,9,26)             110.1336         estimate D2E/DX2                !
 ! A34   A(10,9,25)            112.026          estimate D2E/DX2                !
 ! A35   A(10,9,26)            110.2939         estimate D2E/DX2                !
 ! A36   A(25,9,26)            107.6306         estimate D2E/DX2                !
 ! A37   A(9,10,11)            101.8912         estimate D2E/DX2                !
 ! A38   A(9,10,27)            111.5079         estimate D2E/DX2                !
 ! A39   A(9,10,28)            113.3508         estimate D2E/DX2                !
 ! A40   A(11,10,27)           110.3036         estimate D2E/DX2                !
 ! A41   A(11,10,28)           111.372          estimate D2E/DX2                !
 ! A42   A(27,10,28)           108.3346         estimate D2E/DX2                !
 ! A43   A(7,11,10)            102.5779         estimate D2E/DX2                !
 ! A44   A(7,11,12)            111.736          estimate D2E/DX2                !
 ! A45   A(7,11,29)            107.4368         estimate D2E/DX2                !
 ! A46   A(10,11,12)           113.7165         estimate D2E/DX2                !
 ! A47   A(10,11,29)           108.5101         estimate D2E/DX2                !
 ! A48   A(12,11,29)           112.2596         estimate D2E/DX2                !
 ! A49   A(11,12,39)           128.4219         estimate D2E/DX2                !
 ! A50   A(11,12,50)           115.7287         estimate D2E/DX2                !
 ! A51   A(39,12,50)           115.843          estimate D2E/DX2                !
 ! A52   A(7,13,14)            154.8728         estimate D2E/DX2                !
 ! A53   A(13,14,15)           111.0759         estimate D2E/DX2                !
 ! A54   A(13,14,16)           108.661          estimate D2E/DX2                !
 ! A55   A(13,14,17)           107.309          estimate D2E/DX2                !
 ! A56   A(15,14,16)           110.4665         estimate D2E/DX2                !
 ! A57   A(15,14,17)           110.2665         estimate D2E/DX2                !
 ! A58   A(16,14,17)           108.9763         estimate D2E/DX2                !
 ! A59   A(8,24,30)            110.8177         estimate D2E/DX2                !
 ! A60   A(8,24,31)            125.1277         estimate D2E/DX2                !
 ! A61   A(30,24,31)           124.0199         estimate D2E/DX2                !
 ! A62   A(24,30,32)           117.9482         estimate D2E/DX2                !
 ! A63   A(30,32,33)           111.5506         estimate D2E/DX2                !
 ! A64   A(30,32,34)           108.4545         estimate D2E/DX2                !
 ! A65   A(30,32,35)           103.7952         estimate D2E/DX2                !
 ! A66   A(33,32,34)           111.8911         estimate D2E/DX2                !
 ! A67   A(33,32,35)           111.4794         estimate D2E/DX2                !
 ! A68   A(34,32,35)           109.3225         estimate D2E/DX2                !
 ! A69   A(32,33,36)           108.9183         estimate D2E/DX2                !
 ! A70   A(32,33,37)           110.8794         estimate D2E/DX2                !
 ! A71   A(32,33,38)           111.3282         estimate D2E/DX2                !
 ! A72   A(36,33,37)           108.3792         estimate D2E/DX2                !
 ! A73   A(36,33,38)           108.4568         estimate D2E/DX2                !
 ! A74   A(37,33,38)           108.8016         estimate D2E/DX2                !
 ! A75   A(12,39,40)           117.7149         estimate D2E/DX2                !
 ! A76   A(12,39,41)           123.1667         estimate D2E/DX2                !
 ! A77   A(40,39,41)           119.1171         estimate D2E/DX2                !
 ! A78   A(39,40,42)           120.4128         estimate D2E/DX2                !
 ! A79   A(39,40,43)           118.8267         estimate D2E/DX2                !
 ! A80   A(42,40,43)           120.7596         estimate D2E/DX2                !
 ! A81   A(39,41,44)           119.9178         estimate D2E/DX2                !
 ! A82   A(39,41,45)           120.1484         estimate D2E/DX2                !
 ! A83   A(44,41,45)           119.9335         estimate D2E/DX2                !
 ! A84   A(40,42,46)           119.3006         estimate D2E/DX2                !
 ! A85   A(40,42,47)           120.4853         estimate D2E/DX2                !
 ! A86   A(46,42,47)           120.214          estimate D2E/DX2                !
 ! A87   A(41,44,46)           119.8189         estimate D2E/DX2                !
 ! A88   A(41,44,48)           120.3145         estimate D2E/DX2                !
 ! A89   A(46,44,48)           119.8663         estimate D2E/DX2                !
 ! A90   A(42,46,44)           121.4321         estimate D2E/DX2                !
 ! A91   A(42,46,49)           119.3783         estimate D2E/DX2                !
 ! A92   A(44,46,49)           119.1895         estimate D2E/DX2                !
 ! D1    D(6,1,2,3)              0.2516         estimate D2E/DX2                !
 ! D2    D(6,1,2,7)           -178.8506         estimate D2E/DX2                !
 ! D3    D(22,1,2,3)          -178.6446         estimate D2E/DX2                !
 ! D4    D(22,1,2,7)             2.2532         estimate D2E/DX2                !
 ! D5    D(2,1,6,5)              0.0194         estimate D2E/DX2                !
 ! D6    D(2,1,6,21)          -179.8908         estimate D2E/DX2                !
 ! D7    D(22,1,6,5)           178.9403         estimate D2E/DX2                !
 ! D8    D(22,1,6,21)           -0.9699         estimate D2E/DX2                !
 ! D9    D(1,2,3,4)             -0.225          estimate D2E/DX2                !
 ! D10   D(1,2,3,18)           179.6282         estimate D2E/DX2                !
 ! D11   D(7,2,3,4)            178.8932         estimate D2E/DX2                !
 ! D12   D(7,2,3,18)            -1.2536         estimate D2E/DX2                !
 ! D13   D(1,2,7,8)            -60.9787         estimate D2E/DX2                !
 ! D14   D(1,2,7,11)            53.3459         estimate D2E/DX2                !
 ! D15   D(1,2,7,13)           174.5599         estimate D2E/DX2                !
 ! D16   D(3,2,7,8)            119.9317         estimate D2E/DX2                !
 ! D17   D(3,2,7,11)          -125.7436         estimate D2E/DX2                !
 ! D18   D(3,2,7,13)            -4.5297         estimate D2E/DX2                !
 ! D19   D(2,3,4,5)             -0.0727         estimate D2E/DX2                !
 ! D20   D(2,3,4,19)           179.9123         estimate D2E/DX2                !
 ! D21   D(18,3,4,5)          -179.9247         estimate D2E/DX2                !
 ! D22   D(18,3,4,19)            0.0604         estimate D2E/DX2                !
 ! D23   D(3,4,5,6)              0.3459         estimate D2E/DX2                !
 ! D24   D(3,4,5,20)          -179.8036         estimate D2E/DX2                !
 ! D25   D(19,4,5,6)          -179.639          estimate D2E/DX2                !
 ! D26   D(19,4,5,20)            0.2115         estimate D2E/DX2                !
 ! D27   D(4,5,6,1)             -0.3193         estimate D2E/DX2                !
 ! D28   D(4,5,6,21)           179.5903         estimate D2E/DX2                !
 ! D29   D(20,5,6,1)           179.8301         estimate D2E/DX2                !
 ! D30   D(20,5,6,21)           -0.2603         estimate D2E/DX2                !
 ! D31   D(2,7,8,9)            124.9473         estimate D2E/DX2                !
 ! D32   D(2,7,8,23)          -119.1047         estimate D2E/DX2                !
 ! D33   D(2,7,8,24)            -3.1274         estimate D2E/DX2                !
 ! D34   D(11,7,8,9)             5.9713         estimate D2E/DX2                !
 ! D35   D(11,7,8,23)          121.9194         estimate D2E/DX2                !
 ! D36   D(11,7,8,24)         -122.1033         estimate D2E/DX2                !
 ! D37   D(13,7,8,9)          -109.9681         estimate D2E/DX2                !
 ! D38   D(13,7,8,23)            5.9799         estimate D2E/DX2                !
 ! D39   D(13,7,8,24)          121.9572         estimate D2E/DX2                !
 ! D40   D(2,7,11,10)         -155.1256         estimate D2E/DX2                !
 ! D41   D(2,7,11,12)           82.6932         estimate D2E/DX2                !
 ! D42   D(2,7,11,29)          -40.8564         estimate D2E/DX2                !
 ! D43   D(8,7,11,10)          -31.5884         estimate D2E/DX2                !
 ! D44   D(8,7,11,12)         -153.7696         estimate D2E/DX2                !
 ! D45   D(8,7,11,29)           82.6808         estimate D2E/DX2                !
 ! D46   D(13,7,11,10)          83.5658         estimate D2E/DX2                !
 ! D47   D(13,7,11,12)         -38.6154         estimate D2E/DX2                !
 ! D48   D(13,7,11,29)        -162.165          estimate D2E/DX2                !
 ! D49   D(2,7,13,14)          160.0343         estimate D2E/DX2                !
 ! D50   D(8,7,13,14)           31.4286         estimate D2E/DX2                !
 ! D51   D(11,7,13,14)         -78.8732         estimate D2E/DX2                !
 ! D52   D(7,8,9,10)            22.3114         estimate D2E/DX2                !
 ! D53   D(7,8,9,25)           143.9943         estimate D2E/DX2                !
 ! D54   D(7,8,9,26)           -96.4586         estimate D2E/DX2                !
 ! D55   D(23,8,9,10)          -89.264          estimate D2E/DX2                !
 ! D56   D(23,8,9,25)           32.4189         estimate D2E/DX2                !
 ! D57   D(23,8,9,26)          151.966          estimate D2E/DX2                !
 ! D58   D(24,8,9,10)          151.7702         estimate D2E/DX2                !
 ! D59   D(24,8,9,25)          -86.547          estimate D2E/DX2                !
 ! D60   D(24,8,9,26)           33.0001         estimate D2E/DX2                !
 ! D61   D(7,8,24,30)          -80.4786         estimate D2E/DX2                !
 ! D62   D(7,8,24,31)          101.5983         estimate D2E/DX2                !
 ! D63   D(9,8,24,30)          154.58           estimate D2E/DX2                !
 ! D64   D(9,8,24,31)          -23.3431         estimate D2E/DX2                !
 ! D65   D(23,8,24,30)          33.7167         estimate D2E/DX2                !
 ! D66   D(23,8,24,31)        -144.2064         estimate D2E/DX2                !
 ! D67   D(8,9,10,11)          -42.8375         estimate D2E/DX2                !
 ! D68   D(8,9,10,27)           74.8161         estimate D2E/DX2                !
 ! D69   D(8,9,10,28)         -162.6092         estimate D2E/DX2                !
 ! D70   D(25,9,10,11)        -164.3108         estimate D2E/DX2                !
 ! D71   D(25,9,10,27)         -46.6572         estimate D2E/DX2                !
 ! D72   D(25,9,10,28)          75.9175         estimate D2E/DX2                !
 ! D73   D(26,9,10,11)          75.8248         estimate D2E/DX2                !
 ! D74   D(26,9,10,27)        -166.5216         estimate D2E/DX2                !
 ! D75   D(26,9,10,28)         -43.9468         estimate D2E/DX2                !
 ! D76   D(9,10,11,7)           46.1165         estimate D2E/DX2                !
 ! D77   D(9,10,11,12)         166.9442         estimate D2E/DX2                !
 ! D78   D(9,10,11,29)         -67.3661         estimate D2E/DX2                !
 ! D79   D(27,10,11,7)         -72.3992         estimate D2E/DX2                !
 ! D80   D(27,10,11,12)         48.4285         estimate D2E/DX2                !
 ! D81   D(27,10,11,29)        174.1182         estimate D2E/DX2                !
 ! D82   D(28,10,11,7)         167.2722         estimate D2E/DX2                !
 ! D83   D(28,10,11,12)        -71.9001         estimate D2E/DX2                !
 ! D84   D(28,10,11,29)         53.7896         estimate D2E/DX2                !
 ! D85   D(7,11,12,39)        -118.3259         estimate D2E/DX2                !
 ! D86   D(7,11,12,50)          60.7054         estimate D2E/DX2                !
 ! D87   D(10,11,12,39)        126.1301         estimate D2E/DX2                !
 ! D88   D(10,11,12,50)        -54.8387         estimate D2E/DX2                !
 ! D89   D(29,11,12,39)          2.4543         estimate D2E/DX2                !
 ! D90   D(29,11,12,50)       -178.5144         estimate D2E/DX2                !
 ! D91   D(11,12,39,40)        178.4797         estimate D2E/DX2                !
 ! D92   D(11,12,39,41)         -1.1069         estimate D2E/DX2                !
 ! D93   D(50,12,39,40)         -0.5506         estimate D2E/DX2                !
 ! D94   D(50,12,39,41)        179.8628         estimate D2E/DX2                !
 ! D95   D(7,13,14,15)         -20.6275         estimate D2E/DX2                !
 ! D96   D(7,13,14,16)        -142.3411         estimate D2E/DX2                !
 ! D97   D(7,13,14,17)          99.965          estimate D2E/DX2                !
 ! D98   D(8,24,30,32)        -177.8196         estimate D2E/DX2                !
 ! D99   D(31,24,30,32)          0.131          estimate D2E/DX2                !
 ! D100  D(24,30,32,33)       -180.0            estimate D2E/DX2                !
 ! D101  D(24,30,32,34)        -56.3311         estimate D2E/DX2                !
 ! D102  D(24,30,32,35)         59.8444         estimate D2E/DX2                !
 ! D103  D(30,32,33,36)       -175.9696         estimate D2E/DX2                !
 ! D104  D(30,32,33,37)        -56.7951         estimate D2E/DX2                !
 ! D105  D(30,32,33,38)         64.4863         estimate D2E/DX2                !
 ! D106  D(34,32,33,36)         62.3297         estimate D2E/DX2                !
 ! D107  D(34,32,33,37)       -178.4958         estimate D2E/DX2                !
 ! D108  D(34,32,33,38)        -57.2144         estimate D2E/DX2                !
 ! D109  D(35,32,33,36)        -60.4441         estimate D2E/DX2                !
 ! D110  D(35,32,33,37)         58.7303         estimate D2E/DX2                !
 ! D111  D(35,32,33,38)       -179.9883         estimate D2E/DX2                !
 ! D112  D(12,39,40,42)       -179.4428         estimate D2E/DX2                !
 ! D113  D(12,39,40,43)          0.2126         estimate D2E/DX2                !
 ! D114  D(41,39,40,42)          0.1611         estimate D2E/DX2                !
 ! D115  D(41,39,40,43)        179.8165         estimate D2E/DX2                !
 ! D116  D(12,39,41,44)        179.2627         estimate D2E/DX2                !
 ! D117  D(12,39,41,45)         -0.9229         estimate D2E/DX2                !
 ! D118  D(40,39,41,44)         -0.3184         estimate D2E/DX2                !
 ! D119  D(40,39,41,45)        179.496          estimate D2E/DX2                !
 ! D120  D(39,40,42,46)          0.0162         estimate D2E/DX2                !
 ! D121  D(39,40,42,47)        179.9287         estimate D2E/DX2                !
 ! D122  D(43,40,42,46)       -179.6325         estimate D2E/DX2                !
 ! D123  D(43,40,42,47)          0.28           estimate D2E/DX2                !
 ! D124  D(39,41,44,46)          0.2957         estimate D2E/DX2                !
 ! D125  D(39,41,44,48)       -179.9038         estimate D2E/DX2                !
 ! D126  D(45,41,44,46)       -179.5191         estimate D2E/DX2                !
 ! D127  D(45,41,44,48)          0.2814         estimate D2E/DX2                !
 ! D128  D(40,42,46,44)         -0.0419         estimate D2E/DX2                !
 ! D129  D(40,42,46,49)       -179.9118         estimate D2E/DX2                !
 ! D130  D(47,42,46,44)       -179.9547         estimate D2E/DX2                !
 ! D131  D(47,42,46,49)          0.1754         estimate D2E/DX2                !
 ! D132  D(41,44,46,42)         -0.1167         estimate D2E/DX2                !
 ! D133  D(41,44,46,49)        179.7535         estimate D2E/DX2                !
 ! D134  D(48,44,46,42)       -179.918          estimate D2E/DX2                !
 ! D135  D(48,44,46,49)         -0.0479         estimate D2E/DX2                !
 --------------------------------------------------------------------------------
 Trust Radius=5.00D-02 FncErr=1.00D-07 GrdErr=1.00D-06 EigMax=2.50D+02 EigMin=1.00D-04
 Number of steps in this run=    289 maximum allowed number of steps=    300.
 GradGradGradGradGradGradGradGradGradGradGradGradGradGradGradGradGradGrad

 Leave Link  103 at Wed Jun 30 07:46:57 2021, MaxMem=  2147483648 cpu:               0.3 elap:               0.1
 (Enter /SFS/product/gaussian/g16.a03/x86_64/avx/g16/l202.exe)
                          Input orientation:                          
 ---------------------------------------------------------------------
 Center     Atomic      Atomic             Coordinates (Angstroms)
 Number     Number       Type             X           Y           Z
 ---------------------------------------------------------------------
      1          6           0       -0.083474   -2.884317    0.121872
      2          6           0        0.146373   -1.565410    0.551408
      3          6           0        0.238279   -1.317361    1.928712
      4          6           0        0.099701   -2.357352    2.853738
      5          6           0       -0.134925   -3.664537    2.417455
      6          6           0       -0.222566   -3.923720    1.045555
      7          6           0        0.276130   -0.405718   -0.444994
      8          6           0        1.481845   -0.508090   -1.503079
      9          6           0        0.870505   -0.381115   -2.906047
     10          6           0       -0.467607    0.336051   -2.694342
     11          6           0       -1.018671   -0.380963   -1.433237
     12          6           0       -2.148437    0.297151   -0.822580
     13          8           0        0.375470    0.791686    0.230996
     14         26           0        0.805801    2.562605    0.412541
     15         17           0        2.326642    3.190193   -1.130787
     16         17           0        1.610982    2.902004    2.501062
     17         17           0       -1.117760    3.757460    0.156678
     18          1           0        0.422006   -0.302036    2.273696
     19          1           0        0.176353   -2.141182    3.920541
     20          1           0       -0.246254   -4.475485    3.138830
     21          1           0       -0.398635   -4.939672    0.689071
     22          1           0       -0.139457   -3.122379   -0.939833
     23          1           0        2.086521    0.376367   -1.281500
     24          6           0        2.402275   -1.707872   -1.348437
     25          1           0        1.529977    0.170917   -3.587670
     26          1           0        0.704728   -1.376933   -3.337576
     27          1           0       -0.323557    1.405406   -2.492149
     28          1           0       -1.154005    0.234963   -3.543470
     29          1           0       -1.249977   -1.416422   -1.696026
     30          8           0        3.304000   -1.495685   -0.375012
     31          8           0        2.363869   -2.713303   -2.034050
     32          6           0        4.299132   -2.532848   -0.127095
     33          6           0        5.241212   -2.144234    0.998396
     34          1           0        3.775848   -3.472318    0.084083
     35          1           0        4.829596   -2.619927   -1.082604
     36          1           0        6.014304   -2.919852    1.100135
     37          1           0        5.736337   -1.188072    0.781868
     38          1           0        4.707749   -2.057972    1.953626
     39          6           0       -3.412197   -0.223689   -0.509923
     40          6           0       -4.353001    0.648211    0.124644
     41          6           0       -3.792233   -1.574183   -0.787093
     42          6           0       -5.613028    0.188788    0.468436
     43          1           0       -4.057192    1.676167    0.336522
     44          6           0       -5.052459   -2.021920   -0.435877
     45          1           0       -3.093049   -2.249190   -1.276396
     46          6           0       -5.959094   -1.143296    0.188178
     47          1           0       -6.329603    0.851051    0.952497
     48          1           0       -5.348168   -3.049784   -0.642541
     49          1           0       -6.952303   -1.506298    0.457268
     50          1           0       -1.986748    1.347095   -0.559482
 ---------------------------------------------------------------------
                    Distance matrix (angstroms):
                    1          2          3          4          5
     1  C    0.000000
     2  C    1.406004   0.000000
     3  C    2.413203   1.402477   0.000000
     4  C    2.788250   2.435174   1.398735   0.000000
     5  C    2.425096   2.822693   2.426394   1.397900   0.000000
     6  C    1.397460   2.437606   2.790242   2.413895   1.398916
     7  C    2.567899   1.534451   2.543031   3.836878   4.356889
     8  C    3.276758   2.668769   3.738792   4.930715   5.286557
     9  C    4.042820   3.725710   4.964994   6.137978   6.334937
    10  C    4.295275   3.811485   4.960310   6.193339   6.499681
    11  C    3.091883   2.588254   3.709375   4.851291   5.137187
    12  C    3.908683   3.259314   3.984052   5.061208   5.499730
    13  O    3.706148   2.389781   2.710930   4.107464   4.989893
    14  Fe   5.526686   4.182659   4.204164   5.537508   6.609232
    15  Cl   6.654133   5.495372   5.834367   7.184077   8.101645
    16  Cl   6.481762   5.089599   4.473806   5.483537   6.795193
    17  Cl   6.721916   5.485143   5.543713   6.793178   7.820685
    18  H    3.399122   2.153686   1.087959   2.159781   3.411342
    19  H    3.879387   3.418109   2.156362   1.091180   2.162585
    20  H    3.414725   3.913751   3.416563   2.165052   1.091060
    21  H    2.155348   3.420764   3.881173   3.406244   2.163983
    22  H    1.089507   2.174776   3.410180   3.877324   3.400785
    23  H    4.160576   3.300640   4.073104   5.340493   5.911514
    24  C    3.118458   2.952761   3.946528   4.835488   4.944478
    25  H    5.069357   4.696931   5.857809   7.066086   7.317386
    26  H    3.855029   3.933380   5.287241   6.297591   6.249682
    27  H    5.029162   4.278998   5.222368   6.551031   7.060037
    28  H    4.930586   4.658364   5.856017   7.015422   7.195641
    29  H    2.611551   2.650085   3.919623   4.838112   4.818515
    30  O    3.694614   3.291462   3.838957   4.629776   4.932342
    31  O    3.265997   3.594376   4.708532   5.398484   5.192756
    32  C    4.403720   4.317605   4.711080   5.152804   5.236059
    33  C    5.446861   5.147059   5.155438   5.470178   5.764365
    34  H    3.904041   4.126473   4.534411   4.735841   4.558038
    35  H    5.065464   5.070954   5.643128   6.159192   6.163448
    36  H    6.175853   6.047167   6.051196   6.194680   6.332685
    37  H    6.097790   5.607423   5.617883   6.118131   6.578734
    38  H    5.195574   4.797394   4.530484   4.704672   5.123249
    39  C    4.307958   3.948425   4.524272   5.310382   5.581173
    40  C    5.541446   5.032555   5.310178   6.025605   6.453599
    41  C    4.037024   4.159841   4.866886   5.386664   5.292883
    42  C    6.335617   6.021195   6.216002   6.693860   6.975414
    43  H    6.052646   5.312622   5.472417   6.315490   6.945328
    44  C    5.074015   5.311402   5.837773   6.121996   5.917925
    45  H    3.378769   3.781835   4.715800   5.221433   4.939457
    46  C    6.128496   6.130811   6.439502   6.729646   6.726610
    47  H    7.325097   6.923758   6.985133   7.432666   7.804529
    48  H    5.322472   5.815399   6.389133   6.510200   6.076134
    49  H    7.013718   7.099546   7.342024   7.496541   7.414646
    50  H    4.689514   3.777164   4.270969   5.452180   6.116196
                    6          7          8          9         10
     6  C    0.000000
     7  C    3.853151   0.000000
     8  C    4.589889   1.607412   0.000000
     9  C    5.418488   2.531930   1.535636   0.000000
    10  C    5.673846   2.482525   2.435579   1.532870   0.000000
    11  C    4.396512   1.629032   2.504719   2.395445   1.551827
    12  C    5.001466   2.552474   3.780270   3.730267   2.515988
    13  O    4.822469   1.378625   2.433208   3.385493   3.078309
    14  Fe   6.597777   3.134782   3.681821   4.436519   4.028875
    15  Cl   7.864012   4.195889   3.811769   4.245718   4.289366
    16  Cl   7.216017   4.626240   5.261042   6.368988   6.156043
    17  Cl   7.784086   4.431364   5.263806   5.519174   4.500784
    18  H    3.878195   2.724574   3.928072   5.199725   5.087236
    19  H    3.406189   4.698903   5.812655   7.083925   7.092816
    20  H    2.164903   5.447906   6.346170   7.385902   7.564772
    21  H    1.090981   4.722092   5.289673   5.942729   6.267814
    22  H    2.142620   2.792459   3.127359   3.521441   3.891879
    23  H    5.407200   2.142175   1.094072   2.166016   2.919130
    24  C    4.187000   2.651850   1.520060   2.555925   3.771645
    25  H    6.426837   3.432354   2.192917   1.097384   2.194458
    26  H    5.153429   3.081231   2.173517   1.097886   2.173116
    27  H    6.397275   2.798328   2.810552   2.188322   1.097794
    28  H    6.262697   3.472220   3.415118   2.210091   1.096531
    29  H    3.854657   2.217117   2.885333   2.651878   2.163307
    30  O    4.511101   3.218839   2.359688   3.683789   4.791614
    31  O    4.199848   3.494095   2.433693   2.903380   4.213289
    32  C    4.873950   4.561829   3.732303   4.909991   6.127246
    33  C    5.746448   5.455076   4.802831   6.120159   7.237316
    34  H    4.137089   4.683159   4.070403   5.190128   6.342730
    35  H    5.635005   5.103266   3.980464   4.900166   6.276613
    36  H    6.317379   6.452514   5.756431   6.996667   8.186216
    37  H    6.562151   5.650764   4.876890   6.158589   7.272957
    38  H    5.349170   5.303072   4.975681   6.415038   7.356580
    39  C    5.126742   3.693387   5.001889   4.909962   3.708855
    40  C    6.229857   4.781643   6.167004   6.126142   4.810448
    41  C    4.649887   4.246636   5.428175   5.258755   4.282491
    42  C    6.804621   5.989155   7.396603   7.331311   6.041540
    43  H    6.823915   4.870595   6.231857   6.247308   4.885404
    44  C    5.398088   5.568308   6.791740   6.623857   5.628637
    45  H    4.054033   3.929502   4.900252   4.674957   3.948036
    46  C    6.432232   6.310542   7.657115   7.536483   6.376035
    47  H    7.752612   6.867908   8.300352   8.261244   6.922980
    48  H    5.466738   6.217945   7.338243   7.135625   6.284397
    49  H    7.174913   7.367197   8.716320   8.589194   7.441652
    50  H    5.785324   2.864625   4.045148   4.081295   2.808492
                   11         12         13         14         15
    11  C    0.000000
    12  C    1.452278   0.000000
    13  O    2.467470   2.779333   0.000000
    14  Fe   3.924307   3.922414   1.831474   0.000000
    15  Cl   4.902627   5.337698   3.378515   2.255811   0.000000
    16  Cl   5.759484   5.653767   3.336635   2.263941   3.712890
    17  Cl   4.434433   3.740986   3.321306   2.278866   3.720654
    18  H    3.977830   4.068553   2.317545   3.437639   5.235820
    19  H    5.761024   5.817844   4.717426   5.901515   7.652661
    20  H    6.185914   6.487613   6.048564   7.620642   9.143962
    21  H    5.066603   5.724614   5.801512   7.603374   8.765485
    22  H    2.920929   3.967737   4.117754   5.919584   6.779873
    23  H    3.199811   4.260487   2.321170   3.047894   2.828072
    24  C    3.670252   5.000562   3.584737   4.887407   4.903482
    25  H    3.382567   4.603519   4.037382   4.716597   3.973283
    26  H    2.754735   4.155516   4.188798   5.439996   5.325332
    27  H    2.189884   2.710328   2.877640   3.324422   3.473086
    28  H    2.202445   2.897586   4.110453   4.990870   5.164235
    29  H    1.093040   2.122845   3.351303   4.950246   5.859403
    30  O    4.587802   5.757052   3.765050   4.830213   4.846017
    31  O    4.152392   5.558003   4.622674   6.020680   5.972314
    32  C    5.883506   7.075573   5.155180   6.201468   6.136067
    33  C    6.943205   7.992698   5.734455   6.493876   6.440827
    34  H    5.903062   7.080119   5.455812   6.734193   6.925688
    35  H    6.272012   7.567688   5.762281   6.729415   6.326499
    36  H    7.894724   8.981997   6.806421   7.593327   7.477199
    37  H    7.154596   8.182286   5.741237   6.205978   5.869708
    38  H    6.861129   7.762810   5.464124   6.240983   6.536552
    39  C    2.570255   1.402183   3.990785   5.138665   6.706291
    40  C    3.821511   2.424990   4.731843   5.510084   7.256405
    41  C    3.087705   2.491027   4.899346   6.300322   7.762605
    42  C    5.004907   3.698899   6.023452   6.843939   8.637378
    43  H    4.073873   2.624604   4.521276   4.943708   6.722991
    44  C    4.467540   3.736439   6.150082   7.487115   9.060913
    45  H    2.796054   2.753560   4.852812   6.419261   7.679918
    46  C    5.255275   4.197336   6.623646   7.716725   9.443104
    47  H    5.951099   4.576008   6.744041   7.357646   9.205555
    48  H    5.147072   4.633861   6.948380   8.395442   9.903454
    49  H    6.328379   5.288437   7.682980   8.760488  10.520350
    50  H    2.164903   1.094416   2.552138   3.196971   4.725329
                   16         17         18         19         20
    16  Cl   0.000000
    17  Cl   3.697834   0.000000
    18  H    3.425089   4.830337   0.000000
    19  H    5.432017   7.115853   2.480907   0.000000
    20  H    7.634358   8.799667   4.314244   2.497727   0.000000
    21  H    8.295406   8.743037   4.969120   4.313300   2.498001
    22  H    7.155207   7.035026   4.312348   4.968472   4.298580
    23  H    4.573047   4.875199   3.983749   6.086709   6.965747
    24  C    6.057701   6.672771   4.360927   5.736254   5.899996
    25  H    6.673684   5.821851   5.983886   7.971909   8.365994
    26  H    7.295224   6.472501   5.720289   7.317344   7.242184
    27  H    5.560072   3.630317   5.117079   7.345120   8.142406
    28  H    7.162027   5.108854   6.050752   7.945274   8.225902
    29  H    6.667041   5.497185   4.449278   5.839993   5.808714
    30  O    5.520668   6.886958   4.092229   5.352627   5.816408
    31  O    7.257117   7.667581   5.304877   6.369435   6.056130
    32  C    6.608402   8.306095   5.076655   5.790861   5.924579
    33  C    6.395396   8.716364   5.314586   5.847370   6.334704
    34  H    7.152650   8.730541   5.108164   5.426481   5.149284
    35  H    7.327609   8.807833   6.005349   6.849330   6.857686
    36  H    7.432755   9.815444   6.285221   6.530137   6.765416
    37  H    6.058292   8.475128   5.590414   6.455472   7.221756
    38  H    5.872905   8.425249   4.642558   4.940569   5.638371
    39  C    6.638397   4.643097   4.738754   6.015271   6.435399
    40  C    6.804119   4.487231   5.321850   6.534875   7.225161
    41  C    7.748738   6.039034   5.361585   6.183282   6.033605
    42  C    7.979939   5.748047   6.318347   7.131811   7.595308
    43  H    6.190001   3.606159   5.265847   6.733517   7.760090
    44  C    8.790454   7.016709   6.345830   6.806840   6.472876
    45  H    7.932963   6.483465   5.361919   6.140750   5.705686
    46  C    8.889316   6.888898   6.765762   7.250519   7.241987
    47  H    8.346098   6.020286   6.975629   7.751787   8.376107
    48  H    9.681724   8.054420   7.024917   7.222715   6.508526
    49  H    9.845815   7.863803   7.689609   7.950791   7.808837
    50  H    4.972759   2.660429   4.068000   6.075993   7.114019
                   21         22         23         24         25
    21  H    0.000000
    22  H    2.454191   0.000000
    23  H    6.190268   4.160882   0.000000
    24  C    4.737200   2.937378   2.109084   0.000000
    25  H    6.937447   4.543550   2.381254   3.050396   0.000000
    26  H    5.488570   3.083570   3.034940   2.635879   1.771842
    27  H    7.098296   4.790033   2.886705   4.293103   2.481878
    28  H    6.727692   4.368063   3.954429   4.608677   2.685110
    29  H    4.338982   2.171491   3.810268   3.680313   3.718347
    30  O    5.167478   3.850007   2.410094   1.343759   4.030619
    31  O    4.472531   2.762480   3.192070   1.217552   3.380508
    32  C    5.341156   4.550732   3.832992   2.402151   5.191738
    33  C    6.302224   5.802163   4.637179   3.709124   6.337601
    34  H    4.466032   4.062077   4.419391   2.655576   5.639048
    35  H    5.987858   4.996432   4.067161   2.606607   4.995163
    36  H    6.736055   6.486236   5.653735   4.528924   7.185928
    37  H    7.191731   6.421118   4.475055   3.990534   6.215559
    38  H    5.998204   5.744604   4.823161   4.042450   6.765512
    39  C    5.723604   4.392955   5.584917   6.059207   5.835523
    40  C    6.868772   5.753643   6.596862   7.304440   6.972698
    41  C    5.002208   3.970266   6.213601   6.221327   6.262150
    42  C    7.317081   6.550346   7.898134   8.434656   8.214307
    43  H    7.568266   6.324854   6.484804   7.484352   6.991532
    44  C    5.606859   5.059898   7.578383   7.516944   7.620420
    45  H    4.285046   3.098296   5.807023   5.522391   5.707125
    46  C    6.751449   6.249588   8.318729   8.520119   8.489427
    47  H    8.293265   7.595194   8.720505   9.385525   9.102126
    48  H    5.462851   5.217693   8.211052   7.897366   8.145893
    49  H    7.402186   7.139922   9.395109   9.529393   9.545871
    50  H    6.603365   4.851118   4.249134   5.405441   4.787554
                   26         27         28         29         30
    26  H    0.000000
    27  H    3.084401   0.000000
    28  H    2.468904   1.779004   0.000000
    29  H    2.552865   3.074862   2.479785   0.000000
    30  O    3.942981   5.104681   5.736556   4.742369   0.000000
    31  O    2.497562   4.939218   4.831776   3.854354   2.262487
    32  C    4.956114   6.517099   7.004934   5.873718   1.458581
    33  C    6.322111   7.466626   8.196824   7.065773   2.461637
    34  H    5.052738   6.872720   7.155873   5.714404   2.083383
    35  H    4.862558   6.689178   7.071756   6.227834   2.022882
    36  H    7.089815   8.472357   9.104975   7.927711   3.398538
    37  H    6.505580   7.359866   8.258958   7.416245   2.710952
    38  H    6.669694   7.554730   8.356780   7.016128   2.776551
    39  C    5.125882   4.015329   3.809488   2.739461   6.836920
    40  C    6.455137   4.863884   4.884609   4.148049   7.967158
    41  C    5.173638   4.880254   4.222662   2.704462   7.108621
    42  C    7.539977   6.182534   5.998367   5.128139   9.113849
    43  H    6.745094   4.691985   5.055680   4.644977   8.046992
    44  C    6.479280   6.191715   5.472531   4.051354   8.373233
    45  H    4.408220   4.743861   3.882078   2.065552   6.504037
    46  C    7.542682   6.740869   6.238083   5.079430   9.286887
    47  H    8.535248   6.945897   6.883320   6.161064  10.003787
    48  H    6.833681   6.965377   6.065967   4.535733   8.794703
    49  H    8.546795   7.817759   7.256594   6.096005  10.290022
    50  H    4.730981   2.550452   3.291578   3.077595   6.008947
                   31         32         33         34         35
    31  O    0.000000
    32  C    2.722918   0.000000
    33  C    4.218847   1.518310   0.000000
    34  H    2.656365   1.095914   2.178777   0.000000
    35  H    2.644575   1.096345   2.173999   1.788327   0.000000
    36  H    4.815751   2.144220   1.099821   2.519577   2.501567
    37  H    4.650727   2.167993   1.098307   3.090017   2.519651
    38  H    4.671702   2.172988   1.097492   2.522698   3.090200
    39  C    6.471791   8.058745   8.991385   7.910399   8.602155
    40  C    7.815119   9.221817  10.030459   9.113648   9.821317
    41  C    6.383580   8.174645   9.225836   7.850969   8.690043
    42  C    8.849602  10.296255  11.114782  10.084761  10.924422
    43  H    8.131241   9.367972  10.074416   9.376947   9.972229
    44  C    7.618011   9.370627  10.393833   8.961753   9.921234
    45  H    5.528779   7.486367   8.639769   7.108353   7.933682
    46  C    8.756422  10.356711  11.274093  10.010208  10.963173
    47  H    9.859033  11.206529  11.952305  11.025688  11.862422
    48  H    7.843789   9.674880  10.753960   9.162651  10.196338
    49  H    9.718775  11.313270  12.222176  10.913190  11.934174
    50  H    6.130991   7.399541   8.176782   7.539789   7.904016
                   36         37         38         39         40
    36  H    0.000000
    37  H    1.782589   0.000000
    38  H    1.782798   1.785424   0.000000
    39  C    9.935819   9.289480   8.681428   0.000000
    40  C   11.007437  10.276119   9.631500   1.431082   0.000000
    41  C   10.076737   9.664594   8.944009   1.430065   2.466731
    42  C   12.052283  11.436873  10.666403   2.443559   1.384533
    43  H   11.096915  10.213492   9.663488   2.177600   1.090453
    44  C   11.208874  10.889276  10.048517   2.435072   2.816563
    45  H    9.436184   9.128005   8.445239   2.189062   3.456201
    46  C   12.138784  11.710576  10.850575   2.796374   2.406879
    47  H   12.907887  12.238221  11.458089   3.435840   2.152543
    48  H   11.496067  11.329659  10.432892   3.428175   3.905649
    49  H   13.059261  12.696780  11.768613   3.887531   3.392480
    50  H    9.218351   8.238467   7.920005   2.121726   2.560395
                   41         42         43         44         45
    41  C    0.000000
    42  C    2.828377   0.000000
    43  H    3.449274   2.156461   0.000000
    44  C    1.382748   2.453416   3.906789   0.000000
    45  H    1.088076   3.916436   4.351954   2.144158   0.000000
    46  C    2.414975   1.404548   3.404205   1.408337   3.403262
    47  H    3.917420   1.089214   2.494813   3.436952   5.005471
    48  H    2.149239   3.434060   4.995978   1.089338   2.475537
    49  H    3.396923   2.160347   4.303990   2.161708   4.295500
    50  H    3.441722   3.943120   2.279879   4.556767   3.830292
                   46         47         48         49         50
    46  C    0.000000
    47  H    2.167690   0.000000
    48  H    2.167492   4.327109   0.000000
    49  H    1.091166   2.487991   2.482978   0.000000
    50  H    4.747692   4.625206   5.535213   5.816560   0.000000
 Stoichiometry    C21H22Cl3FeO3(6)
 Framework group  C1[X(C21H22Cl3FeO3)]
 Deg. of freedom   144
 Full point group                 C1      NOp   1
 Largest Abelian subgroup         C1      NOp   1
 Largest concise Abelian subgroup C1      NOp   1
                         Standard orientation:                         
 ---------------------------------------------------------------------
 Center     Atomic      Atomic             Coordinates (Angstroms)
 Number     Number       Type             X           Y           Z
 ---------------------------------------------------------------------
      1          6           0       -0.263623   -2.923325    0.158482
      2          6           0        0.030325   -1.610874    0.568255
      3          6           0        0.151075   -1.350399    1.941031
      4          6           0       -0.021680   -2.371791    2.880910
      5          6           0       -0.319967   -3.672401    2.464302
      6          6           0       -0.436882   -3.944123    1.097018
      7          6           0        0.198675   -0.470386   -0.444408
      8          6           0        1.384786   -0.639473   -1.516006
      9          6           0        0.761540   -0.502412   -2.912773
     10          6           0       -0.540424    0.276404   -2.693623
     11          6           0       -1.106463   -0.399813   -1.416714
     12          6           0       -2.196864    0.335543   -0.800767
     13          8           0        0.360044    0.729535    0.214953
     14         26           0        0.871180    2.481522    0.368510
     15         17           0        2.398301    3.021599   -1.201491
     16         17           0        1.717744    2.810028    2.442357
     17         17           0       -1.000389    3.757989    0.121346
     18          1           0        0.384327   -0.340173    2.270713
     19          1           0        0.078378   -2.146267    3.943831
     20          1           0       -0.457942   -4.468699    3.197299
     21          1           0       -0.662662   -4.955458    0.755750
     22          1           0       -0.343943   -3.171580   -0.899319
     23          1           0        2.031099    0.219696   -1.313271
     24          6           0        2.252771   -1.877239   -1.357514
     25          1           0        1.436046    0.011221   -3.609534
     26          1           0        0.545964   -1.495011   -3.329459
     27          1           0       -0.346253    1.340634   -2.506905
     28          1           0       -1.241616    0.195760   -3.532793
     29          1           0       -1.387073   -1.427021   -1.663366
     30          8           0        3.175623   -1.693728   -0.398162
     31          8           0        2.160700   -2.888236   -2.029704
     32          6           0        4.126688   -2.771252   -0.149414
     33          6           0        5.099687   -2.411454    0.959226
     34          1           0        3.564848   -3.683736    0.080230
     35          1           0        4.640289   -2.893616   -1.110254
     36          1           0        5.838707   -3.219568    1.061241
     37          1           0        5.634073   -1.481102    0.724370
     38          1           0        4.583051   -2.289776    1.919835
     39          6           0       -3.478409   -0.124410   -0.465800
     40          6           0       -4.371106    0.796365    0.169230
     41          6           0       -3.921813   -1.459840   -0.720960
     42          6           0       -5.645781    0.397975    0.534497
     43          1           0       -4.027058    1.812572    0.364274
     44          6           0       -5.196069   -1.846456   -0.348417
     45          1           0       -3.259815   -2.171356   -1.210259
     46          6           0       -6.054471   -0.920621    0.275592
     47          1           0       -6.325786    1.097475    1.018934
     48          1           0       -5.539945   -2.862513   -0.538250
     49          1           0       -7.059289   -1.235535    0.561621
     50          1           0       -1.985147    1.380337   -0.553125
 ---------------------------------------------------------------------
 Rotational constants (GHZ):           0.1412710           0.1184791           0.0853702
 Leave Link  202 at Wed Jun 30 07:46:58 2021, MaxMem=  2147483648 cpu:               0.2 elap:               0.0
 (Enter /SFS/product/gaussian/g16.a03/x86_64/avx/g16/l301.exe)
 Standard basis: Jul-CC-pVDZ (5D, 7F)
 Ernie: Thresh=  0.10000D-02 Tol=  0.10000D-05 Strict=F.
 Ernie:  142 primitive shells out of 1058 were deleted.
 There are   866 symmetry adapted cartesian basis functions of A   symmetry.
 There are   802 symmetry adapted basis functions of A   symmetry.
   802 basis functions,  1743 primitive gaussians,   866 cartesian basis functions
   127 alpha electrons      122 beta electrons
       nuclear repulsion energy      3774.1009899129 Hartrees.
 IExCor=  402 DFT=T Ex+Corr=B3LYP ExCW=0 ScaHFX=  0.200000
 ScaDFX=  0.800000  0.720000  1.000000  0.810000 ScalE2=  1.000000  1.000000
 IRadAn=      5 IRanWt=     -1 IRanGd=            0 ICorTp=0 IEmpDi=  4
 NAtoms=   50 NActive=   50 NUniq=   50 SFac= 1.00D+00 NAtFMM=   60 NAOKFM=F Big=F
 Integral buffers will be    131072 words long.
 Raffenetti 2 integral format.
 Two-electron integral symmetry is turned on.
 ------------------------------------------------------------------------------
 Polarizable Continuum Model (PCM)
 =================================
 Model                : PCM.
 Atomic radii         : UFF (Universal Force Field).
 Polarization charges : Total charges.
 Charge compensation  : None.
 Solution method      : On-the-fly selection.
 Cavity type          : Scaled VdW (van der Waals Surface) (Alpha=1.100).
 Cavity algorithm     : GePol (No added spheres)
                        Default sphere list used, NSphG=   50.
                        Lebedev-Laikov grids with approx.  5.0 points / Ang**2.
                        Smoothing algorithm: York/Karplus (Gamma=1.0000).
                        Polarization charges: spherical gaussians, with
                                              point-specific exponents (IZeta= 3).
                        Self-potential: point-specific (ISelfS= 7).
                        Self-field    : sphere-specific E.n sum rule (ISelfD= 2).
 1st derivatives      : Analytical E(r).r(x)/FMM algorithm (CHGder, D1EAlg=3).
                        Cavity 1st derivative terms included.
 Solvent              : DiChloroEthane, Eps=  10.125000 Eps(inf)=   2.087447
 ------------------------------------------------------------------------------
 GePol: Number of generator spheres                  =      50
 GePol: Total number of spheres                      =      50
 GePol: Number of exposed spheres                    =      50 (100.00%)
 GePol: Number of points                             =    3852
 GePol: Average weight of points                     =       0.14
 GePol: Minimum weight of points                     =   0.14D-11
 GePol: Maximum weight of points                     =    0.21616
 GePol: Number of points with low weight             =     251
 GePol: Fraction of low-weight points (<1% of avg)   =       6.52%
 GePol: Cavity surface area                          =    523.951 Ang**2
 GePol: Cavity volume                                =    583.538 Ang**3
 Leave Link  301 at Wed Jun 30 07:46:58 2021, MaxMem=  2147483648 cpu:               1.9 elap:               0.2
 (Enter /SFS/product/gaussian/g16.a03/x86_64/avx/g16/l302.exe)
 NPDir=0 NMtPBC=     1 NCelOv=     1 NCel=       1 NClECP=     1 NCelD=      1
         NCelK=      1 NCelE2=     1 NClLst=     1 CellRange=     0.0.
 One-electron integrals computed using PRISM.
 One-electron integral symmetry used in STVInt
 NBasis=   802 RedAO= T EigKep=  1.05D-06  NBF=   802
 NBsUse=   802 1.00D-06 EigRej= -1.00D+00 NBFU=   802
 Precomputing XC quadrature grid using
 IXCGrd= 4 IRadAn=           5 IRanWt=          -1 IRanGd=           0 AccXCQ= 0.00D+00.
 Generated NRdTot=       0 NPtTot=           0 NUsed=           0 NTot=          32
 NSgBfM=   860   859   860   860   860 MxSgAt=    50 MxSgA2=    50.
 Leave Link  302 at Wed Jun 30 07:46:59 2021, MaxMem=  2147483648 cpu:              27.4 elap:               1.7
 (Enter /SFS/product/gaussian/g16.a03/x86_64/avx/g16/l303.exe)
 DipDrv:  MaxL=1.
 Leave Link  303 at Wed Jun 30 07:47:00 2021, MaxMem=  2147483648 cpu:               4.1 elap:               0.3
 (Enter /SFS/product/gaussian/g16.a03/x86_64/avx/g16/l401.exe)
 ExpMin= 1.40D-02 ExpMax= 4.32D+06 ExpMxC= 4.91D+03 IAcc=3 IRadAn=         5 AccDes= 0.00D+00
 Harris functional with IExCor=  402 and IRadAn=       5 diagonalized for initial guess.
 HarFok:  IExCor=  402 AccDes= 0.00D+00 IRadAn=         5 IDoV= 1 UseB2=F ITyADJ=14
 ICtDFT=  3500011 ScaDFX=  1.000000  1.000000  1.000000  1.000000
 FoFCou: FMM=F IPFlag=           0 FMFlag=      100000 FMFlg1=           0
         NFxFlg=           0 DoJE=T BraDBF=F KetDBF=T FulRan=T
         wScrn=  0.000000 ICntrl=       500 IOpCl=  0 I1Cent=   200000004 NGrid=           0
         NMat0=    1 NMatS0=      1 NMatT0=    0 NMatD0=    1 NMtDS0=    0 NMtDT0=    0
 Petite list used in FoFCou.
 Harris En= -3683.52676330762    
 JPrj=0 DoOrth=F DoCkMO=F.
 Initial guess <Sx>= 0.0000 <Sy>= 0.0000 <Sz>= 2.5000 <S**2>= 8.7500 S= 2.5000
 Leave Link  401 at Wed Jun 30 07:47:10 2021, MaxMem=  2147483648 cpu:             152.2 elap:               9.6
 (Enter /SFS/product/gaussian/g16.a03/x86_64/avx/g16/l502.exe)
 Integral symmetry usage will be decided dynamically.
 UHF open shell SCF:
 Using DIIS extrapolation, IDIIS=  1040.
 NGot=  2147483648 LenX=  2145961826 LenY=  2145211004
 Requested convergence on RMS density matrix=1.00D-08 within 128 cycles.
 Requested convergence on MAX density matrix=1.00D-06.
 Requested convergence on             energy=1.00D-06.
 No special actions if energy rises.
 Fock matrices will be formed incrementally for  20 cycles.

 Cycle   1  Pass 1  IDiag  1:
 FoFJK:  IHMeth= 1 ICntrl=       0 DoSepK=F KAlg= 0 I1Cent=           0 FoldK=F
 IRaf= 890000000 NMat=       1 IRICut=       1 DoRegI=T DoRafI=F ISym2E= 0 IDoP0=0 IntGTp=1.
 FoFCou: FMM=F IPFlag=           0 FMFlag=      100000 FMFlg1=           0
         NFxFlg=           0 DoJE=F BraDBF=F KetDBF=F FulRan=T
         wScrn=  0.000000 ICntrl=         0 IOpCl=  1 I1Cent=           0 NGrid=           0
         NMat0=    1 NMatS0=      1 NMatT0=    0 NMatD0=    1 NMtDS0=    0 NMtDT0=    0
 Symmetry not used in FoFCou.
 Inv3:  Mode=1 IEnd=    44513712.
 Iteration    1 A*A^-1 deviation from unit magnitude is 5.33D-15 for   3848.
 Iteration    1 A*A^-1 deviation from orthogonality  is 2.44D-15 for   3838   3708.
 Iteration    1 A^-1*A deviation from unit magnitude is 5.11D-15 for   3851.
 Iteration    1 A^-1*A deviation from orthogonality  is 2.11D-15 for   3841   3813.
 E= -3682.84515463647    
 DIIS: error= 2.40D-02 at cycle   1 NSaved=   1.
 NSaved= 1 IEnMin= 1 EnMin= -3682.84515463647     IErMin= 1 ErrMin= 2.40D-02
 ErrMax= 2.40D-02  0.00D+00 EMaxC= 1.00D-01 BMatC= 4.60D+00 BMatP= 4.60D+00
 IDIUse=3 WtCom= 7.60D-01 WtEn= 2.40D-01
 Coeff-Com:  0.100D+01
 Coeff-En:   0.100D+01
 Coeff:      0.100D+01
 Gap=     0.096 Goal=   None    Shift=    0.000
 Gap=     0.379 Goal=   None    Shift=    0.000
 GapD=    0.096 DampG=0.500 DampE=0.250 DampFc=0.1250 IDamp=-1.
 Damping current iteration by 1.25D-01
 RMSDP=3.62D-02 MaxDP=1.01D+01              OVMax= 8.20D-01

 Cycle   2  Pass 1  IDiag  1:
 RMSU=  2.53D-03    CP:  9.51D-01
 E= -3683.17491805060     Delta-E=       -0.329763414132 Rises=F Damp=T
 DIIS: error= 9.44D-03 at cycle   2 NSaved=   2.
 NSaved= 2 IEnMin= 2 EnMin= -3683.17491805060     IErMin= 2 ErrMin= 9.44D-03
 ErrMax= 9.44D-03  0.00D+00 EMaxC= 1.00D-01 BMatC= 1.29D+00 BMatP= 4.60D+00
 IDIUse=3 WtCom= 9.06D-01 WtEn= 9.44D-02
 Coeff-Com: -0.485D+00 0.149D+01
 Coeff-En:   0.000D+00 0.100D+01
 Coeff:     -0.439D+00 0.144D+01
 Gap=     0.321 Goal=   None    Shift=    0.000
 Gap=    -0.047 Goal=   None    Shift=    0.000
 RMSDP=2.98D-02 MaxDP=8.75D+00 DE=-3.30D-01 OVMax= 9.87D-01

 Cycle   3  Pass 1  IDiag  1:
 RMSU=  8.20D-03    CP:  5.83D-01  2.94D+00
 E= -3682.84429127615     Delta-E=        0.330626774445 Rises=F Damp=F
 DIIS: error= 3.36D-02 at cycle   3 NSaved=   3.
 NSaved= 3 IEnMin= 2 EnMin= -3683.17491805060     IErMin= 2 ErrMin= 9.44D-03
 ErrMax= 3.36D-02  0.00D+00 EMaxC= 1.00D-01 BMatC= 4.70D+00 BMatP= 1.29D+00
 IDIUse=2 WtCom= 0.00D+00 WtEn= 1.00D+00
 Coeff-En:   0.000D+00 0.663D+00 0.337D+00
 Coeff:      0.000D+00 0.663D+00 0.337D+00
 Gap=    -0.302 Goal=   None    Shift=    0.000
 Gap=     0.243 Goal=   None    Shift=    0.000
 RMSDP=8.03D-03 MaxDP=1.35D+00 DE= 3.31D-01 OVMax= 7.84D-01

 Cycle   4  Pass 1  IDiag  1:
 RMSU=  5.64D-03    CP:  6.00D-01  3.00D+00  3.37D-01
 E= -3674.49662877848     Delta-E=        8.347662497671 Rises=F Damp=F
 DIIS: error= 1.22D-01 at cycle   4 NSaved=   4.
 NSaved= 4 IEnMin= 2 EnMin= -3683.17491805060     IErMin= 2 ErrMin= 9.44D-03
 ErrMax= 1.22D-01  0.00D+00 EMaxC= 1.00D-01 BMatC= 4.72D+01 BMatP= 1.29D+00
 IDIUse=2 WtCom= 0.00D+00 WtEn= 1.00D+00
 EnCoef did   100 forward-backward iterations
 Coeff-En:   0.274D+00 0.427D-01 0.515D+00 0.168D+00
 Coeff:      0.274D+00 0.427D-01 0.515D+00 0.168D+00
 Gap=     0.089 Goal=   None    Shift=    0.000
 Gap=    -0.002 Goal=   None    Shift=    0.000
 RMSDP=6.17D-03 MaxDP=1.08D+00 DE= 8.35D+00 OVMax= 9.78D-01

 Cycle   5  Pass 1  IDiag  1:
 RMSU=  4.24D-03    CP:  6.21D-01  2.56D+00  5.79D-01  6.19D-01
 E= -3683.11275528818     Delta-E=       -8.616126509699 Rises=F Damp=F
 DIIS: error= 3.44D-02 at cycle   5 NSaved=   5.
 NSaved= 5 IEnMin= 2 EnMin= -3683.17491805060     IErMin= 2 ErrMin= 9.44D-03
 ErrMax= 3.44D-02  0.00D+00 EMaxC= 1.00D-01 BMatC= 5.10D+00 BMatP= 1.29D+00
 IDIUse=2 WtCom= 0.00D+00 WtEn= 1.00D+00
 Coeff-En:   0.000D+00 0.000D+00 0.451D+00 0.000D+00 0.549D+00
 Coeff:      0.000D+00 0.000D+00 0.451D+00 0.000D+00 0.549D+00
 Gap=     0.075 Goal=   None    Shift=    0.000
 Gap=     0.105 Goal=   None    Shift=    0.000
 RMSDP=3.83D-03 MaxDP=3.63D-01 DE=-8.62D+00 OVMax= 4.19D-01

 Cycle   6  Pass 1  IDiag  1:
 RMSU=  2.66D-03    CP:  6.32D-01  2.03D+00  6.40D-01  3.98D-01  5.71D-01
 E= -3683.72809343875     Delta-E=       -0.615338150564 Rises=F Damp=F
 DIIS: error= 1.37D-02 at cycle   6 NSaved=   6.
 NSaved= 6 IEnMin= 6 EnMin= -3683.72809343875     IErMin= 2 ErrMin= 9.44D-03
 ErrMax= 1.37D-02  0.00D+00 EMaxC= 1.00D-01 BMatC= 8.88D-01 BMatP= 1.29D+00
 IDIUse=3 WtCom= 8.63D-01 WtEn= 1.37D-01
 Coeff-Com: -0.400D+00 0.682D+00 0.241D+00 0.175D-02 0.131D+00 0.345D+00
 Coeff-En:   0.000D+00 0.000D+00 0.000D+00 0.000D+00 0.228D+00 0.772D+00
 Coeff:     -0.346D+00 0.588D+00 0.208D+00 0.151D-02 0.144D+00 0.403D+00
 Gap=     0.090 Goal=   None    Shift=    0.000
 Gap=     0.121 Goal=   None    Shift=    0.000
 RMSDP=3.02D-03 MaxDP=5.58D-01 DE=-6.15D-01 OVMax= 1.28D-01

 Cycle   7  Pass 1  IDiag  1:
 RMSU=  1.60D-03    CP:  6.18D-01  2.46D+00  6.82D-01  4.79D-01  8.00D-01
                    CP:  3.37D-01
 E= -3683.83425245844     Delta-E=       -0.106159019699 Rises=F Damp=F
 DIIS: error= 6.19D-03 at cycle   7 NSaved=   7.
 NSaved= 7 IEnMin= 7 EnMin= -3683.83425245844     IErMin= 7 ErrMin= 6.19D-03
 ErrMax= 6.19D-03  0.00D+00 EMaxC= 1.00D-01 BMatC= 2.55D-01 BMatP= 8.88D-01
 IDIUse=3 WtCom= 9.38D-01 WtEn= 6.19D-02
 Coeff-Com: -0.119D+00 0.172D+00 0.379D-01 0.777D-02-0.232D-01 0.342D+00
 Coeff-Com:  0.582D+00
 Coeff-En:   0.000D+00 0.000D+00 0.000D+00 0.000D+00 0.000D+00 0.299D+00
 Coeff-En:   0.701D+00
 Coeff:     -0.112D+00 0.161D+00 0.355D-01 0.729D-02-0.218D-01 0.340D+00
 Coeff:      0.590D+00
 Gap=     0.097 Goal=   None    Shift=    0.000
 Gap=     0.151 Goal=   None    Shift=    0.000
 RMSDP=1.44D-03 MaxDP=1.92D-01 DE=-1.06D-01 OVMax= 1.07D-01

 Cycle   8  Pass 1  IDiag  1:
 RMSU=  1.06D-03    CP:  6.18D-01  2.24D+00  6.97D-01  4.84D-01  7.65D-01
                    CP:  6.30D-01  9.64D-01
 E= -3683.87554001821     Delta-E=       -0.041287559765 Rises=F Damp=F
 DIIS: error= 2.67D-03 at cycle   8 NSaved=   8.
 NSaved= 8 IEnMin= 8 EnMin= -3683.87554001821     IErMin= 8 ErrMin= 2.67D-03
 ErrMax= 2.67D-03  0.00D+00 EMaxC= 1.00D-01 BMatC= 5.44D-02 BMatP= 2.55D-01
 IDIUse=3 WtCom= 9.73D-01 WtEn= 2.67D-02
 Coeff-Com: -0.508D-01 0.727D-01-0.286D-02 0.582D-02-0.300D-01 0.135D+00
 Coeff-Com:  0.401D+00 0.470D+00
 Coeff-En:   0.000D+00 0.000D+00 0.000D+00 0.000D+00 0.000D+00 0.000D+00
 Coeff-En:   0.206D+00 0.794D+00
 Coeff:     -0.494D-01 0.707D-01-0.279D-02 0.567D-02-0.292D-01 0.131D+00
 Coeff:      0.395D+00 0.478D+00
 Gap=     0.090 Goal=   None    Shift=    0.000
 Gap=     0.097 Goal=   None    Shift=    0.000
 RMSDP=5.08D-04 MaxDP=4.99D-02 DE=-4.13D-02 OVMax= 3.19D-02

 Cycle   9  Pass 1  IDiag  1:
 RMSU=  4.46D-04    CP:  6.18D-01  2.28D+00  6.91D-01  4.84D-01  7.67D-01
                    CP:  6.48D-01  9.98D-01  8.09D-01
 E= -3683.88386653664     Delta-E=       -0.008326518425 Rises=F Damp=F
 DIIS: error= 2.13D-03 at cycle   9 NSaved=   9.
 NSaved= 9 IEnMin= 9 EnMin= -3683.88386653664     IErMin= 9 ErrMin= 2.13D-03
 ErrMax= 2.13D-03  0.00D+00 EMaxC= 1.00D-01 BMatC= 1.55D-02 BMatP= 5.44D-02
 IDIUse=3 WtCom= 9.79D-01 WtEn= 2.13D-02
 Coeff-Com: -0.211D-01 0.301D-01-0.841D-02 0.167D-02 0.993D-02-0.566D-01
 Coeff-Com:  0.307D-01 0.187D+00 0.827D+00
 Coeff-En:   0.000D+00 0.000D+00 0.000D+00 0.000D+00 0.000D+00 0.000D+00
 Coeff-En:   0.000D+00 0.000D+00 0.100D+01
 Coeff:     -0.207D-01 0.294D-01-0.823D-02 0.164D-02 0.972D-02-0.554D-01
 Coeff:      0.300D-01 0.183D+00 0.831D+00
 Gap=     0.096 Goal=   None    Shift=    0.000
 Gap=     0.099 Goal=   None    Shift=    0.000
 RMSDP=4.01D-04 MaxDP=7.04D-02 DE=-8.33D-03 OVMax= 1.51D-02

 Cycle  10  Pass 1  IDiag  1:
 RMSU=  3.30D-04    CP:  6.19D-01  2.30D+00  6.81D-01  4.94D-01  7.90D-01
                    CP:  6.18D-01  1.05D+00  8.59D-01  1.07D+00
 E= -3683.88647394793     Delta-E=       -0.002607411296 Rises=F Damp=F
 DIIS: error= 3.67D-04 at cycle  10 NSaved=  10.
 NSaved=10 IEnMin=10 EnMin= -3683.88647394793     IErMin=10 ErrMin= 3.67D-04
 ErrMax= 3.67D-04  0.00D+00 EMaxC= 1.00D-01 BMatC= 1.50D-03 BMatP= 1.55D-02
 IDIUse=3 WtCom= 9.96D-01 WtEn= 3.67D-03
 Coeff-Com:  0.603D-02-0.945D-02-0.854D-02 0.307D-03 0.145D-01-0.566D-01
 Coeff-Com: -0.433D-01 0.207D-01 0.480D+00 0.596D+00
 Coeff-En:   0.000D+00 0.000D+00 0.000D+00 0.000D+00 0.000D+00 0.000D+00
 Coeff-En:   0.000D+00 0.000D+00 0.000D+00 0.100D+01
 Coeff:      0.601D-02-0.942D-02-0.851D-02 0.305D-03 0.145D-01-0.564D-01
 Coeff:     -0.431D-01 0.207D-01 0.478D+00 0.598D+00
 Gap=     0.095 Goal=   None    Shift=    0.000
 Gap=     0.096 Goal=   None    Shift=    0.000
 RMSDP=1.71D-04 MaxDP=3.72D-02 DE=-2.61D-03 OVMax= 8.61D-03

 Cycle  11  Pass 1  IDiag  1:
 RMSU=  1.41D-04    CP:  6.18D-01  2.31D+00  6.78D-01  4.97D-01  7.91D-01
                    CP:  6.30D-01  1.04D+00  8.54D-01  1.20D+00  9.06D-01
 E= -3683.88680035545     Delta-E=       -0.000326407521 Rises=F Damp=F
 DIIS: error= 1.56D-04 at cycle  11 NSaved=  11.
 NSaved=11 IEnMin=11 EnMin= -3683.88680035545     IErMin=11 ErrMin= 1.56D-04
 ErrMax= 1.56D-04  0.00D+00 EMaxC= 1.00D-01 BMatC= 1.94D-04 BMatP= 1.50D-03
 IDIUse=3 WtCom= 9.98D-01 WtEn= 1.56D-03
 Coeff-Com:  0.745D-02-0.964D-02-0.350D-02 0.670D-04 0.380D-02-0.104D-01
 Coeff-Com: -0.215D-02 0.141D-02 0.651D-01 0.293D+00 0.655D+00
 Coeff-En:   0.000D+00 0.000D+00 0.000D+00 0.000D+00 0.000D+00 0.000D+00
 Coeff-En:   0.000D+00 0.000D+00 0.000D+00 0.351D-01 0.965D+00
 Coeff:      0.744D-02-0.963D-02-0.350D-02 0.669D-04 0.379D-02-0.104D-01
 Coeff:     -0.215D-02 0.141D-02 0.650D-01 0.293D+00 0.655D+00
 Gap=     0.096 Goal=   None    Shift=    0.000
 Gap=     0.097 Goal=   None    Shift=    0.000
 RMSDP=6.37D-05 MaxDP=6.82D-03 DE=-3.26D-04 OVMax= 3.71D-03

 Cycle  12  Pass 1  IDiag  1:
 RMSU=  5.44D-05    CP:  6.19D-01  2.31D+00  6.77D-01  4.97D-01  7.91D-01
                    CP:  6.26D-01  1.04D+00  8.46D-01  1.18D+00  9.31D-01
                    CP:  8.11D-01
 E= -3683.88685373350     Delta-E=       -0.000053378052 Rises=F Damp=F
 DIIS: error= 5.97D-05 at cycle  12 NSaved=  12.
 NSaved=12 IEnMin=12 EnMin= -3683.88685373350     IErMin=12 ErrMin= 5.97D-05
 ErrMax= 5.97D-05  0.00D+00 EMaxC= 1.00D-01 BMatC= 3.37D-05 BMatP= 1.94D-04
 IDIUse=1 WtCom= 1.00D+00 WtEn= 0.00D+00
 Coeff-Com:  0.204D-02-0.179D-02-0.783D-03-0.289D-04-0.202D-04 0.795D-03
 Coeff-Com:  0.625D-02 0.234D-02-0.250D-01 0.729D-01 0.330D+00 0.613D+00
 Coeff:      0.204D-02-0.179D-02-0.783D-03-0.289D-04-0.202D-04 0.795D-03
 Coeff:      0.625D-02 0.234D-02-0.250D-01 0.729D-01 0.330D+00 0.613D+00
 Gap=     0.096 Goal=   None    Shift=    0.000
 Gap=     0.097 Goal=   None    Shift=    0.000
[...]
 -0.00000547,-0.00000303,0.00000045,-0.00000164,0.00000197,-0.00000102,
 -0.00000008,0.00000068,-0.00000150,0.00000047,0.00000167,-0.00286673,0
 .00095339,-0.00193315,-0.00960014,0.01006809,0.00541873,-0.00084487,-0
 .00052521,0.00038371,0.11297642,-0.15740533,-0.08309700,0.00083813,0.0
 0002777,0.00155740,-0.00324980,-0.00304829,-0.00281145,0.00020575,-0.0
 0004439,0.00031498,0.01996805,-0.01267387,-0.01278206,-0.11795774,0.16
 221475,0.00003316,0.00000644,0.00001343,0.00000138,-0.00002547,0.00005
 069,0.00000073,-0.00003209,-0.00004301,-0.00000156,0.00000188,-0.00000
 336,0.00001101,0.00001187,0.00000324,-0.00000302,0.00000617,-0.0000099
 6,-0.00013272,0.00003016,-0.00000293,-0.00002381,-0.00001492,-0.000008
 87,-0.00000649,0.00005851,-0.00007861,0.00010330,-0.00014805,0.0000385
 0,-0.00004304,0.00029213,-0.00056520,-0.00008323,-0.00026468,0.0003532
 8,0.00004432,0.00005310,0.00002043,-0.00002971,-0.00003301,0.00000656,
 0.00001174,0.00000206,-0.00001114,0.00000442,-0.00000078,0.00000509,-0
 .00000745,0.00001733,-0.00000533,-0.00000783,-0.00000033,-0.00000330,-
 0.00000421,-0.00000023,0.00000061,-0.00000477,-0.00000117,0.00000463,-
 0.00000715,0.00000268,0.00000082,-0.00000604,0.00000973,-0.00000054,0.
 00000259,0.00000269,0.00000659,-0.00002367,0.00001558,0.00000447,0.000
 02721,-0.00001768,0.00000190,0.00000138,-0.00000078,0.00000262,0.00000
 773,-0.00000129,0.00000811,0.00000381,-0.00000667,-0.00000119,-0.00000
 223,-0.00000168,0.00000374,0.00000831,-0.00000523,-0.00000331,0.000009
 39,-0.00000574,0.00000295,-0.00000175,-0.00000752,0.00000020,-0.000000
 33,-0.00000210,0.00000283,-0.00000355,0.00000622,-0.00000004,0.0000017
 0,0.00000566,0.00000272,0.00000031,0.00000140,-0.00000164,0.00000097,0
 .00000046,-0.00000022,0.00000164,0.00000011,-0.00000245,0.00234794,-0.
 00163839,0.00680757,0.00220554,-0.00347466,0.00206500,-0.00052834,0.00
 027375,-0.00051035,0.09075481,-0.08316266,-0.10053071,-0.00135131,0.00
 164737,-0.00344447,0.00058817,-0.00294422,0.00525348,-0.00022215,0.000
 31192,-0.00081166,0.00597759,-0.00374023,0.00012837,-0.09889792,0.0915
 2734,0.09396518,0.00002580,0.00000385,-0.00000288,-0.00002514,-0.00003
 749,0.00001471,-0.00000269,0.,-0.00000760,0.00000178,0.00001591,-0.000
 00292,0.00000501,0.00000585,-0.00002013,0.00000323,-0.00000583,-0.0000
 0930,0.00012924,0.00002506,0.00011987,-0.00002691,0.00000859,-0.000025
 04,-0.00000487,-0.00002711,0.00001655,0.00001895,0.00006857,-0.0000631
 6,-0.00009212,-0.00005203,0.00003828,0.00012314,-0.00153797,-0.0005771
 6,-0.00007399,-0.00005172,-0.00005480,0.00004547,0.00007554,0.00003413
 ,-0.00000966,-0.00000934,0.00000571,-0.00000599,-0.00001016,-0.0000190
 8,-0.00001758,-0.00003975,-0.00000995,-0.00000251,-0.00000081,0.000003
 04,0.00000035,0.00000130,-0.00000342,-0.00000417,-0.00000034,0.0000015
 1,-0.00001131,0.00001324,-0.00000253,-0.00000694,-0.00000380,0.0000034
 2,-0.00000673,0.00000488,0.00000845,0.00001205,-0.00005286,0.00000541,
 -0.00001349,0.00000633,0.00000148,0.00000051,0.00000326,0.00000236,0.0
 0000580,-0.00000651,-0.00000558,-0.00000055,-0.00000543,0.00002288,-0.
 00001229,0.00000700,0.00002646,-0.00001471,0.00001745,-0.00001179,-0.0
 0000318,0.00003250,0.00000964,0.00000641,-0.00001316,0.00000111,-0.000
 00009,0.00000095,0.00000329,-0.00000409,0.00000416,-0.00000068,-0.0000
 0010,0.00000453,0.00000116,-0.00000182,0.00000171,-0.00000234,0.000000
 39,-0.00000048,-0.00000063,0.00000139,-0.00000103,-0.00000222,-0.00370
 710,-0.00088983,0.00358855,-0.00091444,0.00029840,0.00016752,-0.005035
 79,-0.02786749,-0.00807153,-0.00209629,0.00178925,0.00333895,0.0000488
 4,0.00003568,-0.00027675,-0.07923438,-0.07875767,-0.01831160,0.0007404
 6,0.00077730,-0.00146603,0.00898276,0.02115311,0.00665509,0.00035715,0
 .00094727,0.00027783,0.08070316,0.00001837,-0.00000220,0.00000476,-0.0
 0002756,-0.00002793,-0.00000203,0.00000280,0.00000644,0.00000220,-0.00
 000023,0.00000811,-0.00000089,-0.00000134,-0.00000029,-0.00000897,-0.0
 0000103,0.00000145,-0.00000872,0.00016948,0.00011036,0.00017950,-0.000
 02302,0.00000369,-0.00004053,0.00000936,-0.00003425,0.00003964,0.00002
 589,0.00011676,-0.00010357,-0.00026245,0.00001603,0.00005468,0.0005073
 0,-0.00019575,-0.00038064,-0.00004157,-0.00011967,-0.00006727,0.000042
 14,0.00008425,0.00002634,-0.00001319,-0.00001069,0.00000936,-0.0000069
 2,-0.00000988,-0.00001964,-0.00000792,-0.00002659,-0.00000725,-0.00000
 080,-0.00000120,0.00000187,0.00000172,0.00000019,-0.00000599,-0.000000
 36,0.00000143,-0.00000035,-0.00000089,0.00000469,-0.00000026,-0.000000
 09,-0.00000407,-0.00000456,-0.00000901,0.00000573,0.00000792,0.0000264
 6,-0.00004533,0.00001815,-0.00001777,0.00001111,-0.00000018,0.00000023
 ,0.00000259,-0.00000075,0.00000212,-0.00001259,-0.00000280,-0.00000069
 ,-0.00000706,0.00002333,-0.00000638,-0.00000266,-0.00001038,-0.0000246
 5,0.00001710,-0.00001948,-0.00001056,0.00002220,0.00000432,0.00001218,
 -0.00001072,0.00000056,-0.00000031,0.00000172,0.00000249,-0.00000314,0
 .00000163,-0.00000023,-0.00000112,0.00000333,0.00000045,-0.00000177,0.
 00000121,-0.00000173,-0.00000036,-0.00000122,-0.00000074,0.00000092,-0
 .00000080,-0.00000104,-0.00211293,0.00246176,-0.00180507,0.00073559,0.
 00040014,0.00026279,-0.00011409,-0.00353425,-0.00310025,0.00217878,0.0
 0049158,-0.00297575,0.00003029,-0.00015501,0.00027916,-0.07859443,-0.2
 9730774,-0.07770354,0.00060470,0.00003865,0.00174919,-0.00717267,-0.01
 191348,-0.00386250,-0.00037738,-0.00057706,-0.00012070,0.08412394,0.30
 993310,0.00004818,-0.00000229,0.00000693,-0.00004465,-0.00003207,0.000
 06861,0.00000637,-0.00001785,-0.00005578,-0.00000493,0.00001549,-0.000
 00148,-0.00000259,0.00000308,-0.00000799,-0.00000429,0.00000418,-0.000
 01185,0.00006418,0.00000974,0.00005903,-0.00003030,0.00001184,-0.00003
 468,-0.00001043,0.00000181,-0.00001861,0.00000621,0.00001377,0.0000170
 8,-0.00002919,0.00000138,0.00006667,0.00021058,0.00036668,0.00032039,-
 0.00002578,-0.00000665,0.00000106,0.00001682,0.00000512,-0.00001527,-0
 .00000046,0.00000245,-0.00000094,-0.00000518,0.00000090,-0.00000282,0.
 00000011,0.00000116,0.00000729,0.00000080,-0.00000096,0.00000039,0.000
 00325,-0.00000304,-0.00000405,-0.00000086,-0.00000017,0.00000271,-0.00
 000625,0.00001035,0.00000357,-0.00000157,0.00000495,-0.00000409,-0.000
 00100,0.00000354,0.00000731,-0.00000357,-0.00004116,0.00003238,-0.0000
 0007,-0.00000547,-0.00000060,0.00000635,-0.00000059,0.00000165,0.00000
 945,-0.00001085,0.00000020,0.00000585,-0.00000122,0.00001197,0.0000248
 8,-0.00001794,0.00004224,-0.00000515,0.00001437,-0.00001858,0.00000578
 ,0.00001739,-0.00000051,0.00000077,-0.00001345,-0.00000427,-0.00000188
 ,-0.00000188,0.00000111,-0.00000607,0.00000546,0.00000163,0.00000258,0
 .00000619,0.00000560,-0.00000012,0.00000227,-0.00000203,0.00000201,0.0
 0000063,-0.00000044,0.00000172,-0.00000080,-0.00000233,0.00319515,-0.0
 0221879,0.00682361,0.00035871,0.00040175,-0.00075450,0.00286081,0.0057
 4072,0.00565298,0.00351912,-0.00288967,0.00397784,-0.00029502,0.000277
 64,-0.00068137,-0.01825005,-0.07769217,-0.06367533,-0.00151986,0.00171
 136,-0.00367141,-0.00462010,-0.01283719,-0.00012866,-0.00025745,-0.000
 54779,-0.00009705,0.01599313,0.08592822,0.05515954,-0.00001918,0.00000
 768,0.00001840,0.00006708,0.00001314,-0.00003567,-0.00002361,-0.000039
 52,0.00001688,0.00001175,0.00000881,-0.00001308,0.00002722,0.00001124,
 -0.00000734,0.00001661,-0.00001228,0.00000454,0.00001125,-0.00008047,-
 0.00000239,0.00001659,-0.00003524,0.00003069,0.00000700,-0.00000386,0.
 00000841,-0.00003645,0.00004380,-0.00000036,0.00003984,-0.00003311,0.0
 0010162,-0.00029234,0.00006777,-0.00021608,-0.00000434,-0.00003327,-0.
 00004488,-0.00003202,0.00006063,0.00003805,0.00000591,-0.00001400,0.00
 000064,0.00000271,-0.00001650,-0.00001196,-0.00000956,-0.00000715,-0.0
 0000408,-0.00001254,-0.00000149,-0.00000504,-0.00001135,0.00000398,0.0
 0000371,-0.00001320,0.00000258,-0.00000052,-0.00001245,-0.00000095,0.0
 0000088,-0.00000503,0.00000196,0.00000346,0.00000234,0.00000297,0.0000
 0054,0.00000635,0.00005467,-0.00001025,-0.00000771,0.00000176,0.000002
 17,0.00000292,-0.00000115,0.00000023,-0.00000079,0.00000017,-0.0000035
 9,-0.00000132,0.00000208,0.00000650,0.00004150,-0.00005170,0.00001710,
 -0.00001534,-0.00001266,-0.00000642,-0.00001164,-0.00001862,-0.0000007
 0,0.00001013,-0.00001013,0.00001062,0.00000027,0.00000085,0.00000431,-
 0.00000026,0.00000722,-0.00000308,-0.00000242,0.00000556,-0.00000244,-
 0.00000095,0.00000006,-0.00000178,-0.00000056,-0.00000036,-0.00000033,
 0.00000156,0.00000042,-0.00000146,0.00065378,0.00068663,-0.00046311,0.
 00167532,-0.00185170,0.00110185,-0.00054478,0.00227073,0.00327136,-0.0
 0217402,0.00008446,0.00341638,-0.00028111,0.00024228,-0.00016097,-0.01
 207324,-0.00887313,0.00293246,-0.00072399,-0.00033978,-0.00024375,-0.3
 0512343,-0.08539501,0.04837629,0.00029891,0.00039735,-0.00106072,0.000
 53185,0.00033379,-0.00112546,0.31800889,-0.00002305,-0.00000173,-0.000
 00253,0.00001567,0.00000826,-0.00003954,-0.00000659,0.00001785,0.00003
 121,0.00000539,-0.00001034,-0.00000014,0.00000081,-0.00000028,0.000001
 42,0.00000586,0.00000049,0.00000604,-0.00007483,0.00005327,-0.00001809
 ,0.00000395,-0.00000958,0.00000942,0.00000521,0.00000607,-0.00000120,0
 .00003657,-0.00004730,-0.00004822,-0.00001460,0.00003347,-0.00007214,0
 .00005520,-0.00014265,0.00037569,0.00001822,0.00003572,0.00002790,0.00
 001259,-0.00001055,0.00000826,-0.00000228,-0.00000190,0.00000243,-0.00
 000017,-0.00000066,-0.00000272,-0.00001447,-0.00000556,0.00000072,0.00
 000049,0.00000019,0.00000081,-0.00000147,0.00000184,0.00000177,-0.0000
 0025,0.00000105,-0.00000177,0.00000291,-0.00000492,-0.00000079,-0.0000
 0303,-0.00000161,0.00000321,-0.00000344,-0.00000060,-0.00000190,0.0000
 0813,0.00001358,-0.00001098,0.00000076,0.00000181,0.00000047,-0.000002
 02,-0.00000040,-0.00000030,-0.00000948,0.00000304,0.00000856,-0.000001
 66,0.00000130,-0.00001577,-0.00005649,0.00003454,-0.00002135,-0.000001
 30,-0.00000585,0.00000637,-0.00000449,-0.00000723,-0.00000232,0.000000
 01,0.00000746,0.00000296,0.00000086,0.00000156,-0.00000122,0.00000340,
 -0.00000328,-0.00000077,-0.00000138,-0.00000392,-0.00000325,-0.0000000
 5,-0.00000131,0.00000123,-0.00000107,-0.00000046,0.00000039,-0.0000010
 7,0.00000029,0.00000136,0.00050002,-0.00086786,0.00001907,-0.00189712,
 -0.00412850,-0.00399152,0.00231562,-0.00113164,-0.00392166,-0.02701054
 ,-0.00316078,0.00395012,-0.00115817,-0.00037385,0.00068248,0.01841356,
 0.01022336,-0.00503805,0.00104702,0.00019740,0.00018631,-0.08547552,-0
 .08608025,0.01081684,0.00077122,0.00062865,0.00142085,-0.00005278,0.00
 030822,0.00152563,0.09251381,0.08438905,0.00004364,0.00000172,-0.00000
 610,-0.00002468,-0.00000974,0.00007671,0.00000319,-0.00004137,-0.00006
 481,-0.00001075,0.00002785,0.00000049,-0.00000340,-0.00000225,-0.00001
 076,-0.00000735,0.00000190,-0.00000580,0.00014823,-0.00012860,0.000025
 59,-0.00000696,0.00001259,-0.00002006,-0.00001393,-0.00001924,0.000009
 23,-0.00008615,0.00015892,0.00015775,0.00008386,-0.00015187,0.00018099
 ,-0.00034414,0.00043495,-0.00086994,-0.00003092,-0.00003218,-0.0000456
 1,0.00000372,0.00000515,-0.00000152,0.00000141,0.00000197,-0.00000514,
 -0.00000170,-0.00000171,-0.00000173,-0.00000519,0.00000558,-0.00000732
 ,-0.00000049,-0.00000027,-0.00000018,0.00000391,-0.00000437,-0.0000040
 8,0.00000049,-0.00000199,0.00000669,-0.00000525,0.00000949,0.00000105,
 -0.00000330,0.00001563,-0.00000435,0.00000786,0.00000165,0.00000412,-0
 .00002195,-0.00002000,0.00002164,-0.00000423,-0.00000124,0.00000192,0.
 00000214,0.00000158,0.00000400,0.00003380,0.00000943,-0.00004363,-0.00
 000498,-0.00000789,0.00003969,0.00003987,0.00001100,0.00010367,0.00000
 540,0.00000785,-0.00001206,0.00001134,0.00001160,0.00000395,-0.0000019
 6,-0.00001336,-0.00000502,-0.00000073,-0.00000304,0.00000312,-0.000007
 29,0.00000727,0.00000159,0.00000354,0.00000803,0.00000670,-0.00000002,
 0.00000315,-0.00000287,0.00000182,0.00000027,-0.00000045,0.00000283,-0
 .00000061,-0.00000395,-0.00030233,-0.00006728,-0.00124990,0.00108282,-
 0.00392203,0.00554263,0.00324895,-0.00389042,0.00431167,-0.00721360,-0
 .00461767,0.00892165,-0.00075009,0.00023438,-0.00081376,0.01368946,0.0
 0354295,0.00534406,0.00030087,0.00062861,-0.00098375,0.04832367,0.0107
 5114,-0.05660592,-0.00096643,0.00154349,-0.00271210,-0.00129542,0.0013
 9229,-0.00248199,-0.05593542,-0.00591351,0.04125289,0.00000107,0.00009
 341,0.00021207,-0.00011327,-0.00015675,-0.00004781,0.00001364,-0.00001
 239,-0.00000749,-0.00000083,0.00001170,-0.00002716,0.00000609,0.000010
 53,-0.00001139,-0.00000780,-0.00007913,-0.00009842,0.00156156,0.001150
 17,0.00086491,0.00021932,-0.00013680,-0.00013276,-0.00017771,0.0000009
 0,-0.00008891,0.00075630,0.00045385,0.00002379,0.00687420,0.02359455,0
 .00812748,-0.06437370,-0.04171407,-0.01073559,-0.00033846,-0.00099626,
 -0.00046673,-0.00229491,-0.00172548,-0.00081932,0.00024114,0.00007537,
 -0.00023960,0.00013027,0.00007852,0.00036406,-0.00026165,0.00032374,0.
 00004722,-0.00000260,0.00002687,-0.00008405,0.00000617,-0.00000369,-0.
 00000589,-0.00000597,-0.00000489,-0.00000660,-0.00000237,0.00000478,0.
 00000658,-0.00003052,-0.00008495,-0.00008904,-0.00008657,0.00000387,0.
 00004062,0.00000617,0.00005488,-0.00000812,-0.00003380,-0.00010431,-0.
 00006916,0.00012693,-0.00016899,-0.00005300,-0.00027784,-0.00042046,0.
 00071824,0.00002378,-0.00015544,-0.00007633,-0.00365965,0.00144859,0.0
 0274567,0.00001343,-0.00000995,-0.00001451,0.00000312,-0.00008904,-0.0
 0001087,-0.00001032,0.00000392,-0.00001234,0.00000028,-0.00000306,0.00
 000100,-0.00000371,-0.00000182,0.00000232,0.00000454,0.00000218,0.0000
 0543,0.00000200,-0.00000012,-0.00000123,-0.00000149,-0.00000022,0.0000
 0083,0.00000153,0.00000169,-0.00000233,-0.00164697,-0.02771459,-0.0062
 6823,-0.00069942,-0.00156121,-0.00183332,-0.00406065,-0.00104763,0.003
 21280,0.00049467,0.00067507,0.00034990,-0.00043606,0.00071977,0.000614
 64,-0.00004062,-0.00126752,-0.00099279,0.00001014,0.00002543,-0.000115
 35,0.00019205,-0.00026372,-0.00000774,0.00003240,-0.00000389,0.0000260
 1,-0.00041485,0.00000857,-0.00009053,-0.00000611,0.00008003,0.00000587
 ,0.06826703,0.00001998,-0.00011287,-0.00013647,-0.00016030,0.00007493,
 -0.00013070,-0.00002438,0.00003352,0.00004224,-0.00001967,0.00006614,-
 0.00000234,-0.00003393,-0.00005866,-0.00003904,-0.00003759,0.00001465,
 0.00004227,-0.00087046,0.00026254,-0.00037309,0.00003715,-0.00011170,-
 0.00017911,0.00020102,0.00017025,0.00029255,0.00046791,0.00081496,-0.0
 0067229,-0.00255210,-0.01017845,-0.00401474,-0.04490300,-0.29745582,-0
 .08324250,-0.00204189,-0.00072007,-0.00019493,-0.00213941,0.00150646,-
 0.00038394,0.00016095,-0.00001917,-0.00011015,0.00010820,0.00000469,0.
 00018842,0.00124692,-0.00083090,0.00009369,0.00001559,0.00000306,0.000
 00153,0.00002532,-0.00000565,-0.00000688,0.00001926,-0.00000032,0.0000
 0123,0.00001177,0.00000369,0.00000087,0.00005638,0.00001274,0.00003695
 ,-0.00001189,0.00000824,0.00001489,0.00001356,-0.00000578,-0.00001917,
 -0.00000136,0.00007873,0.00002880,-0.00022596,0.00003879,0.00006471,0.
 00015102,0.00032411,-0.00026693,-0.00009474,-0.00002325,0.00016626,0.0
 0090369,0.00069363,-0.00185328,-0.00000908,0.00001073,-0.00000495,-0.0
 0000234,0.00000073,-0.00000651,-0.00000533,0.00000173,-0.00000487,0.,0
 .00000132,-0.00000327,-0.00000187,-0.00000301,0.00000269,0.00000023,-0
 .00000177,0.00000331,0.00000060,-0.00000023,0.00000028,-0.00000007,-0.
 00000073,0.00000124,-0.00000011,0.00000017,0.00000006,0.00025442,-0.00
 456757,-0.00616547,0.00141676,0.00086151,0.00157687,-0.00187832,0.0010
 1069,-0.00188556,0.00029149,0.00066229,-0.00010395,-0.00018901,0.00062
 816,0.00019647,0.00092960,-0.00067402,-0.00000254,0.00006515,0.0000082
 5,0.00008760,-0.00010239,0.00018711,-0.00003416,0.00002667,0.00001108,
 -0.00005510,-0.00000205,-0.00005303,0.00025391,0.00000567,0.00003455,0
 .00002020,0.04887796,0.30729355,0.00006249,-0.00019254,0.00007055,-0.0
 0021511,-0.00010429,-0.00019233,0.00002217,0.00010902,-0.00002397,0.00
 003893,-0.00001192,0.00000505,-0.00001528,0.00005038,0.00005787,0.0001
 1639,0.00007480,-0.00013411,0.00209532,-0.00138465,0.00063858,-0.00029
 426,-0.00004753,-0.00001742,-0.00010692,-0.00012065,0.00005527,-0.0015
 5790,-0.00050853,0.00286664,-0.00116426,-0.01411498,-0.00023099,-0.013
 16187,-0.08371060,-0.08122215,-0.00119512,0.00060210,-0.00016638,-0.00
 045944,0.00018240,0.00021418,0.00003747,0.00001269,-0.00004302,0.00000
 231,0.00001232,0.00000874,0.00011992,-0.00025052,-0.00056656,-0.000031
 56,0.00000208,0.00001055,0.00000535,0.00000515,-0.00001537,-0.00002207
 ,0.00000590,0.00001009,0.00000808,0.00001144,-0.00000188,-0.00011217,0
 .00008698,0.00007597,-0.00005267,0.00010632,0.00007256,-0.00002833,-0.
 00015887,-0.00000359,-0.00001433,-0.00005725,-0.00011750,0.00017115,0.
 00003125,0.00002422,0.00045846,0.00041751,-0.00078568,0.00000562,0.000
 06142,-0.00009286,0.00306321,-0.00113145,0.00219001,-0.00000565,0.0000
 4867,-0.00001955,0.00001439,0.00004002,0.00001108,0.00000619,-0.000009
 02,-0.00001401,-0.00000421,0.00000065,-0.00000044,-0.00000602,0.000003
 65,0.00000017,0.00000057,0.00000144,0.00000574,-0.00000002,-0.00000002
 ,-0.00000195,0.00000242,0.00000116,0.00000050,0.00000011,0.00000023,0.
 00000023,0.00473358,0.00198799,0.01181067,-0.00065645,0.00282600,-0.00
 316865,0.00281481,-0.00236631,0.00578083,0.00025889,-0.00026778,0.0005
 7065,0.00022242,-0.00011577,0.00021235,-0.00011694,0.00071993,-0.00122
 734,-0.00005416,0.00015391,-0.00025980,0.00002729,-0.00002914,0.000462
 12,0.00004424,-0.00003527,0.00009446,-0.00009800,0.00026856,-0.0005951
 4,-0.00000621,0.00001823,-0.00005904,0.00504717,0.09677491,0.06371066\
 \0.00000189,0.00000415,-0.00000562,-0.00000649,-0.00000153,0.00000580,
 -0.00000515,-0.00000408,-0.00000255,-0.00000318,-0.00000369,-0.0000005
 9,-0.00000155,-0.00000333,-0.00000184,-0.00000041,-0.00000251,-0.00000
 558,0.00001935,0.00001221,-0.00001295,-0.00002542,-0.00000863,0.000003
 66,0.00000905,0.00000409,0.00000505,-0.00000380,0.00000258,-0.00000514
 ,0.00000177,-0.00000139,0.00002154,0.00000781,0.00000414,0.00000155,0.
 00003203,0.00001127,0.00001964,-0.00000143,0.00000007,0.00001094,-0.00
 002548,-0.00000438,-0.00000462,-0.00003193,0.00000618,0.00001510,0.000
 01399,-0.00001509,-0.00000648,0.00000145,-0.00000359,0.00000054,-0.000
 00212,-0.00000536,-0.00000115,-0.00000271,-0.00000351,-0.00000315,-0.0
 0000126,-0.00000141,-0.00000476,-0.00000367,-0.00000164,-0.00000969,0.
 00000517,-0.00000083,-0.00000361,0.00000578,0.00000289,-0.00000153,0.0
 0000303,0.00000154,-0.00000008,-0.00000263,0.00000509,-0.00000336,0.00
 000993,-0.00000001,0.00000438,0.00000176,0.00000546,-0.00000101,0.0000
 0761,-0.00000502,0.00000502,-0.00000052,-0.00000295,0.00000443,0.00000
 109,0.00000185,0.00000199,-0.00001339,0.00000278,-0.00000419,0.0000017
 0,0.00000116,0.00000074,0.00000290,-0.00000251,-0.00000347,0.00000712,
 -0.00000334,0.00000023,-0.00000095,-0.00000628,0.00000174,-0.00000032,
 -0.00000482,0.00000389,-0.00000200,-0.00000200,-0.00000059,-0.00000190
 ,0.00000307,-0.00000064,-0.00000081,-0.00000008,-0.00000182,0.00000102
 ,0.00000652,-0.00000958,-0.00000025,-0.00000016,-0.00000241,0.00000084
 ,0.00000033,0.00000162,0.00000038,0.00000119,-0.00000240,-0.00000148,0
 .00000347,-0.00000088,-0.00000029,0.00000193,-0.00000237,-0.00000016,0
 .00000019,-0.00000009,-0.00000007,0.00000230,-0.00000483,-0.00000022,0
 .00000137,-0.00000426,0.00000389,0.00000231,0.00000340\\\@


 SOME PHYSICISTS WOULD PREFER TO COME BACK TO THE IDEA OF AN OBJECTIVE
 REAL WORLD WHOSE SMALLEST PARTS EXIST OBJECTIVELY IN THE SAME SENSE AS
 STONES OR TREES EXIST INDEPENDENTLY OF WHETHER WE OBSERVE THEM.
 THIS, HOWEVER, IS IMPOSSIBLE.  -- WERNER HEISENBERG
 Job cpu time:      14 days 12 hours 29 minutes 29.2 seconds.
 Elapsed time:       0 days 21 hours 48 minutes 14.4 seconds.
 File lengths (MBytes):  RWF=  12182 Int=      0 D2E=      0 Chk=     88 Scr=      1
 Normal termination of Gaussian 16 at Thu Jul  1 22:34:14 2021.
