 Entering Gaussian System, Link 0=g16
 Input=prenyl-first_betaine_grid-CC_230_CO_270-b3lyp_d3bj-juldz-gas.gjf
 Output=prenyl-first_betaine_grid-CC_230_CO_270-b3lyp_d3bj-juldz-gas.out
 Initial command:
 /SFS/product/gaussian/g16.a03/x86_64/avx/g16/l1.exe "/scratch/kwaneu.2874306.bmbhpcps002/Gau-30917.inp" -scrdir="/scratch/kwaneu.2874306.bmbhpcps002/"
 Entering Link 1 = /SFS/product/gaussian/g16.a03/x86_64/avx/g16/l1.exe PID=     30918.
  
 Copyright (c) 1988,1990,1992,1993,1995,1998,2003,2009,2016,
            Gaussian, Inc.  All Rights Reserved.
  
 This is part of the Gaussian(R) 16 program.  It is based on
 the Gaussian(R) 09 system (copyright 2009, Gaussian, Inc.),
 the Gaussian(R) 03 system (copyright 2003, Gaussian, Inc.),
 the Gaussian(R) 98 system (copyright 1998, Gaussian, Inc.),
 the Gaussian(R) 94 system (copyright 1995, Gaussian, Inc.),
 the Gaussian 92(TM) system (copyright 1992, Gaussian, Inc.),
 the Gaussian 90(TM) system (copyright 1990, Gaussian, Inc.),
 the Gaussian 88(TM) system (copyright 1988, Gaussian, Inc.),
 the Gaussian 86(TM) system (copyright 1986, Carnegie Mellon
 University), and the Gaussian 82(TM) system (copyright 1983,
 Carnegie Mellon University). Gaussian is a federally registered
 trademark of Gaussian, Inc.
  
 This software contains proprietary and confidential information,
 including trade secrets, belonging to Gaussian, Inc.
  
 This software is provided under written license and may be
 used, copied, transmitted, or stored only in accord with that
 written license.
  
 The following legend is applicable only to US Government
 contracts under FAR:
  
                    RESTRICTED RIGHTS LEGEND
  
 Use, reproduction and disclosure by the US Government is
 subject to restrictions as set forth in subparagraphs (a)
 and (c) of the Commercial Computer Software - Restricted
 Rights clause in FAR 52.227-19.
  
 Gaussian, Inc.
 340 Quinnipiac St., Bldg. 40, Wallingford CT 06492
  
  
 ---------------------------------------------------------------
 Warning -- This program may not be used in any manner that
 competes with the business of Gaussian, Inc. or will provide
 assistance to any competitor of Gaussian, Inc.  The licensee
 of this program is prohibited from giving any competitor of
 Gaussian, Inc. access to this program.  By using this program,
 the user acknowledges that Gaussian, Inc. is engaged in the
 business of creating and licensing software in the field of
 computational chemistry and represents and warrants to the
 licensee that it is not a competitor of Gaussian, Inc. and that
 it will not use this program in any manner prohibited above.
 ---------------------------------------------------------------
  

 Cite this work as:
 Gaussian 16, Revision A.03,
 M. J. Frisch, G. W. Trucks, H. B. Schlegel, G. E. Scuseria, 
 M. A. Robb, J. R. Cheeseman, G. Scalmani, V. Barone, 
 G. A. Petersson, H. Nakatsuji, X. Li, M. Caricato, A. V. Marenich, 
 J. Bloino, B. G. Janesko, R. Gomperts, B. Mennucci, H. P. Hratchian, 
 J. V. Ortiz, A. F. Izmaylov, J. L. Sonnenberg, D. Williams-Young, 
 F. Ding, F. Lipparini, F. Egidi, J. Goings, B. Peng, A. Petrone, 
 T. Henderson, D. Ranasinghe, V. G. Zakrzewski, J. Gao, N. Rega, 
 G. Zheng, W. Liang, M. Hada, M. Ehara, K. Toyota, R. Fukuda, 
 J. Hasegawa, M. Ishida, T. Nakajima, Y. Honda, O. Kitao, H. Nakai, 
 T. Vreven, K. Throssell, J. A. Montgomery, Jr., J. E. Peralta, 
 F. Ogliaro, M. J. Bearpark, J. J. Heyd, E. N. Brothers, K. N. Kudin, 
 V. N. Staroverov, T. A. Keith, R. Kobayashi, J. Normand, 
 K. Raghavachari, A. P. Rendell, J. C. Burant, S. S. Iyengar, 
 J. Tomasi, M. Cossi, J. M. Millam, M. Klene, C. Adamo, R. Cammi, 
 J. W. Ochterski, R. L. Martin, K. Morokuma, O. Farkas, 
 J. B. Foresman, and D. J. Fox, Gaussian, Inc., Wallingford CT, 2016.
 
 ******************************************
 Gaussian 16:  ES64L-G16RevA.03 25-Dec-2016
                20-Jun-2021 
 ******************************************
 %chk=checkpoint.chk
 %nprocshared=16
 Will use up to   16 processors via shared memory.
 %mem=16GB
 -----------------------------------------------------------
 #p opt=modredundant freq=noraman ub3lyp jul-cc-pvdz pop=cm5
 -----------------------------------------------------------
 1/18=120,19=15,26=3,38=1/1,3;
 2/9=110,12=2,17=6,18=5,40=1/2;
 3/5=16,7=50,11=2,25=1,30=1,71=1,74=-5,116=2/1,2,3;
 4//1;
 5/5=2,38=5/2;
 6/7=2,8=2,9=2,10=2,28=1,79=1/1;
 7//1,2,3,16;
 1/18=20,19=15,26=3/3(2);
 2/9=110/2;
 99//99;
 2/9=110/2;
 3/5=16,7=50,11=2,25=1,30=1,71=1,74=-5,116=2/1,2,3;
 4/5=5,16=3,69=1/1;
 5/5=2,38=5/2;
 7//1,2,3,16;
 1/18=20,19=15,26=3/3(-5);
 2/9=110/2;
 6/7=2,8=2,9=2,10=2,19=2,28=1,79=1/1;
 99/9=1/99;
 Leave Link    1 at Sun Jun 20 07:42:41 2021, MaxMem=  2147483648 cpu:               1.6 elap:               0.1
 (Enter /SFS/product/gaussian/g16.a03/x86_64/avx/g16/l101.exe)
 -----
 title
 -----
 Symbolic Z-matrix:
 Charge =  0 Multiplicity = 6
 6                    -3.19846  -0.3924    0.49596 
 6                    -1.93604   0.19174   0.71976 
 6                    -1.63028   0.67099   2.009 
 6                    -2.56382   0.58528   3.03694 
 6                    -3.81667   0.01575   2.79931 
 6                    -4.12639  -0.4782    1.52955 
 6                    -0.88108   0.27318  -0.3293 
 6                    -0.90611  -0.61495  -1.59795 
 6                    -1.90747  -0.18826  -2.67815 
 6                    -1.752     1.32164  -2.88862 
 6                    -1.78543   2.00258  -1.54639 
 6                    -0.87061   2.87608  -1.04737 
 6                     0.45356   3.17455  -1.68062 
 8                     0.26459   0.68675   0.05177 
 26                    2.11002   0.29604   0.41308 
 17                    3.02624  -0.40613  -1.46161 
 6                    -1.12463   3.59429   0.24448 
 17                    2.14909  -1.16109   2.05697 
 17                    2.94144   2.22645   1.0817 
 1                    -0.65009   1.09049   2.19782 
 1                    -2.30826   0.95323   4.02616 
 1                    -4.54478  -0.05428   3.60266 
 1                    -5.0918   -0.93956   1.34379 
 1                    -3.45182  -0.81176  -0.4685 
 1                     0.10825  -0.52434  -2.0002 
 6                    -1.09742  -2.09334  -1.21068 
 1                    -1.70821  -0.74868  -3.59745 
 1                    -2.92973  -0.43706  -2.38314 
 1                    -0.81824   1.52936  -3.41892 
 1                    -2.56614   1.70081  -3.52011 
 1                    -2.74488   1.95307  -1.03632 
 1                    -2.11241   3.38094   0.65997 
 1                    -0.35768   3.32164   0.98214 
 1                    -1.03542   4.67886   0.09706 
 1                     0.47327   4.2266   -1.99874 
 1                     1.26037   3.06218  -0.94705 
 1                     0.68475   2.55487  -2.54776 
 8                     0.00903  -2.57935  -0.64341 
 8                    -2.11175  -2.72534  -1.4176 
 6                    -0.01715  -3.98107  -0.24271 
 6                     1.40873  -4.40902   0.03897 
 1                    -0.65784  -4.06134   0.64126 
 1                    -0.47729  -4.55599  -1.05054 
 1                     1.41574  -5.4594    0.35115 
 1                     2.02909  -4.31007  -0.85712 
 1                     1.85017  -3.80312   0.8345 
 
 The following ModRedundant input section has been read:
 B       7      11 F                                                           
 B      12      14 F                                                           
 
 ITRead=  0  0  0  0  0  0  0  0  0  0  0  0  0  0  0  0  0  0  0  0
 ITRead=  0  0  0  0  0  0  0  0  0  0  0  0  0  0  0  0  0  0  0  0
 ITRead=  0  0  0  0  0  0
 MicOpt= -1 -1 -1 -1 -1 -1 -1 -1 -1 -1 -1 -1 -1 -1 -1 -1 -1 -1 -1 -1
 MicOpt= -1 -1 -1 -1 -1 -1 -1 -1 -1 -1 -1 -1 -1 -1 -1 -1 -1 -1 -1 -1
 MicOpt= -1 -1 -1 -1 -1 -1
 NAtoms=     46 NQM=       46 NQMF=       0 NMMI=      0 NMMIF=      0
                NMic=       0 NMicF=      0.
                    Isotopes and Nuclear Properties:
 (Nuclear quadrupole moments (NQMom) in fm**2, nuclear magnetic moments (NMagM)
  in nuclear magnetons)

  Atom         1           2           3           4           5           6           7           8           9          10
 IAtWgt=          12          12          12          12          12          12          12          12          12          12
 AtmWgt=  12.0000000  12.0000000  12.0000000  12.0000000  12.0000000  12.0000000  12.0000000  12.0000000  12.0000000  12.0000000
 NucSpn=           0           0           0           0           0           0           0           0           0           0
 AtZEff=  -0.0000000  -0.0000000  -0.0000000  -0.0000000  -0.0000000  -0.0000000  -0.0000000  -0.0000000  -0.0000000  -0.0000000
 NQMom=    0.0000000   0.0000000   0.0000000   0.0000000   0.0000000   0.0000000   0.0000000   0.0000000   0.0000000   0.0000000
 NMagM=    0.0000000   0.0000000   0.0000000   0.0000000   0.0000000   0.0000000   0.0000000   0.0000000   0.0000000   0.0000000
 AtZNuc=   6.0000000   6.0000000   6.0000000   6.0000000   6.0000000   6.0000000   6.0000000   6.0000000   6.0000000   6.0000000

  Atom        11          12          13          14          15          16          17          18          19          20
 IAtWgt=          12          12          12          16          56          35          12          35          35           1
 AtmWgt=  12.0000000  12.0000000  12.0000000  15.9949146  55.9349393  34.9688527  12.0000000  34.9688527  34.9688527   1.0078250
 NucSpn=           0           0           0           0           0           3           0           3           3           1
 AtZEff=  -0.0000000  -0.0000000  -0.0000000  -0.0000000  -0.0000000  -0.0000000  -0.0000000  -0.0000000  -0.0000000  -0.0000000
 NQMom=    0.0000000   0.0000000   0.0000000   0.0000000   0.0000000  -8.1650000   0.0000000  -8.1650000  -8.1650000   0.0000000
 NMagM=    0.0000000   0.0000000   0.0000000   0.0000000   0.0000000   0.8218740   0.0000000   0.8218740   0.8218740   2.7928460
 AtZNuc=   6.0000000   6.0000000   6.0000000   8.0000000  26.0000000  17.0000000   6.0000000  17.0000000  17.0000000   1.0000000

  Atom        21          22          23          24          25          26          27          28          29          30
 IAtWgt=           1           1           1           1           1          12           1           1           1           1
 AtmWgt=   1.0078250   1.0078250   1.0078250   1.0078250   1.0078250  12.0000000   1.0078250   1.0078250   1.0078250   1.0078250
 NucSpn=           1           1           1           1           1           0           1           1           1           1
 AtZEff=  -0.0000000  -0.0000000  -0.0000000  -0.0000000  -0.0000000  -0.0000000  -0.0000000  -0.0000000  -0.0000000  -0.0000000
 NQMom=    0.0000000   0.0000000   0.0000000   0.0000000   0.0000000   0.0000000   0.0000000   0.0000000   0.0000000   0.0000000
 NMagM=    2.7928460   2.7928460   2.7928460   2.7928460   2.7928460   0.0000000   2.7928460   2.7928460   2.7928460   2.7928460
 AtZNuc=   1.0000000   1.0000000   1.0000000   1.0000000   1.0000000   6.0000000   1.0000000   1.0000000   1.0000000   1.0000000

  Atom        31          32          33          34          35          36          37          38          39          40
 IAtWgt=           1           1           1           1           1           1           1          16          16          12
 AtmWgt=   1.0078250   1.0078250   1.0078250   1.0078250   1.0078250   1.0078250   1.0078250  15.9949146  15.9949146  12.0000000
 NucSpn=           1           1           1           1           1           1           1           0           0           0
 AtZEff=  -0.0000000  -0.0000000  -0.0000000  -0.0000000  -0.0000000  -0.0000000  -0.0000000  -0.0000000  -0.0000000  -0.0000000
 NQMom=    0.0000000   0.0000000   0.0000000   0.0000000   0.0000000   0.0000000   0.0000000   0.0000000   0.0000000   0.0000000
 NMagM=    2.7928460   2.7928460   2.7928460   2.7928460   2.7928460   2.7928460   2.7928460   0.0000000   0.0000000   0.0000000
 AtZNuc=   1.0000000   1.0000000   1.0000000   1.0000000   1.0000000   1.0000000   1.0000000   8.0000000   8.0000000   6.0000000

  Atom        41          42          43          44          45          46
 IAtWgt=          12           1           1           1           1           1
 AtmWgt=  12.0000000   1.0078250   1.0078250   1.0078250   1.0078250   1.0078250
 NucSpn=           0           1           1           1           1           1
 AtZEff=  -0.0000000  -0.0000000  -0.0000000  -0.0000000  -0.0000000  -0.0000000
 NQMom=    0.0000000   0.0000000   0.0000000   0.0000000   0.0000000   0.0000000
 NMagM=    0.0000000   2.7928460   2.7928460   2.7928460   2.7928460   2.7928460
 AtZNuc=   6.0000000   1.0000000   1.0000000   1.0000000   1.0000000   1.0000000
 Leave Link  101 at Sun Jun 20 07:42:42 2021, MaxMem=  2147483648 cpu:               5.4 elap:               0.4
 (Enter /SFS/product/gaussian/g16.a03/x86_64/avx/g16/l103.exe)

 GradGradGradGradGradGradGradGradGradGradGradGradGradGradGradGradGradGrad
 Berny optimization.
 Initialization pass.
                           ----------------------------
                           !    Initial Parameters    !
                           ! (Angstroms and Degrees)  !
 --------------------------                            --------------------------
 ! Name  Definition              Value          Derivative Info.                !
 --------------------------------------------------------------------------------
 ! R1    R(1,2)                  1.4089         estimate D2E/DX2                !
 ! R2    R(1,6)                  1.3917         estimate D2E/DX2                !
 ! R3    R(1,24)                 1.0818         estimate D2E/DX2                !
 ! R4    R(2,3)                  1.409          estimate D2E/DX2                !
 ! R5    R(2,7)                  1.49           estimate D2E/DX2                !
 ! R6    R(3,4)                  1.3912         estimate D2E/DX2                !
 ! R7    R(3,20)                 1.0828         estimate D2E/DX2                !
 ! R8    R(4,5)                  1.3966         estimate D2E/DX2                !
 ! R9    R(4,21)                 1.0859         estimate D2E/DX2                !
 ! R10   R(5,6)                  1.3972         estimate D2E/DX2                !
 ! R11   R(5,22)                 1.0865         estimate D2E/DX2                !
 ! R12   R(6,23)                 1.086          estimate D2E/DX2                !
 ! R13   R(7,8)                  1.5488         estimate D2E/DX2                !
 ! R14   R(7,11)                 2.3            Frozen                          !
 ! R15   R(7,14)                 1.2763         estimate D2E/DX2                !
 ! R16   R(8,9)                  1.5335         estimate D2E/DX2                !
 ! R17   R(8,25)                 1.095          estimate D2E/DX2                !
 ! R18   R(8,26)                 1.5402         estimate D2E/DX2                !
 ! R19   R(9,10)                 1.5324         estimate D2E/DX2                !
 ! R20   R(9,27)                 1.0949         estimate D2E/DX2                !
 ! R21   R(9,28)                 1.0927         estimate D2E/DX2                !
 ! R22   R(10,11)                1.5054         estimate D2E/DX2                !
 ! R23   R(10,29)                1.0937         estimate D2E/DX2                !
 ! R24   R(10,30)                1.0979         estimate D2E/DX2                !
 ! R25   R(11,12)                1.3598         estimate D2E/DX2                !
 ! R26   R(11,31)                1.0877         estimate D2E/DX2                !
 ! R27   R(12,13)                1.4978         estimate D2E/DX2                !
 ! R28   R(12,14)                2.7            Frozen                          !
 ! R29   R(12,17)                1.4997         estimate D2E/DX2                !
 ! R30   R(13,35)                1.0993         estimate D2E/DX2                !
 ! R31   R(13,36)                1.0962         estimate D2E/DX2                !
 ! R32   R(13,37)                1.0906         estimate D2E/DX2                !
 ! R33   R(14,15)                1.9206         estimate D2E/DX2                !
 ! R34   R(15,16)                2.2016         estimate D2E/DX2                !
 ! R35   R(15,18)                2.1971         estimate D2E/DX2                !
 ! R36   R(15,19)                2.2056         estimate D2E/DX2                !
 ! R37   R(17,32)                1.0926         estimate D2E/DX2                !
 ! R38   R(17,33)                1.0985         estimate D2E/DX2                !
 ! R39   R(17,34)                1.0982         estimate D2E/DX2                !
 ! R40   R(26,38)                1.335          estimate D2E/DX2                !
 ! R41   R(26,39)                1.2129         estimate D2E/DX2                !
 ! R42   R(38,40)                1.4581         estimate D2E/DX2                !
 ! R43   R(40,41)                1.5151         estimate D2E/DX2                !
 ! R44   R(40,42)                1.0947         estimate D2E/DX2                !
 ! R45   R(40,43)                1.0931         estimate D2E/DX2                !
 ! R46   R(41,44)                1.0958         estimate D2E/DX2                !
 ! R47   R(41,45)                1.0944         estimate D2E/DX2                !
 ! R48   R(41,46)                1.0931         estimate D2E/DX2                !
 ! A1    A(2,1,6)              120.3337         estimate D2E/DX2                !
 ! A2    A(2,1,24)             120.8107         estimate D2E/DX2                !
 ! A3    A(6,1,24)             118.8224         estimate D2E/DX2                !
 ! A4    A(1,2,3)              118.7381         estimate D2E/DX2                !
 ! A5    A(1,2,7)              123.041          estimate D2E/DX2                !
 ! A6    A(3,2,7)              118.163          estimate D2E/DX2                !
 ! A7    A(2,3,4)              120.6305         estimate D2E/DX2                !
 ! A8    A(2,3,20)             119.1948         estimate D2E/DX2                !
 ! A9    A(4,3,20)             120.1634         estimate D2E/DX2                !
 ! A10   A(3,4,5)              120.0899         estimate D2E/DX2                !
 ! A11   A(3,4,21)             119.6221         estimate D2E/DX2                !
 ! A12   A(5,4,21)             120.2844         estimate D2E/DX2                !
 ! A13   A(4,5,6)              119.8451         estimate D2E/DX2                !
 ! A14   A(4,5,22)             120.1097         estimate D2E/DX2                !
 ! A15   A(6,5,22)             120.0411         estimate D2E/DX2                !
 ! A16   A(1,6,5)              120.3549         estimate D2E/DX2                !
 ! A17   A(1,6,23)             119.4648         estimate D2E/DX2                !
 ! A18   A(5,6,23)             120.1787         estimate D2E/DX2                !
 ! A19   A(2,7,8)              122.2705         estimate D2E/DX2                !
 ! A20   A(2,7,14)             116.3004         estimate D2E/DX2                !
 ! A21   A(8,7,14)             116.4165         estimate D2E/DX2                !
 ! A22   A(7,8,9)              115.3392         estimate D2E/DX2                !
 ! A23   A(7,8,25)             103.7974         estimate D2E/DX2                !
 ! A24   A(7,8,26)             110.2709         estimate D2E/DX2                !
 ! A25   A(9,8,25)             108.8515         estimate D2E/DX2                !
 ! A26   A(9,8,26)             111.29           estimate D2E/DX2                !
 ! A27   A(25,8,26)            106.6711         estimate D2E/DX2                !
 ! A28   A(8,9,10)             107.7375         estimate D2E/DX2                !
 ! A29   A(8,9,27)             109.2784         estimate D2E/DX2                !
 ! A30   A(8,9,28)             110.9382         estimate D2E/DX2                !
 ! A31   A(10,9,27)            111.7491         estimate D2E/DX2                !
 ! A32   A(10,9,28)            110.8768         estimate D2E/DX2                !
 ! A33   A(27,9,28)            106.2835         estimate D2E/DX2                !
 ! A34   A(9,10,11)            108.7218         estimate D2E/DX2                !
 ! A35   A(9,10,29)            109.8976         estimate D2E/DX2                !
 ! A36   A(9,10,30)            110.1241         estimate D2E/DX2                !
 ! A37   A(11,10,29)           111.4283         estimate D2E/DX2                !
 ! A38   A(11,10,30)           109.8852         estimate D2E/DX2                !
 ! A39   A(29,10,30)           106.7745         estimate D2E/DX2                !
 ! A40   A(10,11,12)           127.0729         estimate D2E/DX2                !
 ! A41   A(10,11,31)           114.6512         estimate D2E/DX2                !
 ! A42   A(12,11,31)           116.781          estimate D2E/DX2                !
 ! A43   A(11,12,13)           124.5857         estimate D2E/DX2                !
 ! A44   A(11,12,17)           120.6508         estimate D2E/DX2                !
 ! A45   A(13,12,17)           114.7385         estimate D2E/DX2                !
 ! A46   A(12,13,35)           109.2026         estimate D2E/DX2                !
 ! A47   A(12,13,36)           110.3234         estimate D2E/DX2                !
 ! A48   A(12,13,37)           114.2255         estimate D2E/DX2                !
 ! A49   A(35,13,36)           106.1748         estimate D2E/DX2                !
 ! A50   A(35,13,37)           108.0529         estimate D2E/DX2                !
 ! A51   A(36,13,37)           108.5307         estimate D2E/DX2                !
 ! A52   A(7,14,15)            148.5162         estimate D2E/DX2                !
 ! A53   A(14,15,16)           107.7322         estimate D2E/DX2                !
 ! A54   A(14,15,18)           107.0231         estimate D2E/DX2                !
 ! A55   A(14,15,19)           103.9562         estimate D2E/DX2                !
 ! A56   A(16,15,18)           114.7207         estimate D2E/DX2                !
 ! A57   A(16,15,19)           112.3585         estimate D2E/DX2                !
 ! A58   A(18,15,19)           110.2999         estimate D2E/DX2                !
 ! A59   A(12,17,32)           112.7786         estimate D2E/DX2                !
 ! A60   A(12,17,33)           109.9576         estimate D2E/DX2                !
 ! A61   A(12,17,34)           110.0942         estimate D2E/DX2                !
 ! A62   A(32,17,33)           109.1085         estimate D2E/DX2                !
 ! A63   A(32,17,34)           108.5007         estimate D2E/DX2                !
 ! A64   A(33,17,34)           106.174          estimate D2E/DX2                !
 ! A65   A(8,26,38)            110.6912         estimate D2E/DX2                !
 ! A66   A(8,26,39)            124.1348         estimate D2E/DX2                !
 ! A67   A(38,26,39)           125.1639         estimate D2E/DX2                !
 ! A68   A(26,38,40)           116.8629         estimate D2E/DX2                !
 ! A69   A(38,40,41)           107.8015         estimate D2E/DX2                !
 ! A70   A(38,40,42)           107.633          estimate D2E/DX2                !
 ! A71   A(38,40,43)           108.0646         estimate D2E/DX2                !
 ! A72   A(41,40,42)           112.3312         estimate D2E/DX2                !
 ! A73   A(41,40,43)           112.6432         estimate D2E/DX2                !
 ! A74   A(42,40,43)           108.1697         estimate D2E/DX2                !
 ! A75   A(40,41,44)           109.252          estimate D2E/DX2                !
 ! A76   A(40,41,45)           110.8374         estimate D2E/DX2                !
 ! A77   A(40,41,46)           111.0266         estimate D2E/DX2                !
 ! A78   A(44,41,45)           108.4402         estimate D2E/DX2                !
 ! A79   A(44,41,46)           108.7471         estimate D2E/DX2                !
 ! A80   A(45,41,46)           108.4742         estimate D2E/DX2                !
 ! D1    D(6,1,2,3)              0.6792         estimate D2E/DX2                !
 ! D2    D(6,1,2,7)            177.8576         estimate D2E/DX2                !
 ! D3    D(24,1,2,3)          -177.2017         estimate D2E/DX2                !
 ! D4    D(24,1,2,7)            -0.0233         estimate D2E/DX2                !
 ! D5    D(2,1,6,5)              0.0965         estimate D2E/DX2                !
 ! D6    D(2,1,6,23)          -179.4334         estimate D2E/DX2                !
 ! D7    D(24,1,6,5)           178.0191         estimate D2E/DX2                !
 ! D8    D(24,1,6,23)           -1.5108         estimate D2E/DX2                !
 ! D9    D(1,2,3,4)             -0.8514         estimate D2E/DX2                !
 ! D10   D(1,2,3,20)           177.9281         estimate D2E/DX2                !
 ! D11   D(7,2,3,4)           -178.1686         estimate D2E/DX2                !
 ! D12   D(7,2,3,20)             0.6109         estimate D2E/DX2                !
 ! D13   D(1,2,7,8)            -18.172          estimate D2E/DX2                !
 ! D14   D(1,2,7,14)          -172.2005         estimate D2E/DX2                !
 ! D15   D(3,2,7,8)            159.0217         estimate D2E/DX2                !
 ! D16   D(3,2,7,14)             4.9931         estimate D2E/DX2                !
 ! D17   D(2,3,4,5)              0.2456         estimate D2E/DX2                !
 ! D18   D(2,3,4,21)           179.5579         estimate D2E/DX2                !
 ! D19   D(20,3,4,5)          -178.5221         estimate D2E/DX2                !
 ! D20   D(20,3,4,21)            0.7902         estimate D2E/DX2                !
 ! D21   D(3,4,5,6)              0.5436         estimate D2E/DX2                !
 ! D22   D(3,4,5,22)           179.8011         estimate D2E/DX2                !
 ! D23   D(21,4,5,6)          -178.7642         estimate D2E/DX2                !
 ! D24   D(21,4,5,22)            0.4933         estimate D2E/DX2                !
 ! D25   D(4,5,6,1)             -0.7152         estimate D2E/DX2                !
 ! D26   D(4,5,6,23)           178.8114         estimate D2E/DX2                !
 ! D27   D(22,5,6,1)          -179.9732         estimate D2E/DX2                !
 ! D28   D(22,5,6,23)           -0.4466         estimate D2E/DX2                !
 ! D29   D(2,7,8,9)             76.4007         estimate D2E/DX2                !
 ! D30   D(2,7,8,25)          -164.6246         estimate D2E/DX2                !
 ! D31   D(2,7,8,26)           -50.6956         estimate D2E/DX2                !
 ! D32   D(14,7,8,9)          -129.5988         estimate D2E/DX2                !
 ! D33   D(14,7,8,25)          -10.624          estimate D2E/DX2                !
 ! D34   D(14,7,8,26)          103.3049         estimate D2E/DX2                !
 ! D35   D(2,7,14,15)          109.8383         estimate D2E/DX2                !
 ! D36   D(8,7,14,15)          -45.7399         estimate D2E/DX2                !
 ! D37   D(7,8,9,10)            47.2321         estimate D2E/DX2                !
 ! D38   D(7,8,9,27)           168.8349         estimate D2E/DX2                !
 ! D39   D(7,8,9,28)           -74.3007         estimate D2E/DX2                !
 ! D40   D(25,8,9,10)          -68.9045         estimate D2E/DX2                !
 ! D41   D(25,8,9,27)           52.6982         estimate D2E/DX2                !
 ! D42   D(25,8,9,28)          169.5627         estimate D2E/DX2                !
 ! D43   D(26,8,9,10)          173.8122         estimate D2E/DX2                !
 ! D44   D(26,8,9,27)          -64.5851         estimate D2E/DX2                !
 ! D45   D(26,8,9,28)           52.2794         estimate D2E/DX2                !
 ! D46   D(7,8,26,38)          -71.7305         estimate D2E/DX2                !
 ! D47   D(7,8,26,39)          109.3785         estimate D2E/DX2                !
 ! D48   D(9,8,26,38)          158.9554         estimate D2E/DX2                !
 ! D49   D(9,8,26,39)          -19.9357         estimate D2E/DX2                !
 ! D50   D(25,8,26,38)          40.3552         estimate D2E/DX2                !
 ! D51   D(25,8,26,39)        -138.5359         estimate D2E/DX2                !
 ! D52   D(8,9,10,11)          -49.5323         estimate D2E/DX2                !
 ! D53   D(8,9,10,29)           72.6695         estimate D2E/DX2                !
 ! D54   D(8,9,10,30)         -169.9749         estimate D2E/DX2                !
 ! D55   D(27,9,10,11)        -169.5859         estimate D2E/DX2                !
 ! D56   D(27,9,10,29)         -47.384          estimate D2E/DX2                !
 ! D57   D(27,9,10,30)          69.9716         estimate D2E/DX2                !
 ! D58   D(28,9,10,11)          72.0387         estimate D2E/DX2                !
 ! D59   D(28,9,10,29)        -165.7595         estimate D2E/DX2                !
 ! D60   D(28,9,10,30)         -48.4039         estimate D2E/DX2                !
 ! D61   D(9,10,11,12)         127.244          estimate D2E/DX2                !
 ! D62   D(9,10,11,31)         -67.2684         estimate D2E/DX2                !
 ! D63   D(29,10,11,12)          5.9756         estimate D2E/DX2                !
 ! D64   D(29,10,11,31)        171.4633         estimate D2E/DX2                !
 ! D65   D(30,10,11,12)       -112.1659         estimate D2E/DX2                !
 ! D66   D(30,10,11,31)         53.3218         estimate D2E/DX2                !
 ! D67   D(10,11,12,13)         -9.0879         estimate D2E/DX2                !
 ! D68   D(10,11,12,17)        172.8335         estimate D2E/DX2                !
 ! D69   D(31,11,12,13)       -174.3074         estimate D2E/DX2                !
 ! D70   D(31,11,12,17)          7.6139         estimate D2E/DX2                !
 ! D71   D(11,12,13,35)        115.4388         estimate D2E/DX2                !
 ! D72   D(11,12,13,36)       -128.2299         estimate D2E/DX2                !
 ! D73   D(11,12,13,37)         -5.6626         estimate D2E/DX2                !
 ! D74   D(17,12,13,35)        -66.3811         estimate D2E/DX2                !
 ! D75   D(17,12,13,36)         49.9502         estimate D2E/DX2                !
 ! D76   D(17,12,13,37)        172.5175         estimate D2E/DX2                !
 ! D77   D(11,12,17,32)         -3.7723         estimate D2E/DX2                !
 ! D78   D(11,12,17,33)        118.2481         estimate D2E/DX2                !
 ! D79   D(11,12,17,34)       -125.1103         estimate D2E/DX2                !
 ! D80   D(13,12,17,32)        177.9693         estimate D2E/DX2                !
 ! D81   D(13,12,17,33)        -60.0103         estimate D2E/DX2                !
 ! D82   D(13,12,17,34)         56.6313         estimate D2E/DX2                !
 ! D83   D(7,14,15,16)          60.6596         estimate D2E/DX2                !
 ! D84   D(7,14,15,18)         -63.1941         estimate D2E/DX2                !
 ! D85   D(7,14,15,19)        -179.9349         estimate D2E/DX2                !
 ! D86   D(8,26,38,40)        -179.015          estimate D2E/DX2                !
 ! D87   D(39,26,38,40)         -0.1378         estimate D2E/DX2                !
 ! D88   D(26,38,40,41)        165.8655         estimate D2E/DX2                !
 ! D89   D(26,38,40,42)        -72.7485         estimate D2E/DX2                !
 ! D90   D(26,38,40,43)         43.857          estimate D2E/DX2                !
 ! D91   D(38,40,41,44)        179.5259         estimate D2E/DX2                !
 ! D92   D(38,40,41,45)        -61.0395         estimate D2E/DX2                !
 ! D93   D(38,40,41,46)         59.5941         estimate D2E/DX2                !
 ! D94   D(42,40,41,44)         61.1118         estimate D2E/DX2                !
 ! D95   D(42,40,41,45)       -179.4536         estimate D2E/DX2                !
 ! D96   D(42,40,41,46)        -58.8199         estimate D2E/DX2                !
 ! D97   D(43,40,41,44)        -61.342          estimate D2E/DX2                !
 ! D98   D(43,40,41,45)         58.0926         estimate D2E/DX2                !
 ! D99   D(43,40,41,46)        178.7263         estimate D2E/DX2                !
 --------------------------------------------------------------------------------
 Trust Radius=3.00D-01 FncErr=1.00D-07 GrdErr=1.00D-06 EigMax=2.50D+02 EigMin=1.00D-04
 Number of steps in this run=    237 maximum allowed number of steps=    276.
 GradGradGradGradGradGradGradGradGradGradGradGradGradGradGradGradGradGrad

 Leave Link  103 at Sun Jun 20 07:42:42 2021, MaxMem=  2147483648 cpu:               0.3 elap:               0.1
 (Enter /SFS/product/gaussian/g16.a03/x86_64/avx/g16/l202.exe)
                          Input orientation:                          
 ---------------------------------------------------------------------
 Center     Atomic      Atomic             Coordinates (Angstroms)
 Number     Number       Type             X           Y           Z
 ---------------------------------------------------------------------
      1          6           0       -3.198461   -0.392401    0.495958
      2          6           0       -1.936040    0.191735    0.719758
      3          6           0       -1.630279    0.670985    2.009001
      4          6           0       -2.563822    0.585278    3.036943
      5          6           0       -3.816668    0.015752    2.799309
      6          6           0       -4.126389   -0.478199    1.529554
      7          6           0       -0.881082    0.273177   -0.329295
      8          6           0       -0.906110   -0.614953   -1.597946
      9          6           0       -1.907471   -0.188256   -2.678152
     10          6           0       -1.751998    1.321635   -2.888615
     11          6           0       -1.785431    2.002579   -1.546391
     12          6           0       -0.870611    2.876082   -1.047375
     13          6           0        0.453562    3.174554   -1.680617
     14          8           0        0.264593    0.686748    0.051773
     15         26           0        2.110017    0.296042    0.413077
     16         17           0        3.026242   -0.406134   -1.461609
     17          6           0       -1.124627    3.594285    0.244475
     18         17           0        2.149092   -1.161085    2.056975
     19         17           0        2.941438    2.226451    1.081699
     20          1           0       -0.650087    1.090494    2.197817
     21          1           0       -2.308259    0.953234    4.026165
     22          1           0       -4.544782   -0.054275    3.602663
     23          1           0       -5.091804   -0.939560    1.343788
     24          1           0       -3.451821   -0.811758   -0.468496
     25          1           0        0.108251   -0.524338   -2.000202
     26          6           0       -1.097424   -2.093340   -1.210677
     27          1           0       -1.708211   -0.748684   -3.597451
     28          1           0       -2.929730   -0.437063   -2.383135
     29          1           0       -0.818237    1.529361   -3.418919
     30          1           0       -2.566140    1.700812   -3.520109
     31          1           0       -2.744880    1.953072   -1.036316
     32          1           0       -2.112413    3.380944    0.659971
     33          1           0       -0.357680    3.321639    0.982138
     34          1           0       -1.035421    4.678859    0.097057
     35          1           0        0.473274    4.226599   -1.998740
     36          1           0        1.260367    3.062180   -0.947045
     37          1           0        0.684749    2.554870   -2.547763
     38          8           0        0.009032   -2.579346   -0.643414
     39          8           0       -2.111746   -2.725337   -1.417596
     40          6           0       -0.017153   -3.981066   -0.242714
     41          6           0        1.408727   -4.409017    0.038967
     42          1           0       -0.657844   -4.061342    0.641257
     43          1           0       -0.477294   -4.555991   -1.050544
     44          1           0        1.415735   -5.459401    0.351152
     45          1           0        2.029092   -4.310071   -0.857119
     46          1           0        1.850173   -3.803121    0.834504
 ---------------------------------------------------------------------
                    Distance matrix (angstroms):
                    1          2          3          4          5
     1  C    0.000000
     2  C    1.408903   0.000000
     3  C    2.424723   1.409013   0.000000
     4  C    2.795573   2.432762   1.391227   0.000000
     5  C    2.419544   2.809317   2.415412   1.396586   0.000000
     6  C    1.391665   2.429446   2.789455   2.417606   1.397209
     7  C    2.548388   1.489994   2.487403   3.776318   4.297918
     8  C    3.112690   2.661438   3.897194   5.066632   5.310837
     9  C    3.432682   3.419211   4.773315   5.804435   5.804243
    10  C    4.060235   3.785618   4.942146   6.026070   6.190369
    11  C    3.450184   2.904698   3.799740   4.860204   5.192159
    12  C    4.299272   3.385796   3.844604   4.979598   5.626519
    13  C    5.549587   4.513226   4.921741   6.169630   6.948570
    14  O    3.654395   2.352451   2.724248   4.113571   4.965469
    15  Fe   5.353575   4.059004   4.083794   5.367784   6.395175
    16  Cl   6.525273   5.453444   5.906649   7.243527   8.072102
    17  C    4.500855   3.530104   3.451799   4.350090   5.155595
    18  Cl   5.623520   4.506282   4.200289   5.120711   6.125871
    19  Cl   6.700734   5.297250   4.917312   6.068304   7.315010
    20  H    3.404337   2.155482   1.082781   2.149827   3.397661
    21  H    3.881437   3.413320   2.146689   1.085939   2.158552
    22  H    3.402723   3.895792   3.400013   2.157144   1.086477
    23  H    2.145448   3.409998   3.875373   3.403322   2.158039
    24  H    1.081769   2.171759   3.413874   3.876642   3.390639
    25  H    4.145186   3.477078   4.530452   5.808963   6.223503
    26  C    3.196897   3.106674   4.276886   5.231405   5.284179
    27  H    4.370787   4.424318   5.783929   6.821049   6.778532
    28  H    2.891952   3.318245   4.712452   5.527777   5.277256
    29  H    4.968390   4.490810   5.555046   6.754000   7.067387
    30  H    4.572763   4.544316   5.701529   6.651267   6.658700
    31  H    2.838106   2.615402   3.487125   4.300591   4.428765
    32  H    3.929953   3.194642   3.065324   3.697231   4.336562
    33  H    4.701117   3.515162   3.114470   4.071481   5.118163
    34  H    5.527707   4.618783   4.480228   5.266531   6.064822
    35  H    6.406272   5.429102   5.755807   6.916739   7.691301
    36  H    5.822159   4.608113   4.776176   6.052407   7.006581
    37  H    5.747170   4.809328   5.447245   6.754365   7.436468
    38  O    4.045851   3.649717   4.504142   5.493583   5.763927
    39  O    3.207059   3.620561   4.848544   5.568434   5.310613
    40  C    4.852306   4.692627   5.414238   6.171967   6.297997
    41  C    6.129292   5.728688   6.238831   7.050673   7.382603
    42  H    4.465084   4.441690   5.021083   5.564453   5.590890
    43  H    5.208829   5.272837   6.165344   6.891574   6.846431
    44  H    6.854653   6.580699   7.043316   7.719358   7.959197
    45  H    6.671302   6.202828   6.812970   7.760349   8.139725
    46  H    6.102158   5.505220   5.788835   6.602434   7.110368
                    6          7          8          9         10
     6  C    0.000000
     7  C    3.814696   0.000000
     8  C    4.491120   1.548831   0.000000
     9  C    4.765758   2.604520   1.533506   0.000000
    10  C    5.328917   2.899634   2.476232   1.532396   0.000000
    11  C    4.593014   2.300000   2.761763   2.468914   1.505446
    12  C    5.337776   2.700160   3.534362   3.622800   2.565797
    13  C    6.680101   3.467756   4.026898   4.228244   3.123630
    14  O    4.777202   1.276254   2.405524   3.596663   3.621547
    15  Fe   6.382690   3.081933   3.737800   5.092195   5.183452
    16  Cl   7.753217   4.124413   3.940252   5.086155   5.277605
    17  C    5.219878   3.379095   4.599994   4.843781   3.921069
    18  Cl   6.334522   4.115015   4.794890   6.310589   6.770618
    19  Cl   7.580889   4.518611   5.482490   6.593877   6.213729
    20  H    3.871957   2.666020   4.169162   5.195314   5.209551
    21  H    3.404066   4.633502   6.004653   6.812598   6.946893
    22  H    2.156976   5.384256   6.371862   6.813369   7.199268
    23  H    1.085997   4.690428   5.126325   5.184635   5.846413
    24  H    2.135066   2.793772   2.791959   2.767011   3.646607
    25  H    5.513028   2.099224   1.094965   2.153068   2.767204
    26  C    4.392286   2.534569   1.540197   2.537519   3.860829
    27  H    5.675115   3.522667   2.158534   1.094941   2.188741
    28  H    4.091799   2.986580   2.177890   1.092682   2.176139
    29  H    6.281843   3.335824   2.814560   2.164573   1.093747
    30  H    5.716779   3.880574   3.437030   2.170556   1.097901
    31  H    3.795173   2.606850   3.207999   2.825273   2.194434
    32  H    4.439061   3.486121   4.745582   4.891243   4.118630
    33  H    5.379740   3.359602   4.738604   5.302729   4.574589
    34  H    6.180726   4.428954   5.560054   5.670191   4.549579
    35  H    7.465982   4.500097   5.050145   5.061669   3.765970
    36  H    6.905430   3.570148   4.317245   4.857701   3.984160
    37  H    6.997933   3.546766   3.671616   3.776420   2.752233
    38  O    5.122335   3.004640   2.368007   3.678377   4.833198
    39  O    4.218306   3.419067   2.437171   2.840336   4.321030
    40  C    5.683030   4.341941   3.735989   4.887747   6.174878
    41  C    6.950589   5.225111   4.736336   6.016205   7.169469
    42  H    5.065451   4.447456   4.117434   5.251746   6.529442
    43  H    6.049892   4.899399   4.001914   4.875615   6.288868
    44  H    7.544279   6.212956   5.714772   6.928589   8.155555
    45  H    7.633439   5.454711   4.776833   5.983481   7.080941
    46  H    6.874409   5.042855   4.866038   6.286962   7.287000
                   11         12         13         14         15
    11  C    0.000000
    12  C    1.359750   0.000000
    13  C    2.530737   1.497837   0.000000
    14  O    2.913441   2.700000   3.037444   0.000000
    15  Fe   4.682553   4.204006   3.925969   1.920620   0.000000
    16  Cl   5.381569   5.111751   4.414518   3.333380   2.201583
    17  C    2.485436   1.499739   2.524447   3.228132   4.622743
    18  Cl   6.202700   5.920668   5.970107   3.314613   2.197077
    19  Cl   5.412972   4.414374   3.836511   3.255293   2.205628
    20  H    4.017462   3.710556   4.539119   2.367521   3.381512
    21  H    5.694546   5.612930   6.717833   4.741980   5.745213
    22  H    6.193337   6.611307   7.957501   6.023954   7.387999
    23  H    5.285964   6.172135   7.538172   5.745013   7.366082
    24  H    3.443720   4.538492   5.710686   4.040784   5.739201
    25  H    3.190186   3.664547   3.728696   2.387839   3.240988
    26  C    4.166847   4.977275   5.511543   3.343316   4.316642
    27  H    3.432529   4.510365   4.872300   4.389676   5.635127
    28  H    2.821598   4.123246   4.998397   4.170783   5.809931
    29  H    2.160037   2.727750   2.710319   3.732053   4.977945
    30  H    2.143859   3.220325   3.830698   4.669017   6.269751
    31  H    1.087736   2.089247   3.483845   3.441575   5.330714
    32  H    2.621992   2.170711   3.479249   3.644003   5.235121
    33  H    3.189334   2.140220   2.787474   2.862770   3.945579
    34  H    3.228918   2.141703   2.764078   4.198695   5.403955
    35  H    3.201973   2.129558   1.099268   4.096181   4.893370
    36  H    3.280069   2.141440   1.096216   2.762586   3.197398
    37  H    2.722051   2.184831   1.090595   3.228622   3.987514
    38  O    5.002949   5.540636   5.863511   3.349025   3.714588
    39  O    4.740913   5.749206   6.438843   4.410029   5.504850
    40  C    6.374197   6.956748   7.313825   4.685573   4.821677
    41  C    7.336523   7.710265   7.834530   5.222646   4.771724
    42  H    6.544341   7.143151   7.680138   4.872652   5.167196
    43  H    6.706111   7.442474   7.811838   5.408494   5.690219
    44  H    8.338422   8.755771   8.921829   6.260184   5.797498
    45  H    7.407782   7.751469   7.692857   5.376592   4.778726
    46  H    7.252064   7.453582   7.547470   4.825521   4.128953
                   16         17         18         19         20
    16  Cl   0.000000
    17  C    6.011970   0.000000
    18  Cl   3.704022   6.051110   0.000000
    19  Cl   3.661436   4.370904   3.613084   0.000000
    20  H    5.398767   3.210873   3.595114   3.928762   0.000000
    21  H    7.773059   4.762070   5.311877   6.152258   2.472090
    22  H    9.115430   6.023859   6.958601   8.221950   4.295665
    23  H    8.605665   6.123947   7.279305   8.638593   4.957755
    24  H    6.566285   5.033624   6.153882   7.246211   4.310163
    25  H    2.969634   4.849909   4.585975   5.009182   4.561373
    26  C    4.462539   5.870885   4.699629   6.342554   4.685589
    27  H    5.205210   5.827722   6.857215   7.236374   6.171494
    28  H    6.026920   5.139504   6.784778   7.319153   5.339974
    29  H    4.728342   4.216425   6.784464   5.905646   5.636364
    30  H    6.320710   4.453683   7.843962   7.196273   6.061223
    31  H    6.249206   2.638034   6.573993   6.074120   3.948647
    32  H    6.726726   1.092645   6.382952   5.201165   3.122424
    33  H    5.596349   1.098495   5.247285   3.477575   2.557613
    34  H    6.692062   1.098176   6.934504   4.774854   4.175888
    35  H    5.316801   2.825796   6.948693   4.425102   5.358002
    36  H    3.925849   2.718649   5.258321   2.764099   4.174630
    37  H    3.928087   3.485802   6.095591   4.286432   5.142637
    38  O    3.807342   6.339341   3.726046   5.888183   4.687724
    39  O    5.637336   6.608669   5.716141   7.503422   5.456026
    40  C    4.850577   7.671362   4.234794   7.002899   5.663702
    41  C    4.570684   8.397199   3.894812   6.889552   6.256514
    42  H    5.599561   7.680101   4.277223   7.258454   5.381854
    43  H    5.446563   8.277869   5.299053   7.888961   6.516479
    44  H    5.604939   9.403938   4.682218   7.869802   7.111886
    45  H    4.074364   8.581276   4.292139   6.878772   6.758457
    46  H    4.265536   7.994947   2.926456   6.132512   5.661925
                   21         22         23         24         25
    21  H    0.000000
    22  H    2.489270   0.000000
    23  H    4.304177   2.487062   0.000000
    24  H    4.962349   4.282835   2.447499   0.000000
    25  H    6.658817   7.298203   6.196390   3.886238   0.000000
    26  C    6.178369   6.261813   4.879710   2.781451   2.130439
    27  H    7.834290   7.769812   5.991742   3.582529   2.429212
    28  H    6.587737   6.211658   4.337859   2.019608   3.063263
    29  H    7.614549   8.105409   6.858741   4.595824   2.662483
    30  H    7.587597   7.597976   6.083423   4.050899   3.796548
    31  H    5.178709   5.365558   4.420437   2.909720   3.899614
    32  H    4.154924   5.135814   5.292554   4.543809   5.221024
    33  H    4.322060   5.982957   6.379697   5.363116   4.889068
    34  H    5.562220   6.856198   7.040967   6.025422   5.725359
    35  H    7.399414   8.653467   8.296492   6.567576   4.764939
    36  H    6.474223   8.006990   7.849326   6.118915   3.911473
    37  H    7.398639   8.484302   7.792546   5.724399   3.180204
    38  O    6.297136   6.718808   5.714578   3.890047   2.464503
    39  O    6.573054   6.185243   4.437903   2.521582   3.179971
    40  C    6.915187   7.120817   6.125343   4.678935   3.879879
    41  C    7.646402   8.191946   7.483087   6.068173   4.576044
    42  H    6.271160   6.319399   5.468005   4.426924   4.480469
    43  H    7.712131   7.646060   6.332859   4.817247   4.183173
    44  H    8.276215   8.678449   7.985133   6.779787   5.620785
    45  H    8.388174   9.012063   8.179945   6.513803   4.396367
    46  H    7.078289   7.912774   7.526646   6.225528   4.671217
                   26         27         28         29         30
    26  C    0.000000
    27  H    2.806751   0.000000
    28  H    2.734092   1.750366   0.000000
    29  H    4.251851   2.452227   3.065628   0.000000
    30  H    4.678268   2.596547   2.448554   1.759204   0.000000
    31  H    4.372409   3.864399   2.749697   3.093264   2.502960
    32  H    5.873441   5.944985   4.950321   4.662681   4.527889
    33  H    5.888774   6.274082   5.662892   4.774272   5.270162
    34  H    6.897586   6.600020   5.992697   4.725314   4.929072
    35  H    6.559708   5.662879   5.786012   3.310589   4.234643
    36  H    5.675215   5.509972   5.644818   3.574953   4.807924
    37  H    5.154590   4.212074   4.695021   2.017312   3.499021
    38  O    1.335003   3.876413   4.031418   5.026855   5.764255
    39  O    1.212883   2.970146   2.614873   4.876568   4.921161
    40  C    2.380640   4.956030   5.062061   6.410524   7.037215
    41  C    3.633836   6.028008   6.361227   7.223619   8.111510
    42  H    2.737868   5.481206   5.238684   6.911347   7.359414
    43  H    2.544573   4.743151   4.975521   6.538880   7.043409
    44  H    4.481701   6.895024   7.182149   8.249052   9.061492
    45  H    3.848896   5.844684   6.474475   6.983485   8.021121
    46  H    3.974222   6.452434   6.673157   7.324437   8.292150
                   31         32         33         34         35
    31  H    0.000000
    32  H    2.305694   0.000000
    33  H    3.412603   1.785048   0.000000
    34  H    3.411261   1.778023   1.756345   0.000000
    35  H    4.056070   3.803900   3.224139   2.621653   0.000000
    36  H    4.156933   3.749634   2.531233   2.995737   1.755406
    37  H    3.795917   4.335444   3.759627   3.803339   1.772238
    38  O    5.318009   6.459443   6.131763   7.370259   6.955093
    39  O    4.736427   6.450035   6.738055   7.633791   7.439723
    40  C    6.579080   7.707409   7.412538   8.726203   8.407729
    41  C    7.673647   8.571322   7.985788   9.410990   8.921950
    42  H    6.583551   7.583122   7.396939   8.765263   8.771487
    43  H    6.892753   8.282174   8.136532   9.322604   8.884624
    44  H    8.612813   9.523387   8.980524  10.433458  10.011435
    45  H    7.877175   8.865965   8.205032   9.544766   8.752063
    46  H    7.599226   8.206299   7.460470   8.989687   8.625516
                   36         37         38         39         40
    36  H    0.000000
    37  H    1.775105   0.000000
    38  O    5.786609   5.517546   0.000000
    39  O    6.714754   6.080974   2.262382   0.000000
    40  C    7.192736   6.965944   1.458103   2.710078   0.000000
    41  C    7.537441   7.463983   2.402600   4.165343   1.515130
    42  H    7.546311   7.466369   2.071573   2.852651   1.094684
    43  H    7.814519   7.359100   2.075908   2.481422   1.093096
    44  H    8.621299   8.553747   3.355993   4.800698   2.142736
    45  H    7.412767   7.196732   2.668655   4.469011   2.161679
    46  H    7.117173   7.295340   2.659261   4.682988   2.163093
                   41         42         43         44         45
    41  C    0.000000
    42  H    2.180446   0.000000
    43  H    2.183051   1.771854   0.000000
    44  H    1.095817   2.517630   2.522788   0.000000
    45  H    1.094355   3.086523   2.525839   1.776819   0.000000
    46  H    1.093098   2.528670   3.088255   1.779221   1.774993
                   46
    46  H    0.000000
 Stoichiometry    C17H22Cl3FeO3(6)
 Framework group  C1[X(C17H22Cl3FeO3)]
 Deg. of freedom   132
 Full point group                 C1      NOp   1
 Largest Abelian subgroup         C1      NOp   1
 Largest concise Abelian subgroup C1      NOp   1
                         Standard orientation:                         
 ---------------------------------------------------------------------
 Center     Atomic      Atomic             Coordinates (Angstroms)
 Number     Number       Type             X           Y           Z
 ---------------------------------------------------------------------
      1          6           0        3.198461    0.392401    0.495958
      2          6           0        1.936040   -0.191735    0.719758
      3          6           0        1.630279   -0.670985    2.009001
      4          6           0        2.563822   -0.585278    3.036943
      5          6           0        3.816668   -0.015752    2.799309
      6          6           0        4.126389    0.478199    1.529554
      7          6           0        0.881082   -0.273177   -0.329295
      8          6           0        0.906110    0.614953   -1.597946
      9          6           0        1.907471    0.188256   -2.678152
     10          6           0        1.751998   -1.321635   -2.888615
     11          6           0        1.785431   -2.002579   -1.546391
     12          6           0        0.870611   -2.876082   -1.047375
     13          6           0       -0.453562   -3.174554   -1.680617
     14          8           0       -0.264593   -0.686748    0.051773
     15         26           0       -2.110017   -0.296042    0.413077
     16         17           0       -3.026242    0.406134   -1.461609
     17          6           0        1.124627   -3.594285    0.244475
     18         17           0       -2.149092    1.161085    2.056975
     19         17           0       -2.941438   -2.226451    1.081699
     20          1           0        0.650087   -1.090494    2.197817
     21          1           0        2.308259   -0.953234    4.026165
     22          1           0        4.544782    0.054275    3.602663
     23          1           0        5.091804    0.939560    1.343788
     24          1           0        3.451821    0.811758   -0.468496
     25          1           0       -0.108251    0.524338   -2.000202
     26          6           0        1.097424    2.093340   -1.210677
     27          1           0        1.708211    0.748684   -3.597451
     28          1           0        2.929730    0.437063   -2.383135
     29          1           0        0.818237   -1.529361   -3.418919
     30          1           0        2.566140   -1.700812   -3.520109
     31          1           0        2.744880   -1.953072   -1.036316
     32          1           0        2.112413   -3.380944    0.659971
     33          1           0        0.357680   -3.321639    0.982138
     34          1           0        1.035421   -4.678859    0.097057
     35          1           0       -0.473274   -4.226599   -1.998740
     36          1           0       -1.260367   -3.062180   -0.947045
     37          1           0       -0.684749   -2.554870   -2.547763
     38          8           0       -0.009032    2.579346   -0.643414
     39          8           0        2.111746    2.725337   -1.417596
     40          6           0        0.017153    3.981066   -0.242714
     41          6           0       -1.408727    4.409017    0.038967
     42          1           0        0.657844    4.061342    0.641257
     43          1           0        0.477294    4.555991   -1.050544
     44          1           0       -1.415736    5.459401    0.351152
     45          1           0       -2.029092    4.310071   -0.857119
     46          1           0       -1.850173    3.803121    0.834504
 ---------------------------------------------------------------------
 Rotational constants (GHZ):           0.1935609           0.1635761           0.1376673
 Leave Link  202 at Sun Jun 20 07:42:42 2021, MaxMem=  2147483648 cpu:               0.2 elap:               0.1
 (Enter /SFS/product/gaussian/g16.a03/x86_64/avx/g16/l301.exe)
 Standard basis: Jul-CC-pVDZ (5D, 7F)
 Ernie: Thresh=  0.10000D-02 Tol=  0.10000D-05 Strict=F.
 Ernie:  134 primitive shells out of 958 were deleted.
 There are   766 symmetry adapted cartesian basis functions of A   symmetry.
 There are   710 symmetry adapted basis functions of A   symmetry.
   710 basis functions,  1571 primitive gaussians,   766 cartesian basis functions
   115 alpha electrons      110 beta electrons
       nuclear repulsion energy      3324.1837960678 Hartrees.
 IExCor=  402 DFT=T Ex+Corr=B3LYP ExCW=0 ScaHFX=  0.200000
 ScaDFX=  0.800000  0.720000  1.000000  0.810000 ScalE2=  1.000000  1.000000
 IRadAn=      5 IRanWt=     -1 IRanGd=            0 ICorTp=0 IEmpDi=  4
 NAtoms=   46 NActive=   46 NUniq=   46 SFac= 1.00D+00 NAtFMM=   60 NAOKFM=F Big=F
 Integral buffers will be    131072 words long.
 Raffenetti 2 integral format.
 Two-electron integral symmetry is turned on.
 Leave Link  301 at Sun Jun 20 07:42:42 2021, MaxMem=  2147483648 cpu:               1.2 elap:               0.1
 (Enter /SFS/product/gaussian/g16.a03/x86_64/avx/g16/l302.exe)
 NPDir=0 NMtPBC=     1 NCelOv=     1 NCel=       1 NClECP=     1 NCelD=      1
         NCelK=      1 NCelE2=     1 NClLst=     1 CellRange=     0.0.
 One-electron integrals computed using PRISM.
 One-electron integral symmetry used in STVInt
 NBasis=   710 RedAO= T EigKep=  1.65D-06  NBF=   710
 NBsUse=   710 1.00D-06 EigRej= -1.00D+00 NBFU=   710
 Precomputing XC quadrature grid using
 IXCGrd= 4 IRadAn=           5 IRanWt=          -1 IRanGd=           0 AccXCQ= 0.00D+00.
 Generated NRdTot=       0 NPtTot=           0 NUsed=           0 NTot=          32
 NSgBfM=   764   764   764   764   764 MxSgAt=    46 MxSgA2=    46.
 Leave Link  302 at Sun Jun 20 07:42:43 2021, MaxMem=  2147483648 cpu:              16.0 elap:               1.1
 (Enter /SFS/product/gaussian/g16.a03/x86_64/avx/g16/l303.exe)
 DipDrv:  MaxL=1.
 Leave Link  303 at Sun Jun 20 07:42:44 2021, MaxMem=  2147483648 cpu:               2.6 elap:               0.2
 (Enter /SFS/product/gaussian/g16.a03/x86_64/avx/g16/l401.exe)
 ExpMin= 1.40D-02 ExpMax= 4.32D+06 ExpMxC= 4.91D+03 IAcc=3 IRadAn=         5 AccDes= 0.00D+00
 Harris functional with IExCor=  402 and IRadAn=       5 diagonalized for initial guess.
 HarFok:  IExCor=  402 AccDes= 0.00D+00 IRadAn=         5 IDoV= 1 UseB2=F ITyADJ=14
 ICtDFT=  3500011 ScaDFX=  1.000000  1.000000  1.000000  1.000000
 FoFCou: FMM=F IPFlag=           0 FMFlag=      100000 FMFlg1=           0
         NFxFlg=           0 DoJE=T BraDBF=F KetDBF=T FulRan=T
         wScrn=  0.000000 ICntrl=       500 IOpCl=  0 I1Cent=   200000004 NGrid=           0
         NMat0=    1 NMatS0=      1 NMatT0=    0 NMatD0=    1 NMtDS0=    0 NMtDT0=    0
 Petite list used in FoFCou.
 Harris En= -3531.11985225067    
 JPrj=0 DoOrth=F DoCkMO=F.
 Initial guess <Sx>= 0.0000 <Sy>= 0.0000 <Sz>= 2.5000 <S**2>= 8.7500 S= 2.5000
 Leave Link  401 at Sun Jun 20 07:42:50 2021, MaxMem=  2147483648 cpu:              96.2 elap:               6.1
 (Enter /SFS/product/gaussian/g16.a03/x86_64/avx/g16/l502.exe)
 Integral symmetry usage will be decided dynamically.
 UHF open shell SCF:
 Using DIIS extrapolation, IDIIS=  1040.
 NGot=  2147483648 LenX=  2146290678 LenY=  2145703156
 Requested convergence on RMS density matrix=1.00D-08 within 128 cycles.
 Requested convergence on MAX density matrix=1.00D-06.
 Requested convergence on             energy=1.00D-06.
 No special actions if energy rises.
 Fock matrices will be formed incrementally for  20 cycles.

 Cycle   1  Pass 1  IDiag  1:
 FoFJK:  IHMeth= 1 ICntrl=       0 DoSepK=F KAlg= 0 I1Cent=           0 FoldK=F
 IRaf= 920000000 NMat=       1 IRICut=       1 DoRegI=T DoRafI=F ISym2E= 0 IDoP0=0 IntGTp=1.
 FoFCou: FMM=F IPFlag=           0 FMFlag=      100000 FMFlg1=           0
         NFxFlg=           0 DoJE=F BraDBF=F KetDBF=F FulRan=T
         wScrn=  0.000000 ICntrl=         0 IOpCl=  1 I1Cent=           0 NGrid=           0
         NMat0=    1 NMatS0=      1 NMatT0=    0 NMatD0=    1 NMtDS0=    0 NMtDT0=    0
 Symmetry not used in FoFCou.
 E= -3530.38583990638    
 DIIS: error= 2.35D-02 at cycle   1 NSaved=   1.
 NSaved= 1 IEnMin= 1 EnMin= -3530.38583990638     IErMin= 1 ErrMin= 2.35D-02
 ErrMax= 2.35D-02  0.00D+00 EMaxC= 1.00D-01 BMatC= 4.45D+00 BMatP= 4.45D+00
 IDIUse=3 WtCom= 7.65D-01 WtEn= 2.35D-01
 Coeff-Com:  0.100D+01
 Coeff-En:   0.100D+01
 Coeff:      0.100D+01
 Gap=     0.176 Goal=   None    Shift=    0.000
 Gap=     0.079 Goal=   None    Shift=    0.000
 GapD=    0.079 DampG=0.500 DampE=0.250 DampFc=0.1250 IDamp=-1.
 Damping current iteration by 1.25D-01
 RMSDP=3.78D-02 MaxDP=1.04D+01              OVMax= 9.44D-01

 Cycle   2  Pass 1  IDiag  1:
 RMSU=  2.46D-03    CP:  9.52D-01
 E= -3530.66946656047     Delta-E=       -0.283626654086 Rises=F Damp=T
 DIIS: error= 8.79D-03 at cycle   2 NSaved=   2.
 NSaved= 2 IEnMin= 2 EnMin= -3530.66946656047     IErMin= 2 ErrMin= 8.79D-03
 ErrMax= 8.79D-03  0.00D+00 EMaxC= 1.00D-01 BMatC= 1.21D+00 BMatP= 4.45D+00
 IDIUse=3 WtCom= 9.12D-01 WtEn= 8.79D-02
 Coeff-Com: -0.377D+00 0.138D+01
 Coeff-En:   0.679D-01 0.932D+00
 Coeff:     -0.338D+00 0.134D+01
 Gap=    -0.342 Goal=   None    Shift=    0.000
 Gap=    -0.000 Goal=   None    Shift=    0.000
 RMSDP=3.13D-02 MaxDP=9.49D+00 DE=-2.84D-01 OVMax= 9.24D-01

 Cycle   3  Pass 1  IDiag  1:
 RMSU=  8.06D-03    CP:  5.97D-01  2.26D+00
 E= -3530.01621437398     Delta-E=        0.653252186485 Rises=F Damp=F
 DIIS: error= 4.03D-02 at cycle   3 NSaved=   3.
 NSaved= 3 IEnMin= 2 EnMin= -3530.66946656047     IErMin= 2 ErrMin= 8.79D-03
 ErrMax= 4.03D-02  0.00D+00 EMaxC= 1.00D-01 BMatC= 6.22D+00 BMatP= 1.21D+00
 IDIUse=2 WtCom= 0.00D+00 WtEn= 1.00D+00
 Coeff-En:   0.000D+00 0.731D+00 0.269D+00
 Coeff:      0.000D+00 0.731D+00 0.269D+00
 Gap=    -0.129 Goal=   None    Shift=    0.000
 Gap=     0.214 Goal=   None    Shift=    0.000
 RMSDP=7.84D-03 MaxDP=1.22D+00 DE= 6.53D-01 OVMax= 7.47D-01

 Cycle   4  Pass 1  IDiag  1:
 RMSU=  5.36D-03    CP:  6.25D-01  3.00D+00  4.90D-01
 E= -3521.70125908847     Delta-E=        8.314955285519 Rises=F Damp=F
 DIIS: error= 1.18D-01 at cycle   4 NSaved=   4.
 NSaved= 4 IEnMin= 2 EnMin= -3530.66946656047     IErMin= 2 ErrMin= 8.79D-03
 ErrMax= 1.18D-01  0.00D+00 EMaxC= 1.00D-01 BMatC= 4.64D+01 BMatP= 1.21D+00
 IDIUse=2 WtCom= 0.00D+00 WtEn= 1.00D+00
 EnCoef did   100 forward-backward iterations
 Coeff-En:   0.378D+00 0.123D-01 0.423D+00 0.187D+00
 Coeff:      0.378D+00 0.123D-01 0.423D+00 0.187D+00
 Gap=     0.108 Goal=   None    Shift=    0.000
 Gap=     0.036 Goal=   None    Shift=    0.000
 RMSDP=5.36D-03 MaxDP=5.29D-01 DE= 8.31D+00 OVMax= 9.80D-01

 Cycle   5  Pass 1  IDiag  1:
 RMSU=  3.40D-03    CP:  6.34D-01  2.35D+00  6.55D-01  5.39D-01
 E= -3530.75667433269     Delta-E=       -9.055415244220 Rises=F Damp=F
 DIIS: error= 4.09D-02 at cycle   5 NSaved=   5.
 NSaved= 5 IEnMin= 5 EnMin= -3530.75667433269     IErMin= 2 ErrMin= 8.79D-03
 ErrMax= 4.09D-02  0.00D+00 EMaxC= 1.00D-01 BMatC= 4.24D+00 BMatP= 1.21D+00
 IDIUse=2 WtCom= 0.00D+00 WtEn= 1.00D+00
 Coeff-En:   0.000D+00 0.000D+00 0.379D+00 0.000D+00 0.621D+00
 Coeff:      0.000D+00 0.000D+00 0.379D+00 0.000D+00 0.621D+00
 Gap=     0.146 Goal=   None    Shift=    0.000
 Gap=     0.123 Goal=   None    Shift=    0.000
 RMSDP=4.34D-03 MaxDP=5.51D-01 DE=-9.06D+00 OVMax= 3.79D-01

 Cycle   6  Pass 1  IDiag  1:
 RMSU=  2.58D-03    CP:  6.58D-01  1.62D+00  6.65D-01  2.94D-01  4.74D-01
 E= -3531.18148264530     Delta-E=       -0.424808312614 Rises=F Damp=F
 DIIS: error= 1.80D-02 at cycle   6 NSaved=   6.
 NSaved= 6 IEnMin= 6 EnMin= -3531.18148264530     IErMin= 2 ErrMin= 8.79D-03
 ErrMax= 1.80D-02  0.00D+00 EMaxC= 1.00D-01 BMatC= 1.30D+00 BMatP= 1.21D+00
 IDIUse=3 WtCom= 8.20D-01 WtEn= 1.80D-01
 Coeff-Com: -0.371D+00 0.673D+00 0.216D+00 0.729D-03 0.177D+00 0.305D+00
 Coeff-En:   0.000D+00 0.000D+00 0.000D+00 0.000D+00 0.335D+00 0.665D+00
 Coeff:     -0.304D+00 0.552D+00 0.177D+00 0.598D-03 0.206D+00 0.370D+00
 Gap=     0.127 Goal=   None    Shift=    0.000
 Gap=     0.176 Goal=   None    Shift=    0.000
 RMSDP=3.34D-03 MaxDP=5.52D-01 DE=-4.25D-01 OVMax= 1.69D-01

 Cycle   7  Pass 1  IDiag  1:
 RMSU=  1.48D-03    CP:  6.39D-01  2.07D+00  6.90D-01  3.78D-01  6.68D-01
                    CP:  1.75D-01
 E= -3531.39536371665     Delta-E=       -0.213881071351 Rises=F Damp=F
 DIIS: error= 4.13D-03 at cycle   7 NSaved=   7.
 NSaved= 7 IEnMin= 7 EnMin= -3531.39536371665     IErMin= 7 ErrMin= 4.13D-03
 ErrMax= 4.13D-03  0.00D+00 EMaxC= 1.00D-01 BMatC= 1.48D-01 BMatP= 1.21D+00
 IDIUse=3 WtCom= 9.59D-01 WtEn= 4.13D-02
 Coeff-Com: -0.155D+00 0.221D+00 0.272D-01 0.722D-02 0.682D-03 0.276D+00
 Coeff-Com:  0.624D+00
 Coeff-En:   0.000D+00 0.000D+00 0.000D+00 0.000D+00 0.000D+00 0.144D+00
 Coeff-En:   0.856D+00
 Coeff:     -0.149D+00 0.212D+00 0.261D-01 0.692D-02 0.654D-03 0.270D+00
 Coeff:      0.633D+00
 Gap=     0.134 Goal=   None    Shift=    0.000
 Gap=     0.136 Goal=   None    Shift=    0.000
 RMSDP=1.18D-03 MaxDP=1.20D-01 DE=-2.14D-01 OVMax= 7.03D-02

 Cycle   8  Pass 1  IDiag  1:
 RMSU=  8.96D-04    CP:  6.38D-01  2.00D+00  6.95D-01  3.89D-01  6.73D-01
                    CP:  3.88D-01  6.57D-01
 E= -3531.42000354777     Delta-E=       -0.024639831123 Rises=F Damp=F
 DIIS: error= 3.59D-03 at cycle   8 NSaved=   8.
 NSaved= 8 IEnMin= 8 EnMin= -3531.42000354777     IErMin= 8 ErrMin= 3.59D-03
 ErrMax= 3.59D-03  0.00D+00 EMaxC= 1.00D-01 BMatC= 7.48D-02 BMatP= 1.48D-01
 IDIUse=3 WtCom= 9.64D-01 WtEn= 3.59D-02
 Coeff-Com: -0.877D-01 0.118D+00-0.353D-02 0.722D-02-0.254D-01 0.116D+00
 Coeff-Com:  0.449D+00 0.426D+00
 Coeff-En:   0.000D+00 0.000D+00 0.000D+00 0.000D+00 0.000D+00 0.000D+00
 Coeff-En:   0.268D+00 0.732D+00
 Coeff:     -0.845D-01 0.114D+00-0.340D-02 0.696D-02-0.245D-01 0.112D+00
 Coeff:      0.442D+00 0.437D+00
 Gap=     0.146 Goal=   None    Shift=    0.000
 Gap=     0.132 Goal=   None    Shift=    0.000
 RMSDP=5.76D-04 MaxDP=5.58D-02 DE=-2.46D-02 OVMax= 3.52D-02

 Cycle   9  Pass 1  IDiag  1:
 RMSU=  3.52D-04    CP:  6.41D-01  1.99D+00  6.83D-01  3.88D-01  6.36D-01
                    CP:  4.25D-01  7.88D-01  6.66D-01
 E= -3531.43067113855     Delta-E=       -0.010667590780 Rises=F Damp=F
 DIIS: error= 2.28D-03 at cycle   9 NSaved=   9.
 NSaved= 9 IEnMin= 9 EnMin= -3531.43067113855     IErMin= 9 ErrMin= 2.28D-03
 ErrMax= 2.28D-03  0.00D+00 EMaxC= 1.00D-01 BMatC= 2.00D-02 BMatP= 7.48D-02
 IDIUse=3 WtCom= 9.77D-01 WtEn= 2.28D-02
 Coeff-Com: -0.265D-01 0.434D-01-0.455D-02 0.129D-02 0.146D-01-0.614D-01
 Coeff-Com:  0.827D-02 0.146D+00 0.879D+00
 Coeff-En:   0.000D+00 0.000D+00 0.000D+00 0.000D+00 0.000D+00 0.000D+00
 Coeff-En:   0.000D+00 0.000D+00 0.100D+01
 Coeff:     -0.259D-01 0.425D-01-0.445D-02 0.126D-02 0.142D-01-0.600D-01
 Coeff:      0.808D-02 0.143D+00 0.881D+00
 Gap=     0.149 Goal=   None    Shift=    0.000
 Gap=     0.127 Goal=   None    Shift=    0.000
 RMSDP=3.47D-04 MaxDP=6.17D-02 DE=-1.07D-02 OVMax= 1.43D-02

 Cycle  10  Pass 1  IDiag  1:
 RMSU=  2.43D-04    CP:  6.43D-01  2.00D+00  6.69D-01  4.00D-01  6.52D-01
                    CP:  4.21D-01  8.50D-01  7.24D-01  1.15D+00
 E= -3531.43387972671     Delta-E=       -0.003208588155 Rises=F Damp=F
 DIIS: error= 4.10D-04 at cycle  10 NSaved=  10.
 NSaved=10 IEnMin=10 EnMin= -3531.43387972671     IErMin=10 ErrMin= 4.10D-04
 ErrMax= 4.10D-04  0.00D+00 EMaxC= 1.00D-01 BMatC= 2.92D-03 BMatP= 2.00D-02
 IDIUse=3 WtCom= 9.96D-01 WtEn= 4.10D-03
 Coeff-Com: -0.143D-02 0.681D-02-0.325D-02-0.899D-04 0.176D-01-0.646D-01
 Coeff-Com: -0.696D-01 0.200D-01 0.619D+00 0.476D+00
 Coeff-En:   0.000D+00 0.000D+00 0.000D+00 0.000D+00 0.000D+00 0.000D+00
 Coeff-En:   0.000D+00 0.000D+00 0.000D+00 0.100D+01
 Coeff:     -0.143D-02 0.678D-02-0.323D-02-0.895D-04 0.175D-01-0.644D-01
 Coeff:     -0.693D-01 0.199D-01 0.616D+00 0.478D+00
 Gap=     0.147 Goal=   None    Shift=    0.000
 Gap=     0.124 Goal=   None    Shift=    0.000
 RMSDP=1.51D-04 MaxDP=1.45D-02 DE=-3.21D-03 OVMax= 1.07D-02

 Cycle  11  Pass 1  IDiag  1:
 RMSU=  1.19D-04    CP:  6.43D-01  2.01D+00  6.68D-01  4.02D-01  6.54D-01
                    CP:  4.19D-01  8.28D-01  7.95D-01  1.22D+00  8.02D-01
 E= -3531.43451944033     Delta-E=       -0.000639713621 Rises=F Damp=F
 DIIS: error= 1.33D-04 at cycle  11 NSaved=  11.
 NSaved=11 IEnMin=11 EnMin= -3531.43451944033     IErMin=11 ErrMin= 1.33D-04
 ErrMax= 1.33D-04  0.00D+00 EMaxC= 1.00D-01 BMatC= 2.22D-04 BMatP= 2.92D-03
 IDIUse=3 WtCom= 9.99D-01 WtEn= 1.33D-03
 Coeff-Com:  0.239D-03 0.240D-02-0.328D-03-0.192D-03 0.419D-02-0.209D-01
 Coeff-Com: -0.208D-01-0.750D-02 0.133D+00 0.230D+00 0.680D+00
 Coeff-En:   0.000D+00 0.000D+00 0.000D+00 0.000D+00 0.000D+00 0.000D+00
 Coeff-En:   0.000D+00 0.000D+00 0.000D+00 0.000D+00 0.100D+01
 Coeff:      0.238D-03 0.240D-02-0.328D-03-0.192D-03 0.418D-02-0.209D-01
 Coeff:     -0.207D-01-0.749D-02 0.132D+00 0.230D+00 0.681D+00
 Gap=     0.147 Goal=   None    Shift=    0.000
 Gap=     0.124 Goal=   None    Shift=    0.000
 RMSDP=4.85D-05 MaxDP=4.46D-03 DE=-6.40D-04 OVMax= 2.62D-03

 Cycle  12  Pass 1  IDiag  1:
 RMSU=  3.80D-05    CP:  6.43D-01  2.01D+00  6.68D-01  4.01D-01  6.54D-01
                    CP:  4.15D-01  8.41D-01  7.93D-01  1.25D+00  8.27D-01
                    CP:  8.65D-01
 E= -3531.43456727712     Delta-E=       -0.000047836795 Rises=F Damp=F
 DIIS: error= 7.15D-05 at cycle  12 NSaved=  12.
 NSaved=12 IEnMin=12 EnMin= -3531.43456727712     IErMin=12 ErrMin= 7.15D-05
 ErrMax= 7.15D-05  0.00D+00 EMaxC= 1.00D-01 BMatC= 4.44D-05 BMatP= 2.22D-04
 IDIUse=1 WtCom= 1.00D+00 WtEn= 0.00D+00
 Coeff-Com:  0.971D-03-0.617D-03-0.916D-04-0.167D-04-0.125D-03-0.248D-02
 Coeff-Com:  0.110D-02-0.355D-02-0.543D-02 0.688D-01 0.384D+00 0.557D+00
 Coeff:      0.971D-03-0.617D-03-0.916D-04-0.167D-04-0.125D-03-0.248D-02
 Coeff:      0.110D-02-0.355D-02-0.543D-02 0.688D-01 0.384D+00 0.557D+00
 Gap=     0.148 Goal=   None    Shift=    0.000
 Gap=     0.125 Goal=   None    Shift=    0.000
 RMSDP=1.95D-05 MaxDP=1.33D-03 DE=-4.78D-05 OVMax= 1.28D-03

 Cycle  13  Pass 1  IDiag  1:
 RMSU=  1.64D-05    CP:  6.43D-01  2.01D+00  6.68D-01  4.02D-01  6.54D-01
                    CP:  4.16D-01  8.41D-01  7.93D-01  1.25D+00  8.31D-01
                    CP:  9.03D-01  7.67D-01
 E= -3531.43457907854     Delta-E=       -0.000011801414 Rises=F Damp=F
 DIIS: error= 2.49D-05 at cycle  13 NSaved=  13.
 NSaved=13 IEnMin=13 EnMin= -3531.43457907854     IErMin=13 ErrMin= 2.49D-05
 ErrMax= 2.49D-05  0.00D+00 EMaxC= 1.00D-01 BMatC= 4.27D-06 BMatP= 4.44D-05
 IDIUse=1 WtCom= 1.00D+00 WtEn= 0.00D+00
 Coeff-Com:  0.449D-03-0.421D-03-0.805D-06-0.140D-05-0.395D-03 0.303D-03
 Coeff-Com:  0.185D-02-0.129D-02-0.129D-01 0.114D-01 0.886D-01 0.255D+00
 Coeff-Com:  0.657D+00
 Coeff:      0.449D-03-0.421D-03-0.805D-06-0.140D-05-0.395D-03 0.303D-03
 Coeff:      0.185D-02-0.129D-02-0.129D-01 0.114D-01 0.886D-01 0.255D+00
 Coeff:      0.657D+00
 Gap=     0.148 Goal=   None    Shift=    0.000
 Gap=     0.125 Goal=   None    Shift=    0.000
 RMSDP=8.89D-06 MaxDP=8.08D-04 DE=-1.18D-05 OVMax= 5.88D-04

 Cycle  14  Pass 1  IDiag  1:
 RMSU=  8.20D-06    CP:  6.43D-01  2.01D+00  6.68D-01  4.01D-01  6.54D-01
                    CP:  4.15D-01  8.42D-01  7.93D-01  1.25D+00  8.34D-01
                    CP:  9.05D-01  8.20D-01  1.05D+00
 E= -3531.43458059596     Delta-E=       -0.000001517421 Rises=F Damp=F
 DIIS: error= 1.31D-05 at cycle  14 NSaved=  14.
 NSaved=14 IEnMin=14 EnMin= -3531.43458059596     IErMin=14 ErrMin= 1.31D-05
 ErrMax= 1.31D-05  0.00D+00 EMaxC= 1.00D-01 BMatC= 1.20D-06 BMatP= 4.27D-06
 IDIUse=1 WtCom= 1.00D+00 WtEn= 0.00D+00
 Coeff-Com:  0.204D-04-0.961D-04 0.362D-04-0.252D-05-0.131D-03 0.699D-03
 Coeff-Com:  0.307D-03-0.205D-03-0.457D-02-0.123D-01-0.645D-01-0.215D-01
 Coeff-Com:  0.367D+00 0.735D+00
 Coeff:      0.204D-04-0.961D-04 0.362D-04-0.252D-05-0.131D-03 0.699D-03
 Coeff:      0.307D-03-0.205D-03-0.457D-02-0.123D-01-0.645D-01-0.215D-01
 Coeff:      0.367D+00 0.735D+00
 Gap=     0.148 Goal=   None    Shift=    0.000
 Gap=     0.125 Goal=   None    Shift=    0.000
 RMSDP=6.17D-06 MaxDP=5.59D-04 DE=-1.52D-06 OVMax= 4.62D-04

 Cycle  15  Pass 1  IDiag  1:
 RMSU=  4.75D-06    CP:  6.43D-01  2.01D+00  6.68D-01  4.01D-01  6.54D-01
                    CP:  4.15D-01  8.42D-01  7.94D-01  1.26D+00  8.37D-01
                    CP:  9.03D-01  8.62D-01  1.21D+00  1.20D+00
 E= -3531.43458120429     Delta-E=       -0.000000608329 Rises=F Damp=F
 DIIS: error= 6.81D-06 at cycle  15 NSaved=  15.
 NSaved=15 IEnMin=15 EnMin= -3531.43458120429     IErMin=15 ErrMin= 6.81D-06
 ErrMax= 6.81D-06  0.00D+00 EMaxC= 1.00D-01 BMatC= 3.32D-07 BMatP= 1.20D-06
 IDIUse=1 WtCom= 1.00D+00 WtEn= 0.00D+00
 Coeff-Com: -0.103D-03 0.480D-04 0.337D-04 0.491D-06 0.447D-04 0.219D-03
 Coeff-Com: -0.492D-03 0.352D-03 0.245D-02-0.885D-02-0.531D-01-0.821D-01
 Coeff-Com:  0.609D-02 0.350D+00 0.786D+00
 Coeff:     -0.103D-03 0.480D-04 0.337D-04 0.491D-06 0.447D-04 0.219D-03
 Coeff:     -0.492D-03 0.352D-03 0.245D-02-0.885D-02-0.531D-01-0.821D-01
 Coeff:      0.609D-02 0.350D+00 0.786D+00
 Gap=     0.148 Goal=   None    Shift=    0.000
 Gap=     0.125 Goal=   None    Shift=    0.000
 RMSDP=4.06D-06 MaxDP=5.41D-04 DE=-6.08D-07 OVMax= 2.69D-04

 Cycle  16  Pass 1  IDiag  1:
 RMSU=  2.44D-06    CP:  6.43D-01  2.01D+00  6.68D-01  4.01D-01  6.54D-01
                    CP:  4.15D-01  8.42D-01  7.94D-01  1.26D+00  8.35D-01
                    CP:  9.03D-01  8.84D-01  1.33D+00  1.45D+00  1.20D+00
 E= -3531.43458139715     Delta-E=       -0.000000192861 Rises=F Damp=F
 DIIS: error= 3.94D-06 at cycle  16 NSaved=  16.
 NSaved=16 IEnMin=16 EnMin= -3531.43458139715     IErMin=16 ErrMin= 3.94D-06
 ErrMax= 3.94D-06  0.00D+00 EMaxC= 1.00D-01 BMatC= 9.50D-08 BMatP= 3.32D-07
 IDIUse=1 WtCom= 1.00D+00 WtEn= 0.00D+00
 Coeff-Com: -0.106D-03 0.148D-03 0.346D-04-0.593D-06 0.210D-05-0.616D-04
 Coeff-Com: -0.215D-03 0.400D-03 0.213D-02-0.107D-02-0.686D-02-0.315D-01
 Coeff-Com: -0.855D-01-0.142D-01 0.386D+00 0.751D+00
 Coeff:     -0.106D-03 0.148D-03 0.346D-04-0.593D-06 0.210D-05-0.616D-04
 Coeff:     -0.215D-03 0.400D-03 0.213D-02-0.107D-02-0.686D-02-0.315D-01
 Coeff:     -0.855D-01-0.142D-01 0.386D+00 0.751D+00
 Gap=     0.148 Goal=   None    Shift=    0.000
 Gap=     0.125 Goal=   None    Shift=    0.000
 RMSDP=2.29D-06 MaxDP=4.30D-04 DE=-1.93D-07 OVMax= 1.51D-04

 Cycle  17  Pass 1  IDiag  1:
 RMSU=  1.19D-06    CP:  6.43D-01  2.01D+00  6.68D-01  4.01D-01  6.54D-01
                    CP:  4.15D-01  8.42D-01  7.94D-01  1.26D+00  8.35D-01
                    CP:  9.04D-01  8.95D-01  1.38D+00  1.55D+00  1.47D+00
                    CP:  1.29D+00
 E= -3531.43458145212     Delta-E=       -0.000000054972 Rises=F Damp=F
 DIIS: error= 2.21D-06 at cycle  17 NSaved=  17.
 NSaved=17 IEnMin=17 EnMin= -3531.43458145212     IErMin=17 ErrMin= 2.21D-06
 ErrMax= 2.21D-06  0.00D+00 EMaxC= 1.00D-01 BMatC= 2.11D-08 BMatP= 9.50D-08
 IDIUse=1 WtCom= 1.00D+00 WtEn= 0.00D+00
 Coeff-Com: -0.191D-04 0.407D-04 0.627D-05-0.485D-06 0.527D-06-0.699D-04
 Coeff-Com: -0.577D-04 0.147D-03 0.457D-03 0.136D-02 0.749D-02 0.160D-02
 Coeff-Com: -0.481D-01-0.930D-01 0.943D-02 0.401D+00 0.720D+00
 Coeff:     -0.191D-04 0.407D-04 0.627D-05-0.485D-06 0.527D-06-0.699D-04
 Coeff:     -0.577D-04 0.147D-03 0.457D-03 0.136D-02 0.749D-02 0.160D-02
 Coeff:     -0.481D-01-0.930D-01 0.943D-02 0.401D+00 0.720D+00
 Gap=     0.148 Goal=   None    Shift=    0.000
 Gap=     0.125 Goal=   None    Shift=    0.000
 RMSDP=1.44D-06 MaxDP=2.34D-04 DE=-5.50D-08 OVMax= 9.17D-05

 Cycle  18  Pass 1  IDiag  1:
 RMSU=  6.59D-07    CP:  6.43D-01  2.01D+00  6.68D-01  4.01D-01  6.54D-01
                    CP:  4.15D-01  8.42D-01  7.94D-01  1.26D+00  8.36D-01
                    CP:  9.04D-01  9.02D-01  1.41D+00  1.62D+00  1.59D+00
                    CP:  1.58D+00  1.34D+00
 E= -3531.43458146921     Delta-E=       -0.000000017086 Rises=F Damp=F
 DIIS: error= 1.12D-06 at cycle  18 NSaved=  18.
 NSaved=18 IEnMin=18 EnMin= -3531.43458146921     IErMin=18 ErrMin= 1.12D-06
 ErrMax= 1.12D-06  0.00D+00 EMaxC= 1.00D-01 BMatC= 7.24D-09 BMatP= 2.11D-08
 IDIUse=1 WtCom= 1.00D+00 WtEn= 0.00D+00
 Coeff-Com:  0.147D-04-0.973D-05-0.544D-05-0.366D-07 0.230D-05-0.298D-04
 Coeff-Com:  0.191D-04-0.380D-04-0.319D-03 0.116D-02 0.655D-02 0.984D-02
 Coeff-Com: -0.681D-02-0.536D-01-0.994D-01 0.364D-01 0.414D+00 0.692D+00
 Coeff:      0.147D-04-0.973D-05-0.544D-05-0.366D-07 0.230D-05-0.298D-04
 Coeff:      0.191D-04-0.380D-04-0.319D-03 0.116D-02 0.655D-02 0.984D-02
 Coeff:     -0.681D-02-0.536D-01-0.994D-01 0.364D-01 0.414D+00 0.692D+00
 Gap=     0.148 Goal=   None    Shift=    0.000
 Gap=     0.125 Goal=   None    Shift=    0.000
 RMSDP=8.79D-07 MaxDP=2.02D-04 DE=-1.71D-08 OVMax= 5.06D-05

 Cycle  19  Pass 1  IDiag  1:
 RMSU=  3.44D-07    CP:  6.43D-01  2.01D+00  6.68D-01  4.01D-01  6.54D-01
                    CP:  4.15D-01  8.42D-01  7.94D-01  1.26D+00  8.36D-01
                    CP:  9.04D-01  9.02D-01  1.42D+00  1.65D+00  1.67D+00
                    CP:  1.76D+00  1.67D+00  1.18D+00
 E= -3531.43458147473     Delta-E=       -0.000000005522 Rises=F Damp=F
 DIIS: error= 6.56D-07 at cycle  19 NSaved=  19.
 NSaved=19 IEnMin=19 EnMin= -3531.43458147473     IErMin=19 ErrMin= 6.56D-07
 ErrMax= 6.56D-07  0.00D+00 EMaxC= 1.00D-01 BMatC= 1.97D-09 BMatP= 7.24D-09
 IDIUse=1 WtCom= 1.00D+00 WtEn= 0.00D+00
 Coeff-Com:  0.190D-04-0.251D-04-0.665D-05-0.756D-07 0.243D-05 0.678D-05
 Coeff-Com:  0.385D-04-0.943D-04-0.385D-03 0.605D-04 0.689D-03 0.485D-02
 Coeff-Com:  0.151D-01 0.684D-02-0.566D-01-0.130D+00-0.688D-01 0.327D+00
 Coeff-Com:  0.901D+00
 Coeff:      0.190D-04-0.251D-04-0.665D-05-0.756D-07 0.243D-05 0.678D-05
 Coeff:      0.385D-04-0.943D-04-0.385D-03 0.605D-04 0.689D-03 0.485D-02
 Coeff:      0.151D-01 0.684D-02-0.566D-01-0.130D+00-0.688D-01 0.327D+00
 Coeff:      0.901D+00
 Gap=     0.148 Goal=   None    Shift=    0.000
 Gap=     0.125 Goal=   None    Shift=    0.000
 RMSDP=6.67D-07 MaxDP=1.19D-04 DE=-5.52D-09 OVMax= 3.79D-05

 Cycle  20  Pass 1  IDiag  1:
 RMSU=  1.72D-07    CP:  6.43D-01  2.01D+00  6.68D-01  4.01D-01  6.54D-01
                    CP:  4.15D-01  8.42D-01  7.94D-01  1.26D+00  8.36D-01
                    CP:  9.04D-01  9.05D-01  1.43D+00  1.67D+00  1.73D+00
                    CP:  1.91D+00  1.93D+00  1.51D+00  1.28D+00
 E= -3531.43458147683     Delta-E=       -0.000000002096 Rises=F Damp=F
 DIIS: error= 2.88D-07 at cycle  20 NSaved=  20.
 NSaved=20 IEnMin=20 EnMin= -3531.43458147683     IErMin=20 ErrMin= 2.88D-07
 ErrMax= 2.88D-07  0.00D+00 EMaxC= 1.00D-01 BMatC= 5.44D-10 BMatP= 1.97D-09
 IDIUse=1 WtCom= 1.00D+00 WtEn= 0.00D+00
 Coeff-Com:  0.181D-05-0.405D-05-0.773D-06 0.306D-07-0.234D-06 0.962D-05
 Coeff-Com:  0.142D-04-0.464D-04-0.104D-03-0.257D-03-0.114D-02 0.748D-04
 Coeff-Com:  0.930D-02 0.164D-01-0.654D-02-0.754D-01-0.128D+00 0.151D-02
 Coeff-Com:  0.491D+00 0.693D+00
 Coeff:      0.181D-05-0.405D-05-0.773D-06 0.306D-07-0.234D-06 0.962D-05
 Coeff:      0.142D-04-0.464D-04-0.104D-03-0.257D-03-0.114D-02 0.748D-04
 Coeff:      0.930D-02 0.164D-01-0.654D-02-0.754D-01-0.128D+00 0.151D-02
 Coeff:      0.491D+00 0.693D+00
 Gap=     0.148 Goal=   None    Shift=    0.000
 Gap=     0.125 Goal=   None    Shift=    0.000
 RMSDP=2.48D-07 MaxDP=5.10D-05 DE=-2.10D-09 OVMax= 1.58D-05

 Cycle  21  Pass 1  IDiag  1:
 Restarting incremental Fock formation.
 E= -3531.43458147711     Delta-E=       -0.000000000280 Rises=F Damp=F
 DIIS: error= 1.46D-07 at cycle  21 NSaved=  20.
 NSaved=20 IEnMin=20 EnMin= -3531.43458147711     IErMin=20 ErrMin= 1.46D-07
 ErrMax= 1.46D-07  0.00D+00 EMaxC= 1.00D-01 BMatC= 1.80D-10 BMatP= 5.44D-10
 IDIUse=1 WtCom= 1.00D+00 WtEn= 0.00D+00
 Coeff-Com: -0.113D-05 0.339D-06 0.537D-06-0.116D-05 0.333D-05 0.363D-05
 Coeff-Com: -0.278D-05 0.293D-04-0.103D-03-0.514D-03-0.612D-03 0.190D-02
 Coeff-Com:  0.666D-02 0.633D-02-0.147D-01-0.514D-01-0.710D-01 0.674D-01
 Coeff-Com:  0.398D+00 0.658D+00
 Coeff:     -0.113D-05 0.339D-06 0.537D-06-0.116D-05 0.333D-05 0.363D-05
 Coeff:     -0.278D-05 0.293D-04-0.103D-03-0.514D-03-0.612D-03 0.190D-02
 Coeff:      0.666D-02 0.633D-02-0.147D-01-0.514D-01-0.710D-01 0.674D-01
 Coeff:      0.398D+00 0.658D+00
 Gap=     0.148 Goal=   None    Shift=    0.000
 Gap=     0.125 Goal=   None    Shift=    0.000
[...]
    16   Atom       -0.101108     -0.102507      0.203615
    17   Atom        0.001679      0.004768     -0.006447
    18   Atom       -0.134352      0.050854      0.083498
    19   Atom       -0.086723      0.195767     -0.109044
    20   Atom        0.014320     -0.014951      0.000632
    21   Atom        0.002660     -0.003489      0.000829
    22   Atom        0.002518     -0.001769     -0.000749
    23   Atom        0.003510     -0.001748     -0.001762
    24   Atom        0.007131     -0.003693     -0.003438
    25   Atom        0.005961     -0.018417      0.012456
    26   Atom        0.006871     -0.001710     -0.005161
    27   Atom        0.001458     -0.003944      0.002486
    28   Atom        0.004622     -0.003618     -0.001003
    29   Atom       -0.000663     -0.004357      0.005020
    30   Atom        0.001367     -0.002373      0.001006
    31   Atom        0.007571     -0.003152     -0.004419
    32   Atom        0.003563      0.000691     -0.004253
    33   Atom        0.001121      0.007542     -0.008663
    34   Atom       -0.000569      0.004851     -0.004281
    35   Atom       -0.004172      0.007039     -0.002867
    36   Atom       -0.014967      0.028344     -0.013377
    37   Atom       -0.007589      0.003033      0.004556
    38   Atom        0.002548      0.005792     -0.008341
    39   Atom        0.002668     -0.000091     -0.002577
    40   Atom       -0.000571      0.005742     -0.005171
    41   Atom       -0.004837      0.010199     -0.005363
    42   Atom        0.001179      0.003354     -0.004533
    43   Atom       -0.000353      0.003144     -0.002791
    44   Atom       -0.002826      0.006180     -0.003354
    45   Atom       -0.005897      0.010640     -0.004743
    46   Atom       -0.008255      0.016429     -0.008174
 --------------------------------------------------------
                        XY            XZ            YZ
 --------------------------------------------------------
     1   Atom        0.001147      0.000117     -0.000507
     2   Atom       -0.000831      0.009177      0.002408
     3   Atom       -0.003051      0.011122     -0.001195
     4   Atom       -0.001124      0.005624     -0.000425
     5   Atom       -0.000138      0.002751      0.000049
     6   Atom       -0.000075      0.001701      0.000346
     7   Atom        0.015504     -0.020426     -0.005723
     8   Atom        0.007226     -0.018946     -0.009376
     9   Atom       -0.000292     -0.008039      0.000703
    10   Atom       -0.003533     -0.007367      0.002947
    11   Atom       -0.016297     -0.013339      0.015076
    12   Atom       -0.021350     -0.011467      0.020078
    13   Atom       -0.009557     -0.005822      0.012562
    14   Atom       -0.161699      0.100985     -0.032837
    15   Atom       -0.082897     -0.040849      0.002206
    16   Atom       -0.037451      0.106296     -0.126017
    17   Atom       -0.009741     -0.000072     -0.000186
    18   Atom        0.047845      0.045507      0.202953
    19   Atom        0.159103     -0.043016     -0.123457
    20   Atom       -0.009238      0.022644     -0.005987
    21   Atom       -0.001043      0.005267     -0.000793
    22   Atom       -0.000042      0.002017     -0.000001
    23   Atom        0.000434      0.000501      0.000045
    24   Atom        0.001039     -0.001920     -0.000137
    25   Atom        0.007070     -0.027167     -0.010572
    26   Atom        0.009433     -0.007336     -0.004361
    27   Atom        0.000792     -0.005989     -0.001177
    28   Atom        0.000517     -0.004761     -0.000298
    29   Atom       -0.003583     -0.007592      0.004518
    30   Atom       -0.001968     -0.004316      0.001682
    31   Atom       -0.004441     -0.002784      0.002067
    32   Atom       -0.006686      0.000961     -0.000799
    33   Atom       -0.013507      0.003193     -0.004982
    34   Atom       -0.005701     -0.000147     -0.000233
    35   Atom       -0.004034     -0.002171      0.006553
    36   Atom       -0.011843     -0.005825      0.017270
    37   Atom       -0.006859     -0.006708      0.015027
    38   Atom        0.016165     -0.006719     -0.006891
    39   Atom        0.004736     -0.003036     -0.001328
    40   Atom        0.007689     -0.001494     -0.002018
    41   Atom        0.005245     -0.000763     -0.001845
    42   Atom        0.006789     -0.000003      0.000141
    43   Atom        0.004707     -0.001612     -0.002290
    44   Atom        0.002666     -0.000064     -0.000181
    45   Atom        0.002674     -0.000495     -0.004119
    46   Atom        0.006298      0.000174      0.001513
 --------------------------------------------------------


 ---------------------------------------------------------------------------------
              Anisotropic Spin Dipole Couplings in Principal Axis System
 ---------------------------------------------------------------------------------

       Atom             a.u.   MegaHertz   Gauss  10(-4) cm-1        Axes

              Baa    -0.0072    -0.965    -0.344    -0.322 -0.0606  0.9780  0.1997
     1 C(13)  Bbb    -0.0046    -0.613    -0.219    -0.205  0.0070 -0.1997  0.9798
              Bcc     0.0118     1.578     0.563     0.527  0.9981  0.0608  0.0052
 
              Baa    -0.0150    -2.008    -0.717    -0.670 -0.2059 -0.5901  0.7807
     2 C(13)  Bbb    -0.0096    -1.293    -0.461    -0.431 -0.1438  0.8073  0.5723
              Bcc     0.0246     3.301     1.178     1.101  0.9679 -0.0055  0.2511
 
              Baa    -0.0102    -1.363    -0.486    -0.454  0.2285  0.9452 -0.2330
     3 C(13)  Bbb    -0.0093    -1.254    -0.447    -0.418 -0.3791  0.3069  0.8730
              Bcc     0.0195     2.616     0.933     0.873  0.8967 -0.1112  0.4284
 
              Baa    -0.0046    -0.611    -0.218    -0.204 -0.4515 -0.5785  0.6793
     4 C(13)  Bbb    -0.0041    -0.556    -0.199    -0.186 -0.2245  0.8105  0.5410
              Bcc     0.0087     1.167     0.416     0.389  0.8635 -0.0918  0.4959
 
              Baa    -0.0028    -0.369    -0.132    -0.123  0.2431  0.7816 -0.5744
     5 C(13)  Bbb    -0.0026    -0.343    -0.122    -0.114 -0.2843  0.6236  0.7282
              Bcc     0.0053     0.712     0.254     0.237  0.9274 -0.0138  0.3738
 
              Baa    -0.0034    -0.459    -0.164    -0.153 -0.1961 -0.2327  0.9526
     6 C(13)  Bbb    -0.0019    -0.249    -0.089    -0.083 -0.0464  0.9725  0.2281
              Bcc     0.0053     0.708     0.253     0.236  0.9795 -0.0005  0.2015
 
              Baa    -0.0350    -4.698    -1.676    -1.567  0.0851  0.5680  0.8186
     7 C(13)  Bbb    -0.0304    -4.078    -1.455    -1.360 -0.2639  0.8051 -0.5312
              Bcc     0.0654     8.777     3.132     2.928  0.9608  0.1709 -0.2184
 
              Baa    -0.0167    -2.245    -0.801    -0.749  0.2281  0.7640  0.6035
     8 C(13)  Bbb    -0.0116    -1.561    -0.557    -0.521  0.6487 -0.5815  0.4910
              Bcc     0.0284     3.806     1.358     1.270  0.7261  0.2795 -0.6283
 
              Baa    -0.0062    -0.837    -0.299    -0.279  0.6422 -0.1442  0.7528
     9 C(13)  Bbb    -0.0039    -0.517    -0.185    -0.173  0.1309  0.9884  0.0776
              Bcc     0.0101     1.355     0.483     0.452  0.7552 -0.0487 -0.6536
 
              Baa    -0.0058    -0.783    -0.279    -0.261  0.7108  0.1988  0.6747
    10 C(13)  Bbb    -0.0047    -0.630    -0.225    -0.210  0.0866  0.9272 -0.3643
              Bcc     0.0105     1.413     0.504     0.471  0.6981 -0.3174 -0.6419
 
              Baa    -0.0172    -2.306    -0.823    -0.769  0.3146 -0.3642  0.8766
    11 C(13)  Bbb    -0.0133    -1.791    -0.639    -0.597  0.7502  0.6612  0.0055
              Bcc     0.0305     4.097     1.462     1.367 -0.5816  0.6559  0.4813
 
              Baa    -0.0214    -2.866    -1.023    -0.956  0.0096 -0.4676  0.8839
    12 C(13)  Bbb    -0.0185    -2.481    -0.885    -0.827  0.8821  0.4203  0.2128
              Bcc     0.0398     5.346     1.908     1.783 -0.4710  0.7776  0.4165
 
              Baa    -0.0117    -1.565    -0.559    -0.522  0.2357 -0.4006  0.8854
    13 C(13)  Bbb    -0.0104    -1.397    -0.499    -0.466  0.8988  0.4365 -0.0418
              Bcc     0.0221     2.962     1.057     0.988 -0.3697  0.8056  0.4630
 
              Baa    -0.2056    14.874     5.307     4.961  0.5270  0.8432 -0.1061
    14 O(17)  Bbb    -0.0195     1.412     0.504     0.471 -0.3615  0.3353  0.8700
              Bcc     0.2251   -16.285    -5.811    -5.432  0.7692 -0.4201  0.4815
 
              Baa    -0.1341    -2.321    -0.828    -0.774  0.1817  0.0997  0.9783
    15 Fe(57) Bbb    -0.0413    -0.714    -0.255    -0.238  0.3948  0.9037 -0.1654
              Bcc     0.1753     3.036     1.083     1.013  0.9006 -0.4163 -0.1248
 
              Baa    -0.1477    -7.732    -2.759    -2.579 -0.0436  0.9361  0.3489
    16 Cl(35) Bbb    -0.1342    -7.026    -2.507    -2.343  0.9584  0.1379 -0.2501
              Bcc     0.2820    14.758     5.266     4.923  0.2822 -0.3235  0.9032
 
              Baa    -0.0067    -0.905    -0.323    -0.302  0.6526  0.5605  0.5099
    17 C(13)  Bbb    -0.0063    -0.851    -0.304    -0.284 -0.3905 -0.3280  0.8602
              Bcc     0.0131     1.756     0.627     0.586 -0.6494  0.7605 -0.0048
 
              Baa    -0.1466    -7.671    -2.737    -2.559  0.9111 -0.3814  0.1562
    18 Cl(35) Bbb    -0.1347    -7.048    -2.515    -2.351 -0.3812 -0.6359  0.6711
              Bcc     0.2812    14.719     5.252     4.910  0.1566  0.6710  0.7247
 
              Baa    -0.1657    -8.670    -3.094    -2.892  0.6872 -0.4867 -0.5393
    19 Cl(35) Bbb    -0.1423    -7.449    -2.658    -2.485  0.6163 -0.0025  0.7875
              Bcc     0.3080    16.119     5.752     5.377  0.3846  0.8735 -0.2983
 
              Baa    -0.0177    -9.463    -3.377    -3.157  0.4007  0.8935 -0.2028
    20 H(1)   Bbb    -0.0159    -8.473    -3.023    -2.826 -0.4725  0.3912  0.7898
              Bcc     0.0336    17.936     6.400     5.983  0.7850 -0.2207  0.5789
 
              Baa    -0.0037    -1.970    -0.703    -0.657  0.4448  0.8131 -0.3755
    21 H(1)   Bbb    -0.0036    -1.898    -0.677    -0.633 -0.4737  0.5694  0.6719
              Bcc     0.0072     3.868     1.380     1.290  0.7601 -0.1210  0.6384
 
              Baa    -0.0018    -0.946    -0.338    -0.316  0.1193  0.9649 -0.2339
    22 H(1)   Bbb    -0.0017    -0.911    -0.325    -0.304 -0.4136  0.2625  0.8718
              Bcc     0.0035     1.857     0.663     0.619  0.9026 -0.0073  0.4304
 
              Baa    -0.0018    -0.966    -0.345    -0.322 -0.0797 -0.1596  0.9840
    23 H(1)   Bbb    -0.0018    -0.951    -0.339    -0.317 -0.0950  0.9838  0.1519
              Bcc     0.0036     1.917     0.684     0.639  0.9923  0.0814  0.0936
 
              Baa    -0.0038    -2.043    -0.729    -0.681 -0.1818  0.7559 -0.6289
    24 H(1)   Bbb    -0.0037    -1.994    -0.712    -0.665  0.0720  0.6481  0.7581
              Bcc     0.0076     4.037     1.441     1.347  0.9807  0.0926 -0.1723
 
              Baa    -0.0219   -11.698    -4.174    -3.902  0.1784  0.8920  0.4153
    25 H(1)   Bbb    -0.0174    -9.282    -3.312    -3.096  0.7442 -0.3984  0.5361
              Bcc     0.0393    20.980     7.486     6.998 -0.6437 -0.2134  0.7349
 
              Baa    -0.0086    -1.159    -0.414    -0.387  0.4631 -0.0746  0.8832
    26 C(13)  Bbb    -0.0077    -1.032    -0.368    -0.344 -0.4133  0.8633  0.2896
              Bcc     0.0163     2.191     0.782     0.731  0.7840  0.4992 -0.3689
 
              Baa    -0.0043    -2.287    -0.816    -0.763  0.4191  0.7565  0.5021
    27 H(1)   Bbb    -0.0039    -2.059    -0.735    -0.687 -0.6125  0.6438 -0.4587
              Bcc     0.0081     4.346     1.551     1.450 -0.6702 -0.1152  0.7332
 
              Baa    -0.0037    -1.985    -0.708    -0.662  0.4937  0.0361  0.8689
    28 H(1)   Bbb    -0.0037    -1.948    -0.695    -0.650 -0.0650  0.9979 -0.0046
              Bcc     0.0074     3.933     1.403     1.312  0.8672  0.0542 -0.4950
 
              Baa    -0.0065    -3.492    -1.246    -1.165  0.5654  0.8234  0.0495
    29 H(1)   Bbb    -0.0057    -3.058    -1.091    -1.020  0.6201 -0.4638  0.6328
              Bcc     0.0123     6.550     2.337     2.185 -0.5440  0.3271  0.7727
 
              Baa    -0.0033    -1.751    -0.625    -0.584  0.6258  0.6929  0.3581
    30 H(1)   Bbb    -0.0030    -1.599    -0.571    -0.533 -0.3547  0.6618 -0.6605
              Bcc     0.0063     3.350     1.195     1.117  0.6946 -0.2863 -0.6600
 
              Baa    -0.0060    -3.185    -1.137    -1.062 -0.0552 -0.6457  0.7616
    31 H(1)   Bbb    -0.0040    -2.119    -0.756    -0.707  0.4086  0.6814  0.6072
              Bcc     0.0099     5.305     1.893     1.769  0.9111 -0.3447 -0.2262
 
              Baa    -0.0047    -2.514    -0.897    -0.839  0.6240  0.7797  0.0515
    32 H(1)   Bbb    -0.0044    -2.331    -0.832    -0.778 -0.1050  0.0184  0.9943
              Bcc     0.0091     4.846     1.729     1.616  0.7743 -0.6258  0.0933
 
              Baa    -0.0103    -5.506    -1.965    -1.837  0.3673  0.4970  0.7862
    33 H(1)   Bbb    -0.0091    -4.871    -1.738    -1.625  0.7077  0.3992 -0.5829
              Bcc     0.0194    10.377     3.703     3.461 -0.6036  0.7705 -0.2051
 
              Baa    -0.0045    -2.391    -0.853    -0.798  0.5249  0.3402  0.7802
    34 H(1)   Bbb    -0.0040    -2.119    -0.756    -0.707  0.6628  0.4117 -0.6254
              Bcc     0.0085     4.511     1.610     1.505 -0.5340  0.8454 -0.0093
 
              Baa    -0.0062    -3.286    -1.173    -1.096  0.2010 -0.3857  0.9005
    35 H(1)   Bbb    -0.0055    -2.918    -1.041    -0.973  0.9392  0.3371 -0.0652
              Bcc     0.0116     6.204     2.214     2.069 -0.2784  0.8588  0.4300
 
              Baa    -0.0205   -10.935    -3.902    -3.647  0.5171 -0.1712  0.8386
    36 H(1)   Bbb    -0.0173    -9.248    -3.300    -3.085  0.8212  0.3754 -0.4297
              Bcc     0.0378    20.182     7.202     6.732 -0.2413  0.9109  0.3347
 
              Baa    -0.0114    -6.087    -2.172    -2.030  0.4056  0.7445 -0.5303
    37 H(1)   Bbb    -0.0105    -5.626    -2.007    -1.877  0.8603 -0.1150  0.4966
              Bcc     0.0220    11.713     4.179     3.907 -0.3087  0.6577  0.6871
 
              Baa    -0.0122     0.883     0.315     0.295  0.7616 -0.5580  0.3295
    38 O(17)  Bbb    -0.0111     0.806     0.287     0.269 -0.0711  0.4336  0.8983
              Bcc     0.0233    -1.689    -0.603    -0.563  0.6441  0.7076 -0.2905
 
              Baa    -0.0044     0.316     0.113     0.105  0.5908 -0.4460  0.6724
    39 O(17)  Bbb    -0.0029     0.211     0.075     0.070 -0.2322  0.7041  0.6711
              Bcc     0.0073    -0.527    -0.188    -0.176  0.7727  0.5526 -0.3124
 
              Baa    -0.0058    -0.776    -0.277    -0.259  0.7798 -0.4427  0.4426
    40 C(13)  Bbb    -0.0055    -0.737    -0.263    -0.246 -0.2964  0.3616  0.8840
              Bcc     0.0113     1.514     0.540     0.505  0.5514  0.8205 -0.1508
 
              Baa    -0.0065    -0.875    -0.312    -0.292  0.9437 -0.2759  0.1826
    41 C(13)  Bbb    -0.0056    -0.746    -0.266    -0.249 -0.1417  0.1615  0.9766
              Bcc     0.0121     1.620     0.578     0.540  0.2990  0.9475 -0.1133
 
              Baa    -0.0047    -2.493    -0.890    -0.832  0.6278 -0.5409  0.5598
    42 H(1)   Bbb    -0.0045    -2.385    -0.851    -0.796 -0.4302  0.3583  0.8286
              Bcc     0.0091     4.878     1.741     1.627  0.6487  0.7610  0.0077
 
              Baa    -0.0036    -1.937    -0.691    -0.646  0.8319 -0.4901  0.2602
    43 H(1)   Bbb    -0.0036    -1.906    -0.680    -0.636 -0.0734  0.3676  0.9271
              Bcc     0.0072     3.842     1.371     1.282  0.5500  0.7904 -0.2699
 
              Baa    -0.0036    -1.898    -0.677    -0.633  0.9626 -0.2624  0.0670
    44 H(1)   Bbb    -0.0034    -1.791    -0.639    -0.597 -0.0597  0.0357  0.9976
              Bcc     0.0069     3.689     1.316     1.230  0.2641  0.9643 -0.0187
 
              Baa    -0.0064    -3.391    -1.210    -1.131  0.9493 -0.2068 -0.2369
    45 H(1)   Bbb    -0.0057    -3.056    -1.090    -1.019  0.2767  0.1918  0.9416
              Bcc     0.0121     6.447     2.300     2.150  0.1493  0.9594 -0.2393
 
              Baa    -0.0098    -5.224    -1.864    -1.743  0.9638 -0.2384  0.1195
    46 H(1)   Bbb    -0.0082    -4.396    -1.569    -1.466 -0.1298 -0.0276  0.9912
              Bcc     0.0180     9.620     3.433     3.209  0.2330  0.9708  0.0576
 

 ---------------------------------------------------------------------------------

 No NMR shielding tensors so no spin-rotation constants.
 Leave Link  601 at Sun Jun 20 19:44:10 2021, MaxMem=  2147483648 cpu:              75.5 elap:               4.9
 (Enter /SFS/product/gaussian/g16.a03/x86_64/avx/g16/l9999.exe)
 1\1\GINC-KTCHPCPX240\SP\UB3LYP\Jul-CC-pVDZ\C17H22Cl3Fe1O3(6)\KWANEU\20
 -Jun-2021\0\\#p ub3lyp jul-cc-pvdz pop=cm5 scrf=(pcm,solvent=water) gu
 ess=read geom=allcheck\\title\\0,6\C,0,-3.1665151717,-0.3102977326,0.4
 68193476\C,0,-1.8718710083,0.1941865652,0.7038518977\C,0,-1.5188247127
 ,0.5702975519,2.0151064061\C,0,-2.4382965176,0.4586372286,3.0572617315
 \C,0,-3.7244581418,-0.0305919737,2.8088004004\C,0,-4.0825881428,-0.419
 6257629,1.5124177432\C,0,-0.832560639,0.2886904751,-0.3632549077\C,0,-
 0.8658741574,-0.6278544429,-1.6151737802\C,0,-1.8258335926,-0.18989677
 95,-2.7276106724\C,0,-1.6580160526,1.3188300096,-2.9259562968\C,0,-1.7
 878291276,1.9871263902,-1.5850488244\C,0,-0.9446534269,2.8984934951,-1
 .0303110326\C,0,0.3812812865,3.2820287628,-1.6050598955\O,0,0.30513366
 89,0.7341954564,-0.0086248139\Fe,0,2.2091230266,0.3560255903,0.2677296
 457\Cl,0,3.0105950504,-0.3896466764,-1.6516391626\C,0,-1.2938269248,3.
 5726828372,0.2616493387\Cl,0,2.3041792623,-1.0846910357,1.9335400946\C
 l,0,3.095906966,2.2890734747,0.8704946806\H,0,-0.5090451424,0.92230948
 93,2.2137336413\H,0,-2.1451283437,0.7446976777,4.0679035885\H,0,-4.443
 7733026,-0.1199970822,3.6244087186\H,0,-5.0786560548,-0.8172365813,1.3
 150481718\H,0,-3.4629177808,-0.6365246561,-0.5247091518\H,0,0.16304680
 49,-0.5806648147,-1.9948954917\C,0,-1.112411957,-2.0888446647,-1.20418
 03829\H,0,-1.5943199337,-0.7496405368,-3.64374763\H,0,-2.8614116466,-0
 .4388264587,-2.466920599\H,0,-0.687451887,1.5324418931,-3.3903374366\H
 ,0,-2.4316284034,1.6985991551,-3.611174321\H,0,-2.7660008694,1.8753512
 226,-1.1147856914\H,0,-2.2981456011,3.3139587866,0.6154870204\H,0,-0.5
 577233961,3.3042692761,1.0366808142\H,0,-1.2312236649,4.6659663195,0.1
 449678427\H,0,0.3471354002,4.3416571309,-1.9077382908\H,0,1.1681357403
 ,3.2042841268,-0.8409507792\H,0,0.6781127291,2.6892598427,-2.475041402
 \O,0,-0.0289806558,-2.6057720191,-0.6174912297\O,0,-2.1434106655,-2.69
 30693815,-1.4129015802\C,0,-0.1136935278,-4.0005325082,-0.192517467\C,
 0,1.2812341854,-4.4566523115,0.1796724341\H,0,-0.8102943675,-4.0470345
 986,0.6560627544\H,0,-0.5419206,-4.5814287665,-1.0191348229\H,0,1.2370
 189536,-5.501309126,0.5204801337\H,0,1.9555600609,-4.4015390779,-0.685
 68803\H,0,1.6972512806,-3.8387567699,0.985164158\\Version=ES64L-G16Rev
 A.03\State=6-A\HF=-3531.457473\S2=8.761478\S2-1=0.\S2A=8.750041\RMSD=6
 .933e-09\Dipole=-4.2565051,0.8533354,-0.6652978\Quadrupole=-11.9252221
 ,7.4784241,4.446798,-9.2869512,-6.9124615,-4.8245473\PG=C01 [X(C17H22C
 l3Fe1O3)]\\@


 IT WAS AN ACT OF DESPARATION. FOR SIX YEARS I HAD STRUGGLED WITH THE
 BLACKBODY THEORY. I KNEW THE PROBLEM WAS FUNDAMENTAL, AND I KNEW
 THE ANSWER. I HAD TO FIND A THEORETICAL EXPLANATION AT ANY COST,
 EXCEPT FOR THE INVIOLABLITY OF THE TWO LAWS OF THERMODYNAMICS.
   -- MAX PLANCK, 1931
 Job cpu time:       0 days  4 hours 44 minutes 28.6 seconds.
 Elapsed time:       0 days  0 hours 17 minutes 51.6 seconds.
 File lengths (MBytes):  RWF=    670 Int=      0 D2E=      0 Chk=     57 Scr=      1
 Normal termination of Gaussian 16 at Sun Jun 20 19:44:10 2021.
