 Entering Gaussian System, Link 0=g16
 Input=prenyl-first_betaine_grid-CC_260_CO_270-b3lyp_d3bj-juldz-gas.gjf
 Output=prenyl-first_betaine_grid-CC_260_CO_270-b3lyp_d3bj-juldz-gas.out
 Initial command:
 /SFS/product/gaussian/g16.a03/x86_64/avx/g16/l1.exe "/scratch/kwaneu.2874327.bmbhpcps002/Gau-49423.inp" -scrdir="/scratch/kwaneu.2874327.bmbhpcps002/"
 Entering Link 1 = /SFS/product/gaussian/g16.a03/x86_64/avx/g16/l1.exe PID=     49424.
  
 Copyright (c) 1988,1990,1992,1993,1995,1998,2003,2009,2016,
            Gaussian, Inc.  All Rights Reserved.
  
 This is part of the Gaussian(R) 16 program.  It is based on
 the Gaussian(R) 09 system (copyright 2009, Gaussian, Inc.),
 the Gaussian(R) 03 system (copyright 2003, Gaussian, Inc.),
 the Gaussian(R) 98 system (copyright 1998, Gaussian, Inc.),
 the Gaussian(R) 94 system (copyright 1995, Gaussian, Inc.),
 the Gaussian 92(TM) system (copyright 1992, Gaussian, Inc.),
 the Gaussian 90(TM) system (copyright 1990, Gaussian, Inc.),
 the Gaussian 88(TM) system (copyright 1988, Gaussian, Inc.),
 the Gaussian 86(TM) system (copyright 1986, Carnegie Mellon
 University), and the Gaussian 82(TM) system (copyright 1983,
 Carnegie Mellon University). Gaussian is a federally registered
 trademark of Gaussian, Inc.
  
 This software contains proprietary and confidential information,
 including trade secrets, belonging to Gaussian, Inc.
  
 This software is provided under written license and may be
 used, copied, transmitted, or stored only in accord with that
 written license.
  
 The following legend is applicable only to US Government
 contracts under FAR:
  
                    RESTRICTED RIGHTS LEGEND
  
 Use, reproduction and disclosure by the US Government is
 subject to restrictions as set forth in subparagraphs (a)
 and (c) of the Commercial Computer Software - Restricted
 Rights clause in FAR 52.227-19.
  
 Gaussian, Inc.
 340 Quinnipiac St., Bldg. 40, Wallingford CT 06492
  
  
 ---------------------------------------------------------------
 Warning -- This program may not be used in any manner that
 competes with the business of Gaussian, Inc. or will provide
 assistance to any competitor of Gaussian, Inc.  The licensee
 of this program is prohibited from giving any competitor of
 Gaussian, Inc. access to this program.  By using this program,
 the user acknowledges that Gaussian, Inc. is engaged in the
 business of creating and licensing software in the field of
 computational chemistry and represents and warrants to the
 licensee that it is not a competitor of Gaussian, Inc. and that
 it will not use this program in any manner prohibited above.
 ---------------------------------------------------------------
  

 Cite this work as:
 Gaussian 16, Revision A.03,
 M. J. Frisch, G. W. Trucks, H. B. Schlegel, G. E. Scuseria, 
 M. A. Robb, J. R. Cheeseman, G. Scalmani, V. Barone, 
 G. A. Petersson, H. Nakatsuji, X. Li, M. Caricato, A. V. Marenich, 
 J. Bloino, B. G. Janesko, R. Gomperts, B. Mennucci, H. P. Hratchian, 
 J. V. Ortiz, A. F. Izmaylov, J. L. Sonnenberg, D. Williams-Young, 
 F. Ding, F. Lipparini, F. Egidi, J. Goings, B. Peng, A. Petrone, 
 T. Henderson, D. Ranasinghe, V. G. Zakrzewski, J. Gao, N. Rega, 
 G. Zheng, W. Liang, M. Hada, M. Ehara, K. Toyota, R. Fukuda, 
 J. Hasegawa, M. Ishida, T. Nakajima, Y. Honda, O. Kitao, H. Nakai, 
 T. Vreven, K. Throssell, J. A. Montgomery, Jr., J. E. Peralta, 
 F. Ogliaro, M. J. Bearpark, J. J. Heyd, E. N. Brothers, K. N. Kudin, 
 V. N. Staroverov, T. A. Keith, R. Kobayashi, J. Normand, 
 K. Raghavachari, A. P. Rendell, J. C. Burant, S. S. Iyengar, 
 J. Tomasi, M. Cossi, J. M. Millam, M. Klene, C. Adamo, R. Cammi, 
 J. W. Ochterski, R. L. Martin, K. Morokuma, O. Farkas, 
 J. B. Foresman, and D. J. Fox, Gaussian, Inc., Wallingford CT, 2016.
 
 ******************************************
 Gaussian 16:  ES64L-G16RevA.03 25-Dec-2016
                20-Jun-2021 
 ******************************************
 %chk=checkpoint.chk
 %nprocshared=16
 Will use up to   16 processors via shared memory.
 %mem=16GB
 -----------------------------------------------------------
 #p opt=modredundant freq=noraman ub3lyp jul-cc-pvdz pop=cm5
 -----------------------------------------------------------
 1/18=120,19=15,26=3,38=1/1,3;
 2/9=110,12=2,17=6,18=5,40=1/2;
 3/5=16,7=50,11=2,25=1,30=1,71=1,74=-5,116=2/1,2,3;
 4//1;
 5/5=2,38=5/2;
 6/7=2,8=2,9=2,10=2,28=1,79=1/1;
 7//1,2,3,16;
 1/18=20,19=15,26=3/3(2);
 2/9=110/2;
 99//99;
 2/9=110/2;
 3/5=16,7=50,11=2,25=1,30=1,71=1,74=-5,116=2/1,2,3;
 4/5=5,16=3,69=1/1;
 5/5=2,38=5/2;
 7//1,2,3,16;
 1/18=20,19=15,26=3/3(-5);
 2/9=110/2;
 6/7=2,8=2,9=2,10=2,19=2,28=1,79=1/1;
 99/9=1/99;
 Leave Link    1 at Sun Jun 20 08:47:55 2021, MaxMem=  2147483648 cpu:               1.6 elap:               0.1
 (Enter /SFS/product/gaussian/g16.a03/x86_64/avx/g16/l101.exe)
 -----
 title
 -----
 Symbolic Z-matrix:
 Charge =  0 Multiplicity = 6
 6                     2.79899   0.64477   1.26831 
 6                     1.72413  -0.19714   0.91166 
 6                     1.37431  -1.25923   1.77382 
 6                     2.09299  -1.48738   2.94008 
 6                     3.16275  -0.65256   3.27734 
 6                     3.50491   0.41593   2.4456 
 6                     0.91112   0.02214  -0.29791 
 6                     1.21055   1.11307  -1.33477 
 6                     2.57349   1.00868  -2.04007 
 6                     2.65055  -0.32097  -2.81008 
 6                     2.29879  -1.47331  -1.90974 
 6                     1.19778  -2.25271  -1.96088 
 6                     0.08656  -2.11212  -2.96427 
 8                    -0.20901  -0.55561  -0.40178 
 26                   -2.00032  -0.63957   0.35098 
 17                   -3.36106  -0.17671  -1.30272 
 6                     1.03608  -3.40866  -1.0109 
 17                   -2.05835   0.82043   1.98812 
 17                   -2.25361  -2.6979    1.08961 
 1                     0.53806  -1.90052   1.52341 
 1                     1.81273  -2.30947   3.5915 
 1                     3.721    -0.82843   4.19273 
 1                     4.31998   1.07996   2.7173 
 1                     3.05318   1.50535   0.66324 
 1                     0.41535   0.9953   -2.07691 
 6                     0.99657   2.50404  -0.70214 
 1                     2.6846    1.86165  -2.71818 
 1                     3.39154   1.07857  -1.31983 
 1                     1.98433  -0.2772   -3.67748 
 1                     3.66772  -0.44842  -3.20321 
 1                     3.0511   -1.71798  -1.16013 
 1                     1.84961  -3.46399  -0.28172 
 1                     0.08096  -3.3513   -0.47407 
 1                     1.01747  -4.35443  -1.56994 
 1                    -0.0495   -3.05902  -3.50309 
 1                    -0.86464  -1.90222  -2.46029 
 1                     0.25297  -1.32521  -3.70252 
 8                    -0.30682   2.765    -0.58849 
 8                     1.8918    3.2544   -0.37542 
 6                    -0.67297   4.03956   0.01952 
 6                    -2.17378   4.19591  -0.11453 
 1                    -0.35004   4.01527   1.06437 
 1                    -0.11899   4.83082  -0.49328 
 1                    -2.47963   5.14763   0.33387 
 1                    -2.47554   4.19751  -1.16657 
 1                    -2.69726   3.38531   0.39948 
 
 The following ModRedundant input section has been read:
 B       7      11 F                                                           
 B      12      14 F                                                           
 
 ITRead=  0  0  0  0  0  0  0  0  0  0  0  0  0  0  0  0  0  0  0  0
 ITRead=  0  0  0  0  0  0  0  0  0  0  0  0  0  0  0  0  0  0  0  0
 ITRead=  0  0  0  0  0  0
 MicOpt= -1 -1 -1 -1 -1 -1 -1 -1 -1 -1 -1 -1 -1 -1 -1 -1 -1 -1 -1 -1
 MicOpt= -1 -1 -1 -1 -1 -1 -1 -1 -1 -1 -1 -1 -1 -1 -1 -1 -1 -1 -1 -1
 MicOpt= -1 -1 -1 -1 -1 -1
 NAtoms=     46 NQM=       46 NQMF=       0 NMMI=      0 NMMIF=      0
                NMic=       0 NMicF=      0.
                    Isotopes and Nuclear Properties:
 (Nuclear quadrupole moments (NQMom) in fm**2, nuclear magnetic moments (NMagM)
  in nuclear magnetons)

  Atom         1           2           3           4           5           6           7           8           9          10
 IAtWgt=          12          12          12          12          12          12          12          12          12          12
 AtmWgt=  12.0000000  12.0000000  12.0000000  12.0000000  12.0000000  12.0000000  12.0000000  12.0000000  12.0000000  12.0000000
 NucSpn=           0           0           0           0           0           0           0           0           0           0
 AtZEff=  -0.0000000  -0.0000000  -0.0000000  -0.0000000  -0.0000000  -0.0000000  -0.0000000  -0.0000000  -0.0000000  -0.0000000
 NQMom=    0.0000000   0.0000000   0.0000000   0.0000000   0.0000000   0.0000000   0.0000000   0.0000000   0.0000000   0.0000000
 NMagM=    0.0000000   0.0000000   0.0000000   0.0000000   0.0000000   0.0000000   0.0000000   0.0000000   0.0000000   0.0000000
 AtZNuc=   6.0000000   6.0000000   6.0000000   6.0000000   6.0000000   6.0000000   6.0000000   6.0000000   6.0000000   6.0000000

  Atom        11          12          13          14          15          16          17          18          19          20
 IAtWgt=          12          12          12          16          56          35          12          35          35           1
 AtmWgt=  12.0000000  12.0000000  12.0000000  15.9949146  55.9349393  34.9688527  12.0000000  34.9688527  34.9688527   1.0078250
 NucSpn=           0           0           0           0           0           3           0           3           3           1
 AtZEff=  -0.0000000  -0.0000000  -0.0000000  -0.0000000  -0.0000000  -0.0000000  -0.0000000  -0.0000000  -0.0000000  -0.0000000
 NQMom=    0.0000000   0.0000000   0.0000000   0.0000000   0.0000000  -8.1650000   0.0000000  -8.1650000  -8.1650000   0.0000000
 NMagM=    0.0000000   0.0000000   0.0000000   0.0000000   0.0000000   0.8218740   0.0000000   0.8218740   0.8218740   2.7928460
 AtZNuc=   6.0000000   6.0000000   6.0000000   8.0000000  26.0000000  17.0000000   6.0000000  17.0000000  17.0000000   1.0000000

  Atom        21          22          23          24          25          26          27          28          29          30
 IAtWgt=           1           1           1           1           1          12           1           1           1           1
 AtmWgt=   1.0078250   1.0078250   1.0078250   1.0078250   1.0078250  12.0000000   1.0078250   1.0078250   1.0078250   1.0078250
 NucSpn=           1           1           1           1           1           0           1           1           1           1
 AtZEff=  -0.0000000  -0.0000000  -0.0000000  -0.0000000  -0.0000000  -0.0000000  -0.0000000  -0.0000000  -0.0000000  -0.0000000
 NQMom=    0.0000000   0.0000000   0.0000000   0.0000000   0.0000000   0.0000000   0.0000000   0.0000000   0.0000000   0.0000000
 NMagM=    2.7928460   2.7928460   2.7928460   2.7928460   2.7928460   0.0000000   2.7928460   2.7928460   2.7928460   2.7928460
 AtZNuc=   1.0000000   1.0000000   1.0000000   1.0000000   1.0000000   6.0000000   1.0000000   1.0000000   1.0000000   1.0000000

  Atom        31          32          33          34          35          36          37          38          39          40
 IAtWgt=           1           1           1           1           1           1           1          16          16          12
 AtmWgt=   1.0078250   1.0078250   1.0078250   1.0078250   1.0078250   1.0078250   1.0078250  15.9949146  15.9949146  12.0000000
 NucSpn=           1           1           1           1           1           1           1           0           0           0
 AtZEff=  -0.0000000  -0.0000000  -0.0000000  -0.0000000  -0.0000000  -0.0000000  -0.0000000  -0.0000000  -0.0000000  -0.0000000
 NQMom=    0.0000000   0.0000000   0.0000000   0.0000000   0.0000000   0.0000000   0.0000000   0.0000000   0.0000000   0.0000000
 NMagM=    2.7928460   2.7928460   2.7928460   2.7928460   2.7928460   2.7928460   2.7928460   0.0000000   0.0000000   0.0000000
 AtZNuc=   1.0000000   1.0000000   1.0000000   1.0000000   1.0000000   1.0000000   1.0000000   8.0000000   8.0000000   6.0000000

  Atom        41          42          43          44          45          46
 IAtWgt=          12           1           1           1           1           1
 AtmWgt=  12.0000000   1.0078250   1.0078250   1.0078250   1.0078250   1.0078250
 NucSpn=           0           1           1           1           1           1
 AtZEff=  -0.0000000  -0.0000000  -0.0000000  -0.0000000  -0.0000000  -0.0000000
 NQMom=    0.0000000   0.0000000   0.0000000   0.0000000   0.0000000   0.0000000
 NMagM=    0.0000000   2.7928460   2.7928460   2.7928460   2.7928460   2.7928460
 AtZNuc=   6.0000000   1.0000000   1.0000000   1.0000000   1.0000000   1.0000000
 Leave Link  101 at Sun Jun 20 08:47:55 2021, MaxMem=  2147483648 cpu:               5.2 elap:               0.4
 (Enter /SFS/product/gaussian/g16.a03/x86_64/avx/g16/l103.exe)

 GradGradGradGradGradGradGradGradGradGradGradGradGradGradGradGradGradGrad
 Berny optimization.
 Initialization pass.
                           ----------------------------
                           !    Initial Parameters    !
                           ! (Angstroms and Degrees)  !
 --------------------------                            --------------------------
 ! Name  Definition              Value          Derivative Info.                !
 --------------------------------------------------------------------------------
 ! R1    R(1,2)                  1.4112         estimate D2E/DX2                !
 ! R2    R(1,6)                  1.3917         estimate D2E/DX2                !
 ! R3    R(1,24)                 1.0823         estimate D2E/DX2                !
 ! R4    R(2,3)                  1.412          estimate D2E/DX2                !
 ! R5    R(2,7)                  1.4738         estimate D2E/DX2                !
 ! R6    R(3,4)                  1.3888         estimate D2E/DX2                !
 ! R7    R(3,20)                 1.0832         estimate D2E/DX2                !
 ! R8    R(4,5)                  1.3982         estimate D2E/DX2                !
 ! R9    R(4,21)                 1.0857         estimate D2E/DX2                !
 ! R10   R(5,6)                  1.3966         estimate D2E/DX2                !
 ! R11   R(5,22)                 1.0865         estimate D2E/DX2                !
 ! R12   R(6,23)                 1.0859         estimate D2E/DX2                !
 ! R13   R(7,8)                  1.5346         estimate D2E/DX2                !
 ! R14   R(7,11)                 2.6            Frozen                          !
 ! R15   R(7,14)                 1.2646         estimate D2E/DX2                !
 ! R16   R(8,9)                  1.5382         estimate D2E/DX2                !
 ! R17   R(8,25)                 1.0941         estimate D2E/DX2                !
 ! R18   R(8,26)                 1.543          estimate D2E/DX2                !
 ! R19   R(9,10)                 1.5385         estimate D2E/DX2                !
 ! R20   R(9,27)                 1.0953         estimate D2E/DX2                !
 ! R21   R(9,28)                 1.0922         estimate D2E/DX2                !
 ! R22   R(10,11)                1.5041         estimate D2E/DX2                !
 ! R23   R(10,29)                1.0946         estimate D2E/DX2                !
 ! R24   R(10,30)                1.0979         estimate D2E/DX2                !
 ! R25   R(11,12)                1.3499         estimate D2E/DX2                !
 ! R26   R(11,31)                1.0898         estimate D2E/DX2                !
 ! R27   R(12,13)                1.5038         estimate D2E/DX2                !
 ! R28   R(12,14)                2.7            Frozen                          !
 ! R29   R(12,17)                1.5049         estimate D2E/DX2                !
 ! R30   R(13,35)                1.0979         estimate D2E/DX2                !
 ! R31   R(13,36)                1.0967         estimate D2E/DX2                !
 ! R32   R(13,37)                1.0918         estimate D2E/DX2                !
 ! R33   R(14,15)                1.9449         estimate D2E/DX2                !
 ! R34   R(15,16)                2.191          estimate D2E/DX2                !
 ! R35   R(15,18)                2.1944         estimate D2E/DX2                !
 ! R36   R(15,19)                2.2015         estimate D2E/DX2                !
 ! R37   R(17,32)                1.0939         estimate D2E/DX2                !
 ! R38   R(17,33)                1.0971         estimate D2E/DX2                !
 ! R39   R(17,34)                1.0988         estimate D2E/DX2                !
 ! R40   R(26,38)                1.3341         estimate D2E/DX2                !
 ! R41   R(26,39)                1.2129         estimate D2E/DX2                !
 ! R42   R(38,40)                1.4589         estimate D2E/DX2                !
 ! R43   R(40,41)                1.5149         estimate D2E/DX2                !
 ! R44   R(40,42)                1.0939         estimate D2E/DX2                !
 ! R45   R(40,43)                1.0936         estimate D2E/DX2                !
 ! R46   R(41,44)                1.0956         estimate D2E/DX2                !
 ! R47   R(41,45)                1.0945         estimate D2E/DX2                !
 ! R48   R(41,46)                1.0933         estimate D2E/DX2                !
 ! A1    A(2,1,6)              120.1371         estimate D2E/DX2                !
 ! A2    A(2,1,24)             120.797          estimate D2E/DX2                !
 ! A3    A(6,1,24)             118.9845         estimate D2E/DX2                !
 ! A4    A(1,2,3)              118.8917         estimate D2E/DX2                !
 ! A5    A(1,2,7)              122.6044         estimate D2E/DX2                !
 ! A6    A(3,2,7)              118.4485         estimate D2E/DX2                !
 ! A7    A(2,3,4)              120.5391         estimate D2E/DX2                !
 ! A8    A(2,3,20)             119.6992         estimate D2E/DX2                !
 ! A9    A(4,3,20)             119.7617         estimate D2E/DX2                !
 ! A10   A(3,4,5)              120.0262         estimate D2E/DX2                !
 ! A11   A(3,4,21)             119.649          estimate D2E/DX2                !
 ! A12   A(5,4,21)             120.3217         estimate D2E/DX2                !
 ! A13   A(4,5,6)              120.0374         estimate D2E/DX2                !
 ! A14   A(4,5,22)             119.9786         estimate D2E/DX2                !
 ! A15   A(6,5,22)             119.9803         estimate D2E/DX2                !
 ! A16   A(1,6,5)              120.3538         estimate D2E/DX2                !
 ! A17   A(1,6,23)             119.4633         estimate D2E/DX2                !
 ! A18   A(5,6,23)             120.1811         estimate D2E/DX2                !
 ! A19   A(2,7,8)              123.55           estimate D2E/DX2                !
 ! A20   A(2,7,14)             119.2116         estimate D2E/DX2                !
 ! A21   A(8,7,14)             116.2393         estimate D2E/DX2                !
 ! A22   A(7,8,9)              115.7517         estimate D2E/DX2                !
 ! A23   A(7,8,25)             103.8855         estimate D2E/DX2                !
 ! A24   A(7,8,26)             109.6811         estimate D2E/DX2                !
 ! A25   A(9,8,25)             109.0069         estimate D2E/DX2                !
 ! A26   A(9,8,26)             111.8425         estimate D2E/DX2                !
 ! A27   A(25,8,26)            105.9242         estimate D2E/DX2                !
 ! A28   A(8,9,10)             109.423          estimate D2E/DX2                !
 ! A29   A(8,9,27)             108.7184         estimate D2E/DX2                !
 ! A30   A(8,9,28)             110.9132         estimate D2E/DX2                !
 ! A31   A(10,9,27)            110.9842         estimate D2E/DX2                !
 ! A32   A(10,9,28)            110.3563         estimate D2E/DX2                !
 ! A33   A(27,9,28)            106.4061         estimate D2E/DX2                !
 ! A34   A(9,10,11)            110.539          estimate D2E/DX2                !
 ! A35   A(9,10,29)            109.3638         estimate D2E/DX2                !
 ! A36   A(9,10,30)            109.023          estimate D2E/DX2                !
 ! A37   A(11,10,29)           111.2633         estimate D2E/DX2                !
 ! A38   A(11,10,30)           110.0036         estimate D2E/DX2                !
 ! A39   A(29,10,30)           106.5452         estimate D2E/DX2                !
 ! A40   A(10,11,12)           127.6195         estimate D2E/DX2                !
 ! A41   A(10,11,31)           114.9793         estimate D2E/DX2                !
 ! A42   A(12,11,31)           117.3514         estimate D2E/DX2                !
 ! A43   A(11,12,13)           125.029          estimate D2E/DX2                !
 ! A44   A(11,12,17)           120.4774         estimate D2E/DX2                !
 ! A45   A(13,12,17)           114.4315         estimate D2E/DX2                !
 ! A46   A(12,13,35)           109.7796         estimate D2E/DX2                !
 ! A47   A(12,13,36)           110.6198         estimate D2E/DX2                !
 ! A48   A(12,13,37)           113.9501         estimate D2E/DX2                !
 ! A49   A(35,13,36)           106.4453         estimate D2E/DX2                !
 ! A50   A(35,13,37)           107.9783         estimate D2E/DX2                !
 ! A51   A(36,13,37)           107.7573         estimate D2E/DX2                !
 ! A52   A(7,14,15)            143.4891         estimate D2E/DX2                !
 ! A53   A(14,15,16)           105.7104         estimate D2E/DX2                !
 ! A54   A(14,15,18)           106.5228         estimate D2E/DX2                !
 ! A55   A(14,15,19)           106.033          estimate D2E/DX2                !
 ! A56   A(16,15,18)           113.9618         estimate D2E/DX2                !
 ! A57   A(16,15,19)           112.2902         estimate D2E/DX2                !
 ! A58   A(18,15,19)           111.6367         estimate D2E/DX2                !
 ! A59   A(12,17,32)           112.3168         estimate D2E/DX2                !
 ! A60   A(12,17,33)           111.2384         estimate D2E/DX2                !
 ! A61   A(12,17,34)           109.9862         estimate D2E/DX2                !
 ! A62   A(32,17,33)           108.8999         estimate D2E/DX2                !
 ! A63   A(32,17,34)           107.9508         estimate D2E/DX2                !
 ! A64   A(33,17,34)           106.212          estimate D2E/DX2                !
 ! A65   A(8,26,38)            110.2884         estimate D2E/DX2                !
 ! A66   A(8,26,39)            124.4559         estimate D2E/DX2                !
 ! A67   A(38,26,39)           125.248          estimate D2E/DX2                !
 ! A68   A(26,38,40)           116.8466         estimate D2E/DX2                !
 ! A69   A(38,40,41)           107.5742         estimate D2E/DX2                !
 ! A70   A(38,40,42)           107.7341         estimate D2E/DX2                !
 ! A71   A(38,40,43)           108.0328         estimate D2E/DX2                !
 ! A72   A(41,40,42)           112.2894         estimate D2E/DX2                !
 ! A73   A(41,40,43)           112.687          estimate D2E/DX2                !
 ! A74   A(42,40,43)           108.3259         estimate D2E/DX2                !
 ! A75   A(40,41,44)           109.269          estimate D2E/DX2                !
 ! A76   A(40,41,45)           111.0001         estimate D2E/DX2                !
 ! A77   A(40,41,46)           110.8696         estimate D2E/DX2                !
 ! A78   A(44,41,45)           108.3705         estimate D2E/DX2                !
 ! A79   A(44,41,46)           108.5405         estimate D2E/DX2                !
 ! A80   A(45,41,46)           108.7223         estimate D2E/DX2                !
 ! D1    D(6,1,2,3)              0.6311         estimate D2E/DX2                !
 ! D2    D(6,1,2,7)            177.878          estimate D2E/DX2                !
 ! D3    D(24,1,2,3)          -176.0567         estimate D2E/DX2                !
 ! D4    D(24,1,2,7)             1.1902         estimate D2E/DX2                !
 ! D5    D(2,1,6,5)              0.4801         estimate D2E/DX2                !
 ! D6    D(2,1,6,23)          -179.0363         estimate D2E/DX2                !
 ! D7    D(24,1,6,5)           177.2277         estimate D2E/DX2                !
 ! D8    D(24,1,6,23)           -2.2887         estimate D2E/DX2                !
 ! D9    D(1,2,3,4)             -1.2594         estimate D2E/DX2                !
 ! D10   D(1,2,3,20)           178.6962         estimate D2E/DX2                !
 ! D11   D(7,2,3,4)           -178.6217         estimate D2E/DX2                !
 ! D12   D(7,2,3,20)             1.3339         estimate D2E/DX2                !
 ! D13   D(1,2,7,8)              4.6181         estimate D2E/DX2                !
 ! D14   D(1,2,7,14)          -163.5053         estimate D2E/DX2                !
 ! D15   D(3,2,7,8)           -178.1234         estimate D2E/DX2                !
 ! D16   D(3,2,7,14)            13.7532         estimate D2E/DX2                !
 ! D17   D(2,3,4,5)              0.7721         estimate D2E/DX2                !
 ! D18   D(2,3,4,21)          -179.8729         estimate D2E/DX2                !
 ! D19   D(20,3,4,5)          -179.1835         estimate D2E/DX2                !
 ! D20   D(20,3,4,21)            0.1715         estimate D2E/DX2                !
 ! D21   D(3,4,5,6)              0.3556         estimate D2E/DX2                !
 ! D22   D(3,4,5,22)           179.6611         estimate D2E/DX2                !
 ! D23   D(21,4,5,6)          -178.9949         estimate D2E/DX2                !
 ! D24   D(21,4,5,22)            0.3105         estimate D2E/DX2                !
 ! D25   D(4,5,6,1)             -0.9839         estimate D2E/DX2                !
 ! D26   D(4,5,6,23)           178.529          estimate D2E/DX2                !
 ! D27   D(22,5,6,1)           179.7107         estimate D2E/DX2                !
 ! D28   D(22,5,6,23)           -0.7764         estimate D2E/DX2                !
 ! D29   D(2,7,8,9)             61.1075         estimate D2E/DX2                !
 ! D30   D(2,7,8,25)          -179.4384         estimate D2E/DX2                !
 ! D31   D(2,7,8,26)           -66.5723         estimate D2E/DX2                !
 ! D32   D(14,7,8,9)          -130.4451         estimate D2E/DX2                !
 ! D33   D(14,7,8,25)          -10.991          estimate D2E/DX2                !
 ! D34   D(14,7,8,26)          101.8751         estimate D2E/DX2                !
 ! D35   D(2,7,14,15)           66.3585         estimate D2E/DX2                !
 ! D36   D(8,7,14,15)         -102.6173         estimate D2E/DX2                !
 ! D37   D(7,8,9,10)            61.0663         estimate D2E/DX2                !
 ! D38   D(7,8,9,27)          -177.5743         estimate D2E/DX2                !
 ! D39   D(7,8,9,28)           -60.9122         estimate D2E/DX2                !
 ! D40   D(25,8,9,10)          -55.5472         estimate D2E/DX2                !
 ! D41   D(25,8,9,27)           65.8122         estimate D2E/DX2                !
 ! D42   D(25,8,9,28)         -177.5258         estimate D2E/DX2                !
 ! D43   D(26,8,9,10)         -172.3359         estimate D2E/DX2                !
 ! D44   D(26,8,9,27)          -50.9766         estimate D2E/DX2                !
 ! D45   D(26,8,9,28)           65.6855         estimate D2E/DX2                !
 ! D46   D(7,8,26,38)          -75.1791         estimate D2E/DX2                !
 ! D47   D(7,8,26,39)          105.7897         estimate D2E/DX2                !
 ! D48   D(9,8,26,38)          154.9929         estimate D2E/DX2                !
 ! D49   D(9,8,26,39)          -24.0383         estimate D2E/DX2                !
 ! D50   D(25,8,26,38)          36.3574         estimate D2E/DX2                !
 ! D51   D(25,8,26,39)        -142.6738         estimate D2E/DX2                !
 ! D52   D(8,9,10,11)          -51.78           estimate D2E/DX2                !
 ! D53   D(8,9,10,29)           71.0512         estimate D2E/DX2                !
 ! D54   D(8,9,10,30)         -172.816          estimate D2E/DX2                !
 ! D55   D(27,9,10,11)        -171.7598         estimate D2E/DX2                !
 ! D56   D(27,9,10,29)         -48.9287         estimate D2E/DX2                !
 ! D57   D(27,9,10,30)          67.2042         estimate D2E/DX2                !
 ! D58   D(28,9,10,11)          70.5323         estimate D2E/DX2                !
 ! D59   D(28,9,10,29)        -166.6365         estimate D2E/DX2                !
 ! D60   D(28,9,10,30)         -50.5036         estimate D2E/DX2                !
 ! D61   D(9,10,11,12)         110.7633         estimate D2E/DX2                !
 ! D62   D(9,10,11,31)         -71.8934         estimate D2E/DX2                !
 ! D63   D(29,10,11,12)        -10.9544         estimate D2E/DX2                !
 ! D64   D(29,10,11,31)        166.3888         estimate D2E/DX2                !
 ! D65   D(30,10,11,12)       -128.785          estimate D2E/DX2                !
 ! D66   D(30,10,11,31)         48.5583         estimate D2E/DX2                !
 ! D67   D(10,11,12,13)          0.3125         estimate D2E/DX2                !
 ! D68   D(10,11,12,17)        177.284          estimate D2E/DX2                !
 ! D69   D(31,11,12,13)       -176.9761         estimate D2E/DX2                !
 ! D70   D(31,11,12,17)         -0.0046         estimate D2E/DX2                !
 ! D71   D(11,12,13,35)        123.3279         estimate D2E/DX2                !
 ! D72   D(11,12,13,36)       -119.4941         estimate D2E/DX2                !
 ! D73   D(11,12,13,37)          2.0862         estimate D2E/DX2                !
 ! D74   D(17,12,13,35)        -53.8054         estimate D2E/DX2                !
 ! D75   D(17,12,13,36)         63.3725         estimate D2E/DX2                !
 ! D76   D(17,12,13,37)       -175.0471         estimate D2E/DX2                !
 ! D77   D(11,12,17,32)          4.1224         estimate D2E/DX2                !
 ! D78   D(11,12,17,33)        126.4789         estimate D2E/DX2                !
 ! D79   D(11,12,17,34)       -116.1288         estimate D2E/DX2                !
 ! D80   D(13,12,17,32)       -178.6013         estimate D2E/DX2                !
 ! D81   D(13,12,17,33)        -56.2448         estimate D2E/DX2                !
 ! D82   D(13,12,17,34)         61.1476         estimate D2E/DX2                !
 ! D83   D(7,14,15,16)         121.3446         estimate D2E/DX2                !
 ! D84   D(7,14,15,18)          -0.2228         estimate D2E/DX2                !
 ! D85   D(7,14,15,19)        -119.2624         estimate D2E/DX2                !
 ! D86   D(8,26,38,40)         178.8376         estimate D2E/DX2                !
 ! D87   D(39,26,38,40)         -2.1405         estimate D2E/DX2                !
 ! D88   D(26,38,40,41)        172.9787         estimate D2E/DX2                !
 ! D89   D(26,38,40,42)        -65.7567         estimate D2E/DX2                !
 ! D90   D(26,38,40,43)         51.0686         estimate D2E/DX2                !
 ! D91   D(38,40,41,44)       -179.9529         estimate D2E/DX2                !
 ! D92   D(38,40,41,45)        -60.4932         estimate D2E/DX2                !
 ! D93   D(38,40,41,46)         60.458          estimate D2E/DX2                !
 ! D94   D(42,40,41,44)         61.6785         estimate D2E/DX2                !
 ! D95   D(42,40,41,45)       -178.8618         estimate D2E/DX2                !
 ! D96   D(42,40,41,46)        -57.9106         estimate D2E/DX2                !
 ! D97   D(43,40,41,44)        -60.9828         estimate D2E/DX2                !
 ! D98   D(43,40,41,45)         58.4769         estimate D2E/DX2                !
 ! D99   D(43,40,41,46)        179.4281         estimate D2E/DX2                !
 --------------------------------------------------------------------------------
 Trust Radius=3.00D-01 FncErr=1.00D-07 GrdErr=1.00D-06 EigMax=2.50D+02 EigMin=1.00D-04
 Number of steps in this run=    237 maximum allowed number of steps=    276.
 GradGradGradGradGradGradGradGradGradGradGradGradGradGradGradGradGradGrad

 Leave Link  103 at Sun Jun 20 08:47:55 2021, MaxMem=  2147483648 cpu:               0.2 elap:               0.1
 (Enter /SFS/product/gaussian/g16.a03/x86_64/avx/g16/l202.exe)
                          Input orientation:                          
 ---------------------------------------------------------------------
 Center     Atomic      Atomic             Coordinates (Angstroms)
 Number     Number       Type             X           Y           Z
 ---------------------------------------------------------------------
      1          6           0        2.798993    0.644771    1.268311
      2          6           0        1.724125   -0.197137    0.911662
      3          6           0        1.374306   -1.259227    1.773819
      4          6           0        2.092986   -1.487382    2.940075
      5          6           0        3.162753   -0.652563    3.277342
      6          6           0        3.504906    0.415934    2.445604
      7          6           0        0.911117    0.022142   -0.297912
      8          6           0        1.210547    1.113068   -1.334769
      9          6           0        2.573485    1.008680   -2.040073
     10          6           0        2.650547   -0.320974   -2.810080
     11          6           0        2.298791   -1.473311   -1.909738
     12          6           0        1.197779   -2.252712   -1.960875
     13          6           0        0.086556   -2.112124   -2.964267
     14          8           0       -0.209008   -0.555610   -0.401775
     15         26           0       -2.000321   -0.639566    0.350976
     16         17           0       -3.361062   -0.176709   -1.302718
     17          6           0        1.036079   -3.408655   -1.010898
     18         17           0       -2.058346    0.820430    1.988122
     19         17           0       -2.253606   -2.697896    1.089607
     20          1           0        0.538057   -1.900518    1.523411
     21          1           0        1.812733   -2.309471    3.591499
     22          1           0        3.721001   -0.828429    4.192725
     23          1           0        4.319976    1.079960    2.717296
     24          1           0        3.053183    1.505351    0.663241
     25          1           0        0.415349    0.995296   -2.076911
     26          6           0        0.996573    2.504041   -0.702143
     27          1           0        2.684604    1.861653   -2.718175
     28          1           0        3.391536    1.078574   -1.319826
     29          1           0        1.984328   -0.277195   -3.677478
     30          1           0        3.667718   -0.448418   -3.203214
     31          1           0        3.051104   -1.717982   -1.160126
     32          1           0        1.849609   -3.463987   -0.281716
     33          1           0        0.080957   -3.351303   -0.474073
     34          1           0        1.017473   -4.354431   -1.569938
     35          1           0       -0.049504   -3.059018   -3.503091
     36          1           0       -0.864639   -1.902223   -2.460288
     37          1           0        0.252969   -1.325213   -3.702515
     38          8           0       -0.306822    2.765002   -0.588493
     39          8           0        1.891800    3.254402   -0.375424
     40          6           0       -0.672967    4.039563    0.019523
     41          6           0       -2.173775    4.195909   -0.114528
     42          1           0       -0.350043    4.015270    1.064365
     43          1           0       -0.118989    4.830816   -0.493280
     44          1           0       -2.479626    5.147633    0.333866
     45          1           0       -2.475539    4.197506   -1.166566
     46          1           0       -2.697260    3.385307    0.399478
 ---------------------------------------------------------------------
                    Distance matrix (angstroms):
                    1          2          3          4          5
     1  C    0.000000
     2  C    1.411152   0.000000
     3  C    2.431148   1.411993   0.000000
     4  C    2.799878   2.432129   1.388780   0.000000
     5  C    2.419009   2.805977   2.413952   1.398239   0.000000
     6  C    1.391653   2.428995   2.792296   2.420874   1.396618
     7  C    2.530770   1.473816   2.479621   3.762982   4.278730
     8  C    3.085205   2.650821   3.913811   5.080879   5.310379
     9  C    3.335969   3.299719   4.596434   5.591340   5.601952
    10  C    4.193802   3.837311   4.849870   5.893697   6.117926
    11  C    3.851814   3.149470   3.803827   4.854198   5.322204
    12  C    4.624601   3.571260   3.868606   5.040480   5.818979
    13  C    5.733455   4.622946   4.983492   6.267162   7.109922
    14  O    3.643923   2.364450   2.781217   4.163573   4.991400
    15  Fe   5.052172   3.792309   3.714373   4.917051   5.934738
    16  Cl   6.725422   5.546442   5.749838   7.033192   7.985208
    17  C    4.973220   3.805718   3.533990   4.518687   5.523386
    18  Cl   4.913525   4.062179   4.019204   4.844148   5.575991
    19  Cl   6.060867   4.701894   3.962280   4.876724   6.189226
    20  H    3.414001   2.163909   1.083176   2.143694   3.394509
    21  H    3.885545   3.413405   2.144573   1.085691   2.160230
    22  H    3.401855   3.892482   3.397598   2.157263   1.086506
    23  H    2.145306   3.410239   3.878004   3.405930   2.157418
    24  H    1.082275   2.174068   3.419781   3.881031   3.391478
    25  H    4.122516   3.473667   4.564055   5.843655   6.239527
    26  C    3.253966   3.229561   4.520537   5.513559   5.522027
    27  H    4.169647   4.282155   5.624481   6.601654   6.518906
    28  H    2.690306   3.063860   4.370946   5.139759   4.917635
    29  H    5.096521   4.597208   5.572536   6.728177   7.063930
    30  H    4.684472   4.557730   5.539676   6.426447   6.503405
    31  H    3.397568   2.892429   3.410299   4.216967   4.564943
    32  H    4.492862   3.480260   3.051574   3.787629   4.721795
    33  H    5.137337   3.816939   3.332049   4.379369   5.554618
    34  H    6.018429   4.892933   4.570375   5.451322   6.465460
    35  H    6.678193   5.552132   5.754325   6.969555   7.879333
    36  H    5.814794   4.580291   4.832596   6.171188   7.120529
    37  H    5.922177   4.972674   5.590347   6.894633   7.591950
    38  O    4.193947   3.892233   4.959952   6.024337   6.217908
    39  O    3.214815   3.687523   5.025922   5.789432   5.497490
    40  C    5.013840   4.948898   5.945255   6.835733   6.880565
    41  C    6.265082   5.962008   6.775931   7.735350   7.968124
    42  H    4.617173   4.697857   5.594374   6.306018   6.247053
    43  H    5.398221   5.536356   6.667705   7.523323   7.419897
    44  H    7.000912   6.824363   7.614073   8.469034   8.610619
    45  H    6.809643   6.424103   7.296787   8.369819   8.663823
    46  H    6.202758   5.713570   6.327571   7.290006   7.676343
                    6          7          8          9         10
     6  C    0.000000
     7  C    3.796010   0.000000
     8  C    4.476751   1.534552   0.000000
     9  C    4.619544   2.602278   1.538165   0.000000
    10  C    5.375423   3.074790   2.511298   1.538450   0.000000
    11  C    4.898261   2.600000   2.864301   2.500545   1.504071
    12  C    5.644605   2.832416   3.423543   3.540553   2.561893
    13  C    6.880618   3.513466   3.784241   4.096141   3.131460
    14  O    4.779605   1.264620   2.381197   3.587937   3.745937
    15  Fe   5.984068   3.055386   4.027795   5.417890   5.632437
    16  Cl   7.844913   4.393255   4.750175   6.096531   6.199387
    17  C    5.715767   3.506328   4.536663   4.789120   3.921395
    18  Cl   5.596667   3.831570   4.670429   6.141307   6.819034
    19  Cl   6.685441   4.397646   5.692223   6.843567   6.701346
    20  H    3.875382   2.674512   4.207510   5.030389   5.073137
    21  H    3.406517   4.623510   6.028641   6.580537   6.755462
    22  H    2.155822   5.365141   6.373773   6.598449   7.102300
    23  H    1.085857   4.672342   5.107727   5.068320   5.941506
    24  H    2.137218   2.777080   2.746131   2.790107   3.944811
    25  H    5.507646   2.087499   1.094068   2.158492   2.695592
    26  C    4.534340   2.516054   1.542986   2.552021   3.893551
    27  H    5.424722   3.519479   2.155698   1.095323   2.184827
    28  H    3.824972   2.883199   2.181313   1.092176   2.174547
    29  H    6.347024   3.558490   2.831935   2.163718   1.094597
    30  H    5.716883   4.032500   3.459337   2.161800   1.097922
    31  H    4.214359   2.889808   3.381271   2.904671   2.198733
    32  H    5.023153   3.610280   4.739911   4.860099   4.112500
    33  H    5.868562   3.478553   4.684803   5.260656   4.608971
    34  H    6.713291   4.558920   5.475959   5.604031   4.524783
    35  H    7.752167   4.548573   4.867818   5.056348   3.907355
    36  H    6.966674   3.395933   3.829513   4.524448   3.870302
    37  H    7.169802   3.720194   3.531061   3.687216   2.748330
    38  O    5.408617   3.015144   2.363942   3.672590   4.817129
    39  O    4.314767   3.378646   2.443309   2.877328   4.391647
    40  C    6.039137   4.330099   3.734448   4.895675   6.169820
    41  C    7.286282   5.193315   4.737777   6.033459   7.137389
    42  H    5.451942   4.403566   4.076035   5.217675   6.543537
    43  H    6.423460   4.921649   4.037006   4.924501   6.291171
    44  H    7.915999   6.177940   5.716593   6.949852   8.130728
    45  H    7.944418   5.445885   4.809291   6.035252   7.028126
    46  H    7.174306   4.981728   4.841657   6.275390   7.255124
                   11         12         13         14         15
    11  C    0.000000
    12  C    1.349929   0.000000
    13  C    2.532607   1.503788   0.000000
    14  O    3.066787   2.700000   3.012716   0.000000
    15  Fe   4.928318   4.263184   4.185011   1.944861   0.000000
    16  Cl   5.838115   5.052325   4.288665   3.300107   2.191017
    17  C    2.479498   1.504928   2.529474   3.171930   4.329235
    18  Cl   6.280064   5.970019   6.142201   3.320413   2.194357
    19  Cl   5.587486   4.627709   4.717349   3.315719   2.201466
    20  H    3.881907   3.563639   4.515294   2.464391   3.067241
    21  H    5.585609   5.586613   6.782087   4.807255   5.275315
    22  H    6.299096   6.801619   8.128936   6.052176   6.894072
    23  H    5.658076   6.537591   7.771191   5.737193   6.964366
    24  H    4.007712   4.944850   5.919951   4.002963   5.498734
    25  H    3.109553   3.342935   3.248317   2.366688   3.795111
    26  C    4.355845   4.924590   5.220567   3.302289   4.469082
    27  H    3.453173   4.439837   4.754084   4.425140   6.133866
    28  H    2.837993   4.039923   4.879307   4.059223   5.900484
    29  H    2.157426   2.732774   2.734442   3.952021   5.677780
    30  H    2.144166   3.301436   3.955975   4.784198   6.692942
    31  H    1.089843   2.088528   3.492681   3.543238   5.381757
    32  H    2.610558   2.170632   3.483098   3.565245   4.816598
    33  H    3.241416   2.159809   2.781486   2.811620   3.516524
    34  H    3.171450   2.145359   2.799768   4.159315   5.157249
    35  H    3.250804   2.141092   1.097931   3.988816   4.951087
    36  H    3.239500   2.150773   1.096734   2.545721   3.284400
    37  H    2.724219   2.187745   1.091757   3.420613   4.688093
    38  O    5.147641   5.415229   5.439247   3.327295   3.916839
    39  O    4.987086   5.772662   6.225802   4.350894   5.553310
    40  C    6.553257   6.856704   6.879181   4.637711   4.875036
    41  C    7.440879   7.507402   7.281579   5.149733   4.860926
    42  H    6.781308   7.129897   7.346118   4.802333   4.989974
    43  H    6.898843   7.352828   7.372411   5.387955   5.846132
    44  H    8.467817   8.576377   8.376577   6.182544   5.807039
    45  H    7.450147   7.465220   7.043259   5.321107   5.091761
    46  H    7.341606   7.247748   7.020410   4.729084   4.085056
                   16         17         18         19         20
    16  Cl   0.000000
    17  C    5.464932   0.000000
    18  Cl   3.677089   6.037777   0.000000
    19  Cl   3.647747   3.967282   3.636492   0.000000
    20  H    5.114846   2.990857   3.789568   2.935537   0.000000
    21  H    7.434392   4.795149   5.229947   4.790141   2.463540
    22  H    8.987783   6.398755   6.401552   6.987144   4.290192
    23  H    8.760027   6.695601   6.425110   7.754582   4.961000
    24  H    6.916420   5.569462   5.324674   6.783147   4.320381
    25  H    4.029175   4.573453   4.761747   5.548858   4.622025
    26  C    5.151320   5.920884   4.405065   6.390163   4.956155
    27  H    6.535175   5.780015   6.762318   7.724934   6.062396
    28  H    6.868305   5.077287   6.380468   7.206575   5.010123
    29  H    5.850024   4.220885   7.046064   6.822388   5.637031
    30  H    7.286251   4.527116   7.832481   7.651833   5.851868
    31  H    6.596342   2.634572   6.516247   5.844782   3.681045
    32  H    6.244977   1.093892   6.227400   4.393608   2.724534
    33  H    4.755228   1.097146   5.295505   2.884826   2.510709
    34  H    6.057750   1.098801   6.992828   4.529597   3.977479
    35  H    4.910780   2.740759   7.017049   5.106990   5.191635
    36  H    3.247999   2.825385   5.350339   3.894108   4.223437
    37  H    4.487684   3.492677   6.506098   5.579571   5.265221
    38  O    4.300251   6.332128   3.672621   6.037321   5.190475
    39  O    6.342315   6.747771   5.207132   7.400038   5.657861
    40  C    5.172149   7.710937   4.019636   7.002632   6.246024
    41  C    4.684147   8.302773   3.978482   6.998633   6.870466
    42  H    5.678204   7.832159   3.738800   6.977878   5.999666
    43  H    6.020094   8.336126   5.099182   7.983961   7.057592
    44  H    5.639499   9.347654   4.651744   7.885084   7.758728
    45  H    4.465025   8.379104   4.640124   7.258522   7.314618
    46  H    4.003256   7.879397   3.083925   6.138279   6.298448
                   21         22         23         24         25
    21  H    0.000000
    22  H    2.489266   0.000000
    23  H    4.305664   2.485480   0.000000
    24  H    4.966516   4.283663   2.450482   0.000000
    25  H    6.708579   7.318582   6.183664   3.837546   0.000000
    26  C    6.501644   6.518251   4.976503   2.662949   2.122291
    27  H    7.613831   7.488070   5.729732   3.420055   2.512233
    28  H    6.171919   5.842382   4.142506   2.056496   3.072101
    29  H    7.549677   8.078365   6.941920   4.812667   2.577352
    30  H    7.285095   7.405887   6.149294   4.375425   3.732395
    31  H    4.945843   5.467456   4.947011   3.703316   3.892246
    32  H    4.041789   5.519864   5.978649   5.199601   5.016476
    33  H    4.540191   6.433803   6.913046   5.806436   4.644764
    34  H    5.608452   7.276678   7.669388   6.593045   5.407324
    35  H    7.373124   8.855384   8.655444   6.915089   4.322909
    36  H    6.630105   8.151301   7.910817   6.059482   3.190762
    37  H    7.523581   8.637642   7.971159   5.908732   2.837907
    38  O    6.907613   7.210836   5.930840   3.800420   2.422556
    39  O    6.833697   6.394018   4.493234   2.342395   3.190380
    40  C    7.697269   7.773025   6.400524   4.552010   3.853184
    41  C    8.482149   8.862550   7.739326   5.930018   4.560530
    42  H    7.146073   7.058432   5.758238   4.247651   4.424215
    43  H    8.449892   8.290429   6.639362   4.739086   4.183852
    44  H    9.200267   9.436731   8.274134   6.632246   5.606659
    45  H    9.130674   9.611406   8.425111   6.415813   4.409094
    46  H    7.934704   8.563782   7.741350   6.055692   4.640365
                   26         27         28         29         30
    26  C    0.000000
    27  H    2.706750   0.000000
    28  H    2.854704   1.751669   0.000000
    29  H    4.190889   2.446491   3.062167   0.000000
    30  H    4.701849   2.556991   2.440314   1.757284   0.000000
    31  H    4.717661   3.921177   2.821723   3.090459   2.483186
    32  H    6.043326   5.915741   4.908164   4.658862   4.575405
    33  H    5.930887   6.244188   5.594555   4.830607   5.360952
    34  H    6.913186   6.537390   5.934330   4.690457   4.994830
    35  H    6.315632   5.683700   5.807501   3.450424   4.552241
    36  H    5.096111   5.179806   5.319852   3.498411   4.817442
    37  H    4.921216   4.127698   4.615842   2.023999   3.560700
    38  O    1.334112   3.781562   4.129981   4.903688   5.741063
    39  O    1.212938   2.838445   2.806302   4.835732   4.986096
    40  C    2.380335   4.848873   5.203988   6.274028   7.026347
    41  C    3.641266   5.985948   6.491780   7.070579   8.076682
    42  H    2.686585   5.306106   5.320523   6.808790   7.367438
    43  H    2.588819   4.650400   5.204448   6.376114   7.039404
    44  H    4.488413   6.839729   7.332290   8.089903   9.034188
    45  H    3.890896   5.872885   6.646337   6.798385   7.966941
    46  H    3.954061   6.403573   6.734275   7.207826   8.257710
                   31         32         33         34         35
    31  H    0.000000
    32  H    2.294282   0.000000
    33  H    3.458349   1.782647   0.000000
    34  H    3.354767   1.773374   1.756203   0.000000
    35  H    4.111160   3.761368   3.045883   2.560003   0.000000
    36  H    4.130062   3.814764   2.634205   3.216892   1.757856
    37  H    3.800996   4.338834   3.815425   3.782659   1.771254
    38  O    5.630238   6.598834   6.129653   7.307757   6.517692
    39  O    5.165689   6.719175   6.850126   7.751493   7.308231
    40  C    6.957701   7.921957   7.445599   8.708795   7.949048
    41  C    7.960323   8.653876   7.885017   9.241785   8.284253
    42  H    7.027542   7.911364   7.537835   8.880402   8.426003
    43  H    7.306225   8.527831   8.184584   9.317698   8.444719
    44  H    8.941904   9.658220   8.912983  10.302591   9.379598
    45  H    8.095482   8.842417   7.999983   9.246592   8.000133
    46  H    7.843444   8.249295   7.339175   8.808030   7.985611
                   36         37         38         39         40
    36  H    0.000000
    37  H    1.767800   0.000000
    38  O    5.059423   5.171108   0.000000
    39  O    6.207688   5.893062   2.262487   0.000000
    40  C    6.441352   6.594827   1.458853   2.711179   0.000000
    41  C    6.663606   7.017516   2.399511   4.181316   1.514872
    42  H    6.906860   7.183838   2.072915   2.770879   1.093876
    43  H    7.054001   6.952283   2.076520   2.557781   1.093590
    44  H    7.753448   8.102912   3.353916   4.816304   2.142580
    45  H    6.440140   6.661548   2.662625   4.537510   2.163566
    46  H    6.284484   6.907908   2.659898   4.655865   2.161060
                   41         42         43         44         45
    41  C    0.000000
    42  H    2.179086   0.000000
    43  H    2.183737   1.773347   0.000000
    44  H    1.095619   2.520119   2.521339   0.000000
    45  H    1.094462   3.086745   2.531348   1.775966   0.000000
    46  H    1.093304   2.519594   3.087717   1.776925   1.778010
                   46
    46  H    0.000000
 Stoichiometry    C17H22Cl3FeO3(6)
 Framework group  C1[X(C17H22Cl3FeO3)]
 Deg. of freedom   132
 Full point group                 C1      NOp   1
 Largest Abelian subgroup         C1      NOp   1
 Largest concise Abelian subgroup C1      NOp   1
                         Standard orientation:                         
 ---------------------------------------------------------------------
 Center     Atomic      Atomic             Coordinates (Angstroms)
 Number     Number       Type             X           Y           Z
 ---------------------------------------------------------------------
      1          6           0        2.798993    0.644770    1.268311
      2          6           0        1.724125   -0.197138    0.911662
      3          6           0        1.374306   -1.259228    1.773819
      4          6           0        2.092985   -1.487383    2.940075
      5          6           0        3.162753   -0.652564    3.277342
      6          6           0        3.504906    0.415932    2.445604
      7          6           0        0.911117    0.022142   -0.297912
      8          6           0        1.210548    1.113068   -1.334769
      9          6           0        2.573486    1.008679   -2.040073
     10          6           0        2.650547   -0.320975   -2.810080
     11          6           0        2.298790   -1.473312   -1.909738
     12          6           0        1.197778   -2.252712   -1.960875
     13          6           0        0.086555   -2.112124   -2.964267
     14          8           0       -0.209008   -0.555610   -0.401775
     15         26           0       -2.000321   -0.639565    0.350976
     16         17           0       -3.361062   -0.176707   -1.302718
     17          6           0        1.036077   -3.408655   -1.010898
     18         17           0       -2.058346    0.820431    1.988122
     19         17           0       -2.253607   -2.697895    1.089607
     20          1           0        0.538056   -1.900518    1.523411
     21          1           0        1.812732   -2.309472    3.591499
     22          1           0        3.721001   -0.828431    4.192725
     23          1           0        4.319977    1.079958    2.717296
     24          1           0        3.053184    1.505350    0.663241
     25          1           0        0.415350    0.995296   -2.076911
     26          6           0        0.996574    2.504041   -0.702143
     27          1           0        2.684605    1.861652   -2.718175
     28          1           0        3.391537    1.078573   -1.319826
     29          1           0        1.984328   -0.277196   -3.677478
     30          1           0        3.667718   -0.448420   -3.203214
     31          1           0        3.051103   -1.717983   -1.160126
     32          1           0        1.849607   -3.463988   -0.281716
     33          1           0        0.080956   -3.351303   -0.474073
     34          1           0        1.017471   -4.354431   -1.569938
     35          1           0       -0.049505   -3.059018   -3.503091
     36          1           0       -0.864640   -1.902222   -2.460288
     37          1           0        0.252968   -1.325213   -3.702515
     38          8           0       -0.306821    2.765002   -0.588493
     39          8           0        1.891802    3.254401   -0.375424
     40          6           0       -0.672965    4.039563    0.019523
     41          6           0       -2.173773    4.195910   -0.114528
     42          1           0       -0.350041    4.015270    1.064365
     43          1           0       -0.118987    4.830816   -0.493280
     44          1           0       -2.479623    5.147634    0.333866
     45          1           0       -2.475537    4.197507   -1.166566
     46          1           0       -2.697258    3.385308    0.399478
 ---------------------------------------------------------------------
 Rotational constants (GHZ):           0.1843877           0.1639829           0.1414824
 Leave Link  202 at Sun Jun 20 08:47:55 2021, MaxMem=  2147483648 cpu:               0.2 elap:               0.0
 (Enter /SFS/product/gaussian/g16.a03/x86_64/avx/g16/l301.exe)
 Standard basis: Jul-CC-pVDZ (5D, 7F)
 Ernie: Thresh=  0.10000D-02 Tol=  0.10000D-05 Strict=F.
 Ernie:  134 primitive shells out of 958 were deleted.
 There are   766 symmetry adapted cartesian basis functions of A   symmetry.
 There are   710 symmetry adapted basis functions of A   symmetry.
   710 basis functions,  1571 primitive gaussians,   766 cartesian basis functions
   115 alpha electrons      110 beta electrons
       nuclear repulsion energy      3313.3890768120 Hartrees.
 IExCor=  402 DFT=T Ex+Corr=B3LYP ExCW=0 ScaHFX=  0.200000
 ScaDFX=  0.800000  0.720000  1.000000  0.810000 ScalE2=  1.000000  1.000000
 IRadAn=      5 IRanWt=     -1 IRanGd=            0 ICorTp=0 IEmpDi=  4
 NAtoms=   46 NActive=   46 NUniq=   46 SFac= 1.00D+00 NAtFMM=   60 NAOKFM=F Big=F
 Integral buffers will be    131072 words long.
 Raffenetti 2 integral format.
 Two-electron integral symmetry is turned on.
 Leave Link  301 at Sun Jun 20 08:47:55 2021, MaxMem=  2147483648 cpu:               0.9 elap:               0.1
 (Enter /SFS/product/gaussian/g16.a03/x86_64/avx/g16/l302.exe)
 NPDir=0 NMtPBC=     1 NCelOv=     1 NCel=       1 NClECP=     1 NCelD=      1
         NCelK=      1 NCelE2=     1 NClLst=     1 CellRange=     0.0.
 One-electron integrals computed using PRISM.
 One-electron integral symmetry used in STVInt
 NBasis=   710 RedAO= T EigKep=  1.64D-06  NBF=   710
 NBsUse=   710 1.00D-06 EigRej= -1.00D+00 NBFU=   710
 Precomputing XC quadrature grid using
 IXCGrd= 4 IRadAn=           5 IRanWt=          -1 IRanGd=           0 AccXCQ= 0.00D+00.
 Generated NRdTot=       0 NPtTot=           0 NUsed=           0 NTot=          32
 NSgBfM=   765   765   765   765   765 MxSgAt=    46 MxSgA2=    46.
 Leave Link  302 at Sun Jun 20 08:47:57 2021, MaxMem=  2147483648 cpu:              16.6 elap:               1.1
 (Enter /SFS/product/gaussian/g16.a03/x86_64/avx/g16/l303.exe)
 DipDrv:  MaxL=1.
 Leave Link  303 at Sun Jun 20 08:47:57 2021, MaxMem=  2147483648 cpu:               2.4 elap:               0.2
 (Enter /SFS/product/gaussian/g16.a03/x86_64/avx/g16/l401.exe)
 ExpMin= 1.40D-02 ExpMax= 4.32D+06 ExpMxC= 4.91D+03 IAcc=3 IRadAn=         5 AccDes= 0.00D+00
 Harris functional with IExCor=  402 and IRadAn=       5 diagonalized for initial guess.
 HarFok:  IExCor=  402 AccDes= 0.00D+00 IRadAn=         5 IDoV= 1 UseB2=F ITyADJ=14
 ICtDFT=  3500011 ScaDFX=  1.000000  1.000000  1.000000  1.000000
 FoFCou: FMM=F IPFlag=           0 FMFlag=      100000 FMFlg1=           0
         NFxFlg=           0 DoJE=T BraDBF=F KetDBF=T FulRan=T
         wScrn=  0.000000 ICntrl=       500 IOpCl=  0 I1Cent=   200000004 NGrid=           0
         NMat0=    1 NMatS0=      1 NMatT0=    0 NMatD0=    1 NMtDS0=    0 NMtDT0=    0
 Petite list used in FoFCou.
 Harris En= -3531.13158961749    
 JPrj=0 DoOrth=F DoCkMO=F.
 Initial guess <Sx>= 0.0000 <Sy>= 0.0000 <Sz>= 2.5000 <S**2>= 8.7500 S= 2.5000
 Leave Link  401 at Sun Jun 20 08:48:04 2021, MaxMem=  2147483648 cpu:             102.4 elap:               6.5
 (Enter /SFS/product/gaussian/g16.a03/x86_64/avx/g16/l502.exe)
 Integral symmetry usage will be decided dynamically.
 UHF open shell SCF:
 Using DIIS extrapolation, IDIIS=  1040.
 NGot=  2147483648 LenX=  2146290678 LenY=  2145703156
 Requested convergence on RMS density matrix=1.00D-08 within 128 cycles.
 Requested convergence on MAX density matrix=1.00D-06.
 Requested convergence on             energy=1.00D-06.
 No special actions if energy rises.
 Fock matrices will be formed incrementally for  20 cycles.

 Cycle   1  Pass 1  IDiag  1:
 FoFJK:  IHMeth= 1 ICntrl=       0 DoSepK=F KAlg= 0 I1Cent=           0 FoldK=F
 IRaf= 920000000 NMat=       1 IRICut=       1 DoRegI=T DoRafI=F ISym2E= 0 IDoP0=0 IntGTp=1.
 FoFCou: FMM=F IPFlag=           0 FMFlag=      100000 FMFlg1=           0
         NFxFlg=           0 DoJE=F BraDBF=F KetDBF=F FulRan=T
         wScrn=  0.000000 ICntrl=         0 IOpCl=  1 I1Cent=           0 NGrid=           0
         NMat0=    1 NMatS0=      1 NMatT0=    0 NMatD0=    1 NMtDS0=    0 NMtDT0=    0
 Symmetry not used in FoFCou.
 E= -3530.41702105873    
 DIIS: error= 2.10D-02 at cycle   1 NSaved=   1.
 NSaved= 1 IEnMin= 1 EnMin= -3530.41702105873     IErMin= 1 ErrMin= 2.10D-02
 ErrMax= 2.10D-02  0.00D+00 EMaxC= 1.00D-01 BMatC= 4.39D+00 BMatP= 4.39D+00
 IDIUse=3 WtCom= 7.90D-01 WtEn= 2.10D-01
 Coeff-Com:  0.100D+01
 Coeff-En:   0.100D+01
 Coeff:      0.100D+01
 Gap=     0.196 Goal=   None    Shift=    0.000
 Gap=     0.081 Goal=   None    Shift=    0.000
 GapD=    0.081 DampG=0.500 DampE=0.250 DampFc=0.1250 IDamp=-1.
 Damping current iteration by 1.25D-01
 RMSDP=3.47D-02 MaxDP=8.68D+00              OVMax= 7.88D-01

 Cycle   2  Pass 1  IDiag  1:
 RMSU=  1.99D-03    CP:  9.52D-01
 E= -3530.72216589911     Delta-E=       -0.305144840382 Rises=F Damp=T
 DIIS: error= 8.45D-03 at cycle   2 NSaved=   2.
 NSaved= 2 IEnMin= 2 EnMin= -3530.72216589911     IErMin= 2 ErrMin= 8.45D-03
 ErrMax= 8.45D-03  0.00D+00 EMaxC= 1.00D-01 BMatC= 1.22D+00 BMatP= 4.39D+00
 IDIUse=3 WtCom= 9.15D-01 WtEn= 8.45D-02
 Coeff-Com: -0.407D+00 0.141D+01
 Coeff-En:   0.000D+00 0.100D+01
 Coeff:     -0.372D+00 0.137D+01
 Gap=     0.341 Goal=   None    Shift=    0.000
 Gap=     0.007 Goal=   None    Shift=    0.000
 RMSDP=3.06D-02 MaxDP=8.59D+00 DE=-3.05D-01 OVMax= 9.82D-01

 Cycle   3  Pass 1  IDiag  1:
 RMSU=  7.28D-03    CP:  5.86D-01  3.00D+00
 E= -3530.18499172792     Delta-E=        0.537174171196 Rises=F Damp=F
 DIIS: error= 3.00D-02 at cycle   3 NSaved=   3.
 NSaved= 3 IEnMin= 2 EnMin= -3530.72216589911     IErMin= 2 ErrMin= 8.45D-03
 ErrMax= 3.00D-02  0.00D+00 EMaxC= 1.00D-01 BMatC= 5.84D+00 BMatP= 1.22D+00
 IDIUse=2 WtCom= 0.00D+00 WtEn= 1.00D+00
 Coeff-En:   0.000D+00 0.713D+00 0.287D+00
 Coeff:      0.000D+00 0.713D+00 0.287D+00
 Gap=    -0.077 Goal=   None    Shift=    0.000
 Gap=     0.207 Goal=   None    Shift=    0.000
 RMSDP=7.37D-03 MaxDP=7.95D-01 DE= 5.37D-01 OVMax= 7.31D-01

 Cycle   4  Pass 1  IDiag  1:
 RMSU=  5.51D-03    CP:  6.08D-01  3.00D+00  3.73D-01
 E= -3521.53178776693     Delta-E=        8.653203960984 Rises=F Damp=F
 DIIS: error= 1.08D-01 at cycle   4 NSaved=   4.
 NSaved= 4 IEnMin= 2 EnMin= -3530.72216589911     IErMin= 2 ErrMin= 8.45D-03
 ErrMax= 1.08D-01  0.00D+00 EMaxC= 1.00D-01 BMatC= 4.67D+01 BMatP= 1.22D+00
 IDIUse=2 WtCom= 0.00D+00 WtEn= 1.00D+00
 EnCoef did   100 forward-backward iterations
 Coeff-En:   0.363D+00 0.153D-01 0.447D+00 0.175D+00
 Coeff:      0.363D+00 0.153D-01 0.447D+00 0.175D+00
 Gap=     0.100 Goal=   None    Shift=    0.000
 Gap=     0.028 Goal=   None    Shift=    0.000
 RMSDP=5.21D-03 MaxDP=6.09D-01 DE= 8.65D+00 OVMax= 9.50D-01

 Cycle   5  Pass 1  IDiag  1:
 RMSU=  3.66D-03    CP:  6.24D-01  3.00D+00  6.13D-01  4.54D-01
 E= -3530.57844342064     Delta-E=       -9.046655653706 Rises=F Damp=F
 DIIS: error= 3.84D-02 at cycle   5 NSaved=   5.
 NSaved= 5 IEnMin= 2 EnMin= -3530.72216589911     IErMin= 2 ErrMin= 8.45D-03
 ErrMax= 3.84D-02  0.00D+00 EMaxC= 1.00D-01 BMatC= 5.84D+00 BMatP= 1.22D+00
 IDIUse=2 WtCom= 0.00D+00 WtEn= 1.00D+00
 Coeff-En:   0.000D+00 0.000D+00 0.438D+00 0.000D+00 0.562D+00
 Coeff:      0.000D+00 0.000D+00 0.438D+00 0.000D+00 0.562D+00
 Gap=     0.192 Goal=   None    Shift=    0.000
 Gap=     0.081 Goal=   None    Shift=    0.000
 RMSDP=3.82D-03 MaxDP=4.82D-01 DE=-9.05D+00 OVMax= 3.94D-01

 Cycle   6  Pass 1  IDiag  1:
 RMSU=  2.49D-03    CP:  6.44D-01  2.54D+00  6.54D-01  2.32D-01  5.39D-01
 E= -3531.20550139108     Delta-E=       -0.627057970444 Rises=F Damp=F
 DIIS: error= 1.57D-02 at cycle   6 NSaved=   6.
 NSaved= 6 IEnMin= 6 EnMin= -3531.20550139108     IErMin= 2 ErrMin= 8.45D-03
 ErrMax= 1.57D-02  0.00D+00 EMaxC= 1.00D-01 BMatC= 1.25D+00 BMatP= 1.22D+00
 IDIUse=3 WtCom= 8.43D-01 WtEn= 1.57D-01
 Coeff-Com: -0.432D+00 0.776D+00 0.238D+00 0.168D-02 0.126D+00 0.290D+00
 Coeff-En:   0.000D+00 0.000D+00 0.000D+00 0.000D+00 0.287D+00 0.713D+00
 Coeff:     -0.365D+00 0.654D+00 0.201D+00 0.142D-02 0.152D+00 0.357D+00
 Gap=     0.121 Goal=   None    Shift=    0.000
 Gap=     0.121 Goal=   None    Shift=    0.000
 RMSDP=3.14D-03 MaxDP=5.68D-01 DE=-6.27D-01 OVMax= 1.72D-01

 Cycle   7  Pass 1  IDiag  1:
 RMSU=  1.37D-03    CP:  6.25D-01  2.86D+00  6.94D-01  2.95D-01  7.52D-01
                    CP:  1.37D-01
 E= -3531.39914738232     Delta-E=       -0.193645991242 Rises=F Damp=F
 DIIS: error= 3.58D-03 at cycle   7 NSaved=   7.
 NSaved= 7 IEnMin= 7 EnMin= -3531.39914738232     IErMin= 7 ErrMin= 3.58D-03
 ErrMax= 3.58D-03  0.00D+00 EMaxC= 1.00D-01 BMatC= 1.64D-01 BMatP= 1.22D+00
 IDIUse=3 WtCom= 9.64D-01 WtEn= 3.58D-02
 Coeff-Com: -0.186D+00 0.258D+00 0.277D-01 0.755D-02-0.151D-01 0.283D+00
 Coeff-Com:  0.624D+00
 Coeff-En:   0.000D+00 0.000D+00 0.000D+00 0.000D+00 0.000D+00 0.169D+00
 Coeff-En:   0.831D+00
 Coeff:     -0.179D+00 0.249D+00 0.267D-01 0.728D-02-0.145D-01 0.279D+00
 Coeff:      0.632D+00
 Gap=     0.127 Goal=   None    Shift=    0.000
 Gap=     0.132 Goal=   None    Shift=    0.000
 RMSDP=1.13D-03 MaxDP=9.95D-02 DE=-1.94D-01 OVMax= 7.07D-02

 Cycle   8  Pass 1  IDiag  1:
 RMSU=  8.95D-04    CP:  6.23D-01  2.85D+00  6.91D-01  2.96D-01  7.54D-01
                    CP:  3.79D-01  7.99D-01
 E= -3531.42888773041     Delta-E=       -0.029740348089 Rises=F Damp=F
 DIIS: error= 2.98D-03 at cycle   8 NSaved=   8.
 NSaved= 8 IEnMin= 8 EnMin= -3531.42888773041     IErMin= 8 ErrMin= 2.98D-03
 ErrMax= 2.98D-03  0.00D+00 EMaxC= 1.00D-01 BMatC= 7.30D-02 BMatP= 1.64D-01
 IDIUse=3 WtCom= 9.70D-01 WtEn= 2.98D-02
 Coeff-Com: -0.980D-01 0.129D+00-0.720D-02 0.699D-02-0.256D-01 0.122D+00
 Coeff-Com:  0.441D+00 0.432D+00
 Coeff-En:   0.000D+00 0.000D+00 0.000D+00 0.000D+00 0.000D+00 0.000D+00
 Coeff-En:   0.228D+00 0.772D+00
 Coeff:     -0.950D-01 0.125D+00-0.698D-02 0.678D-02-0.248D-01 0.119D+00
 Coeff:      0.434D+00 0.442D+00
 Gap=     0.136 Goal=   None    Shift=    0.000
 Gap=     0.118 Goal=   None    Shift=    0.000
 RMSDP=4.75D-04 MaxDP=4.46D-02 DE=-2.97D-02 OVMax= 2.24D-02

 Cycle   9  Pass 1  IDiag  1:
 RMSU=  3.51D-04    CP:  6.24D-01  2.83D+00  6.81D-01  3.03D-01  7.39D-01
                    CP:  4.21D-01  8.69D-01  7.06D-01
 E= -3531.43832515018     Delta-E=       -0.009437419764 Rises=F Damp=F
 DIIS: error= 2.31D-03 at cycle   9 NSaved=   9.
 NSaved= 9 IEnMin= 9 EnMin= -3531.43832515018     IErMin= 9 ErrMin= 2.31D-03
 ErrMax= 2.31D-03  0.00D+00 EMaxC= 1.00D-01 BMatC= 2.43D-02 BMatP= 7.30D-02
 IDIUse=3 WtCom= 9.77D-01 WtEn= 2.31D-02
 Coeff-Com: -0.302D-01 0.466D-01-0.821D-02 0.169D-02 0.153D-01-0.576D-01
 Coeff-Com:  0.103D-01 0.162D+00 0.860D+00
 Coeff-En:   0.000D+00 0.000D+00 0.000D+00 0.000D+00 0.000D+00 0.000D+00
 Coeff-En:   0.000D+00 0.000D+00 0.100D+01
 Coeff:     -0.295D-01 0.456D-01-0.802D-02 0.166D-02 0.149D-01-0.563D-01
 Coeff:      0.100D-01 0.159D+00 0.863D+00
 Gap=     0.140 Goal=   None    Shift=    0.000
 Gap=     0.115 Goal=   None    Shift=    0.000
 RMSDP=3.96D-04 MaxDP=1.07D-01 DE=-9.44D-03 OVMax= 1.75D-02

 Cycle  10  Pass 1  IDiag  1:
 RMSU=  2.79D-04    CP:  6.26D-01  2.85D+00  6.65D-01  3.12D-01  7.50D-01
                    CP:  4.22D-01  9.35D-01  7.48D-01  1.09D+00
 E= -3531.44228648090     Delta-E=       -0.003961330727 Rises=F Damp=F
 DIIS: error= 4.46D-04 at cycle  10 NSaved=  10.
 NSaved=10 IEnMin=10 EnMin= -3531.44228648090     IErMin=10 ErrMin= 4.46D-04
 ErrMax= 4.46D-04  0.00D+00 EMaxC= 1.00D-01 BMatC= 2.55D-03 BMatP= 2.43D-02
 IDIUse=3 WtCom= 9.96D-01 WtEn= 4.46D-03
 Coeff-Com:  0.500D-02-0.374D-02-0.544D-02-0.647D-04 0.190D-01-0.650D-01
 Coeff-Com: -0.843D-01 0.408D-02 0.590D+00 0.541D+00
 Coeff-En:   0.000D+00 0.000D+00 0.000D+00 0.000D+00 0.000D+00 0.000D+00
 Coeff-En:   0.000D+00 0.000D+00 0.000D+00 0.100D+01
 Coeff:      0.498D-02-0.372D-02-0.541D-02-0.645D-04 0.189D-01-0.647D-01
 Coeff:     -0.839D-01 0.406D-02 0.587D+00 0.543D+00
 Gap=     0.137 Goal=   None    Shift=    0.000
 Gap=     0.110 Goal=   None    Shift=    0.000
 RMSDP=1.60D-04 MaxDP=1.87D-02 DE=-3.96D-03 OVMax= 1.22D-02

 Cycle  11  Pass 1  IDiag  1:
 RMSU=  1.27D-04    CP:  6.26D-01  2.86D+00  6.60D-01  3.13D-01  7.53D-01
                    CP:  4.33D-01  9.27D-01  8.03D-01  1.24D+00  8.39D-01
 E= -3531.44286873218     Delta-E=       -0.000582251273 Rises=F Damp=F
 DIIS: error= 1.61D-04 at cycle  11 NSaved=  11.
 NSaved=11 IEnMin=11 EnMin= -3531.44286873218     IErMin=11 ErrMin= 1.61D-04
 ErrMax= 1.61D-04  0.00D+00 EMaxC= 1.00D-01 BMatC= 2.32D-04 BMatP= 2.55D-03
 IDIUse=3 WtCom= 9.98D-01 WtEn= 1.61D-03
 Coeff-Com:  0.299D-02-0.148D-02-0.124D-02-0.135D-03 0.367D-02-0.198D-01
 Coeff-Com: -0.176D-01-0.337D-02 0.147D+00 0.250D+00 0.640D+00
 Coeff-En:   0.000D+00 0.000D+00 0.000D+00 0.000D+00 0.000D+00 0.000D+00
 Coeff-En:   0.000D+00 0.000D+00 0.000D+00 0.297D-01 0.970D+00
 Coeff:      0.299D-02-0.148D-02-0.124D-02-0.134D-03 0.367D-02-0.198D-01
 Coeff:     -0.175D-01-0.337D-02 0.147D+00 0.250D+00 0.641D+00
 Gap=     0.137 Goal=   None    Shift=    0.000
 Gap=     0.112 Goal=   None    Shift=    0.000
 RMSDP=5.47D-05 MaxDP=4.66D-03 DE=-5.82D-04 OVMax= 2.54D-03

 Cycle  12  Pass 1  IDiag  1:
 RMSU=  3.91D-05    CP:  6.26D-01  2.85D+00  6.62D-01  3.13D-01  7.52D-01
                    CP:  4.25D-01  9.38D-01  7.98D-01  1.24D+00  8.24D-01
                    CP:  8.23D-01
 E= -3531.44292425977     Delta-E=       -0.000055527588 Rises=F Damp=F
 DIIS: error= 5.72D-05 at cycle  12 NSaved=  12.
 NSaved=12 IEnMin=12 EnMin= -3531.44292425977     IErMin=12 ErrMin= 5.72D-05
 ErrMax= 5.72D-05  0.00D+00 EMaxC= 1.00D-01 BMatC= 4.16D-05 BMatP= 2.32D-04
 IDIUse=1 WtCom= 1.00D+00 WtEn= 0.00D+00
 Coeff-Com:  0.145D-02-0.910D-03-0.364D-03-0.245D-04-0.190D-03-0.298D-02
 Coeff-Com:  0.372D-02 0.967D-03 0.133D-01 0.760D-01 0.365D+00 0.544D+00
 Coeff:      0.145D-02-0.910D-03-0.364D-03-0.245D-04-0.190D-03-0.298D-02
 Coeff:      0.372D-02 0.967D-03 0.133D-01 0.760D-01 0.365D+00 0.544D+00
 Gap=     0.137 Goal=   None    Shift=    0.000
 Gap=     0.112 Goal=   None    Shift=    0.000
 RMSDP=2.02D-05 MaxDP=1.62D-03 DE=-5.55D-05 OVMax= 1.50D-03

 Cycle  13  Pass 1  IDiag  1:
 RMSU=  1.70D-05    CP:  6.26D-01  2.85D+00  6.62D-01  3.13D-01  7.53D-01
                    CP:  4.26D-01  9.38D-01  7.98D-01  1.24D+00  8.28D-01
                    CP:  8.30D-01  7.63D-01
 E= -3531.44293569333     Delta-E=       -0.000011433565 Rises=F Damp=F
 DIIS: error= 2.25D-05 at cycle  13 NSaved=  13.
 NSaved=13 IEnMin=13 EnMin= -3531.44293569333     IErMin=13 ErrMin= 2.25D-05
 ErrMax= 2.25D-05  0.00D+00 EMaxC= 1.00D-01 BMatC= 4.74D-06 BMatP= 4.16D-05
 IDIUse=1 WtCom= 1.00D+00 WtEn= 0.00D+00
 Coeff-Com:  0.526D-03-0.444D-03-0.880D-04-0.132D-04-0.378D-03 0.299D-03
 Coeff-Com:  0.319D-02 0.826D-03-0.108D-01 0.546D-02 0.733D-01 0.241D+00
 Coeff-Com:  0.687D+00
 Coeff:      0.526D-03-0.444D-03-0.880D-04-0.132D-04-0.378D-03 0.299D-03
 Coeff:      0.319D-02 0.826D-03-0.108D-01 0.546D-02 0.733D-01 0.241D+00
 Coeff:      0.687D+00
 Gap=     0.137 Goal=   None    Shift=    0.000
 Gap=     0.112 Goal=   None    Shift=    0.000
 RMSDP=9.35D-06 MaxDP=7.23D-04 DE=-1.14D-05 OVMax= 5.75D-04

 Cycle  14  Pass 1  IDiag  1:
 RMSU=  7.85D-06    CP:  6.26D-01  2.85D+00  6.62D-01  3.13D-01  7.53D-01
                    CP:  4.25D-01  9.38D-01  7.99D-01  1.24D+00  8.33D-01
                    CP:  8.43D-01  8.38D-01  1.02D+00
 E= -3531.44293744252     Delta-E=       -0.000001749187 Rises=F Damp=F
 DIIS: error= 1.35D-05 at cycle  14 NSaved=  14.
 NSaved=14 IEnMin=14 EnMin= -3531.44293744252     IErMin=14 ErrMin= 1.35D-05
 ErrMax= 1.35D-05  0.00D+00 EMaxC= 1.00D-01 BMatC= 1.30D-06 BMatP= 4.74D-06
 IDIUse=1 WtCom= 1.00D+00 WtEn= 0.00D+00
 Coeff-Com: -0.176D-03 0.978D-04 0.110D-03 0.136D-05-0.108D-03 0.729D-03
 Coeff-Com: -0.144D-03-0.361D-03-0.783D-02-0.184D-01-0.732D-01-0.403D-01
 Coeff-Com:  0.375D+00 0.765D+00
 Coeff:     -0.176D-03 0.978D-04 0.110D-03 0.136D-05-0.108D-03 0.729D-03
 Coeff:     -0.144D-03-0.361D-03-0.783D-02-0.184D-01-0.732D-01-0.403D-01
 Coeff:      0.375D+00 0.765D+00
 Gap=     0.137 Goal=   None    Shift=    0.000
 Gap=     0.112 Goal=   None    Shift=    0.000
 RMSDP=6.44D-06 MaxDP=5.95D-04 DE=-1.75D-06 OVMax= 4.57D-04

 Cycle  15  Pass 1  IDiag  1:
 RMSU=  4.67D-06    CP:  6.26D-01  2.85D+00  6.62D-01  3.13D-01  7.53D-01
                    CP:  4.25D-01  9.38D-01  8.00D-01  1.24D+00  8.34D-01
                    CP:  8.40D-01  8.68D-01  1.23D+00  1.18D+00
 E= -3531.44293815180     Delta-E=       -0.000000709280 Rises=F Damp=F
 DIIS: error= 9.08D-06 at cycle  15 NSaved=  15.
 NSaved=15 IEnMin=15 EnMin= -3531.44293815180     IErMin=15 ErrMin= 9.08D-06
 ErrMax= 9.08D-06  0.00D+00 EMaxC= 1.00D-01 BMatC= 2.86D-07 BMatP= 1.30D-06
 IDIUse=1 WtCom= 1.00D+00 WtEn= 0.00D+00
 Coeff-Com: -0.158D-03 0.827D-04 0.756D-04 0.344D-05 0.105D-04 0.315D-03
 Coeff-Com: -0.660D-03-0.325D-03-0.114D-02-0.917D-02-0.454D-01-0.625D-01
 Coeff-Com:  0.384D-01 0.347D+00 0.733D+00
 Coeff:     -0.158D-03 0.827D-04 0.756D-04 0.344D-05 0.105D-04 0.315D-03
 Coeff:     -0.660D-03-0.325D-03-0.114D-02-0.917D-02-0.454D-01-0.625D-01
 Coeff:      0.384D-01 0.347D+00 0.733D+00
 Gap=     0.137 Goal=   None    Shift=    0.000
 Gap=     0.112 Goal=   None    Shift=    0.000
 RMSDP=3.47D-06 MaxDP=3.63D-04 DE=-7.09D-07 OVMax= 2.16D-04

 Cycle  16  Pass 1  IDiag  1:
 RMSU=  2.34D-06    CP:  6.26D-01  2.85D+00  6.62D-01  3.13D-01  7.53D-01
                    CP:  4.25D-01  9.38D-01  8.00D-01  1.24D+00  8.34D-01
                    CP:  8.39D-01  8.92D-01  1.30D+00  1.35D+00  1.25D+00
 E= -3531.44293831410     Delta-E=       -0.000000162298 Rises=F Damp=F
 DIIS: error= 6.01D-06 at cycle  16 NSaved=  16.
 NSaved=16 IEnMin=16 EnMin= -3531.44293831410     IErMin=16 ErrMin= 6.01D-06
 ErrMax= 6.01D-06  0.00D+00 EMaxC= 1.00D-01 BMatC= 1.15D-07 BMatP= 2.86D-07
 IDIUse=1 WtCom= 1.00D+00 WtEn= 0.00D+00
 Coeff-Com: -0.142D-03 0.186D-03 0.468D-04 0.242D-06-0.220D-05-0.449D-05
 Coeff-Com: -0.307D-03-0.584D-04 0.152D-02 0.672D-04-0.370D-02-0.251D-01
 Coeff-Com: -0.103D+00-0.336D-01 0.459D+00 0.705D+00
 Coeff:     -0.142D-03 0.186D-03 0.468D-04 0.242D-06-0.220D-05-0.449D-05
 Coeff:     -0.307D-03-0.584D-04 0.152D-02 0.672D-04-0.370D-02-0.251D-01
 Coeff:     -0.103D+00-0.336D-01 0.459D+00 0.705D+00
 Gap=     0.137 Goal=   None    Shift=    0.000
 Gap=     0.112 Goal=   None    Shift=    0.000
 RMSDP=2.46D-06 MaxDP=2.25D-04 DE=-1.62D-07 OVMax= 1.77D-04

 Cycle  17  Pass 1  IDiag  1:
 RMSU=  1.22D-06    CP:  6.26D-01  2.85D+00  6.62D-01  3.13D-01  7.53D-01
                    CP:  4.25D-01  9.38D-01  8.00D-01  1.24D+00  8.34D-01
                    CP:  8.41D-01  9.03D-01  1.36D+00  1.48D+00  1.52D+00
                    CP:  1.18D+00
 E= -3531.44293838200     Delta-E=       -0.000000067900 Rises=F Damp=F
 DIIS: error= 3.19D-06 at cycle  17 NSaved=  17.
 NSaved=17 IEnMin=17 EnMin= -3531.44293838200     IErMin=17 ErrMin= 3.19D-06
 ErrMax= 3.19D-06  0.00D+00 EMaxC= 1.00D-01 BMatC= 2.97D-08 BMatP= 1.15D-07
 IDIUse=1 WtCom= 1.00D+00 WtEn= 0.00D+00
 Coeff-Com: -0.194D-04 0.491D-04 0.284D-05-0.124D-05 0.104D-05-0.678D-04
 Coeff-Com: -0.365D-04 0.108D-03 0.973D-03 0.224D-02 0.882D-02 0.233D-02
 Coeff-Com: -0.675D-01-0.107D+00 0.506D-01 0.412D+00 0.698D+00
 Coeff:     -0.194D-04 0.491D-04 0.284D-05-0.124D-05 0.104D-05-0.678D-04
 Coeff:     -0.365D-04 0.108D-03 0.973D-03 0.224D-02 0.882D-02 0.233D-02
 Coeff:     -0.675D-01-0.107D+00 0.506D-01 0.412D+00 0.698D+00
 Gap=     0.137 Goal=   None    Shift=    0.000
 Gap=     0.112 Goal=   None    Shift=    0.000
 RMSDP=1.46D-06 MaxDP=1.61D-04 DE=-6.79D-08 OVMax= 9.40D-05

 Cycle  18  Pass 1  IDiag  1:
 RMSU=  6.86D-07    CP:  6.26D-01  2.85D+00  6.62D-01  3.13D-01  7.53D-01
                    CP:  4.25D-01  9.38D-01  8.00D-01  1.24D+00  8.34D-01
                    CP:  8.42D-01  9.10D-01  1.38D+00  1.56D+00  1.66D+00
                    CP:  1.43D+00  1.24D+00
 E= -3531.44293840282     Delta-E=       -0.000000020821 Rises=F Damp=F
 DIIS: error= 1.50D-06 at cycle  18 NSaved=  18.
 NSaved=18 IEnMin=18 EnMin= -3531.44293840282     IErMin=18 ErrMin= 1.50D-06
 ErrMax= 1.50D-06  0.00D+00 EMaxC= 1.00D-01 BMatC= 6.10D-09 BMatP= 2.97D-08
 IDIUse=1 WtCom= 1.00D+00 WtEn= 0.00D+00
 Coeff-Com:  0.309D-04-0.308D-04-0.119D-04-0.658D-07 0.428D-05-0.295D-04
 Coeff-Com:  0.512D-04 0.824D-04 0.190D-03 0.111D-02 0.521D-02 0.704D-02
 Coeff-Com: -0.106D-01-0.460D-01-0.873D-01 0.383D-01 0.339D+00 0.753D+00
 Coeff:      0.309D-04-0.308D-04-0.119D-04-0.658D-07 0.428D-05-0.295D-04
 Coeff:      0.512D-04 0.824D-04 0.190D-03 0.111D-02 0.521D-02 0.704D-02
 Coeff:     -0.106D-01-0.460D-01-0.873D-01 0.383D-01 0.339D+00 0.753D+00
 Gap=     0.137 Goal=   None    Shift=    0.000
 Gap=     0.112 Goal=   None    Shift=    0.000
 RMSDP=8.46D-07 MaxDP=1.10D-04 DE=-2.08D-08 OVMax= 5.04D-05

 Cycle  19  Pass 1  IDiag  1:
 RMSU=  3.24D-07    CP:  6.26D-01  2.85D+00  6.62D-01  3.13D-01  7.53D-01
                    CP:  4.25D-01  9.38D-01  8.00D-01  1.24D+00  8.34D-01
                    CP:  8.42D-01  9.12D-01  1.40D+00  1.60D+00  1.74D+00
                    CP:  1.59D+00  1.53D+00  1.25D+00
 E= -3531.44293840869     Delta-E=       -0.000000005876 Rises=F Damp=F
 DIIS: error= 1.04D-06 at cycle  19 NSaved=  19.
 NSaved=19 IEnMin=19 EnMin= -3531.44293840869     IErMin=19 ErrMin= 1.04D-06
 ErrMax= 1.04D-06  0.00D+00 EMaxC= 1.00D-01 BMatC= 1.90D-09 BMatP= 6.10D-09
 IDIUse=1 WtCom= 1.00D+00 WtEn= 0.00D+00
 Coeff-Com:  0.196D-04-0.264D-04-0.651D-05-0.450D-07 0.578D-05-0.582D-05
 Coeff-Com:  0.193D-04-0.293D-04-0.197D-03-0.324D-03-0.101D-02 0.145D-02
 Coeff-Com:  0.182D-01 0.173D-01-0.457D-01-0.126D+00-0.992D-01 0.262D+00
 Coeff-Com:  0.973D+00
 Coeff:      0.196D-04-0.264D-04-0.651D-05-0.450D-07 0.578D-05-0.582D-05
 Coeff:      0.193D-04-0.293D-04-0.197D-03-0.324D-03-0.101D-02 0.145D-02
 Coeff:      0.182D-01 0.173D-01-0.457D-01-0.126D+00-0.992D-01 0.262D+00
 Coeff:      0.973D+00
 Gap=     0.137 Goal=   None    Shift=    0.000
 Gap=     0.112 Goal=   None    Shift=    0.000
 RMSDP=6.27D-07 MaxDP=3.97D-05 DE=-5.88D-09 OVMax= 4.00D-05

 Cycle  20  Pass 1  IDiag  1:
 RMSU=  1.90D-07    CP:  6.26D-01  2.85D+00  6.62D-01  3.13D-01  7.53D-01
                    CP:  4.25D-01  9.38D-01  8.00D-01  1.24D+00  8.34D-01
                    CP:  8.43D-01  9.15D-01  1.41D+00  1.63D+00  1.80D+00
                    CP:  1.69D+00  1.77D+00  1.57D+00  1.30D+00
 E= -3531.44293841091     Delta-E=       -0.000000002214 Rises=F Damp=F
 DIIS: error= 5.54D-07 at cycle  20 NSaved=  20.
 NSaved=20 IEnMin=20 EnMin= -3531.44293841091     IErMin=20 ErrMin= 5.54D-07
 ErrMax= 5.54D-07  0.00D+00 EMaxC= 1.00D-01 BMatC= 7.66D-10 BMatP= 1.90D-09
 IDIUse=1 WtCom= 1.00D+00 WtEn= 0.00D+00
 Coeff-Com:  0.167D-05-0.363D-05-0.114D-06-0.350D-07 0.109D-05 0.175D-05
 Coeff-Com:  0.222D-05-0.416D-04-0.156D-03-0.450D-03-0.178D-02-0.763D-03
 Coeff-Com:  0.138D-01 0.213D-01-0.652D-02-0.880D-01-0.140D+00-0.355D-01
 Coeff-Com:  0.607D+00 0.632D+00
 Coeff:      0.167D-05-0.363D-05-0.114D-06-0.350D-07 0.109D-05 0.175D-05
 Coeff:      0.222D-05-0.416D-04-0.156D-03-0.450D-03-0.178D-02-0.763D-03
 Coeff:      0.138D-01 0.213D-01-0.652D-02-0.880D-01-0.140D+00-0.355D-01
 Coeff:      0.607D+00 0.632D+00
 Gap=     0.137 Goal=   None    Shift=    0.000
 Gap=     0.112 Goal=   None    Shift=    0.000
 RMSDP=2.61D-07 MaxDP=2.52D-05 DE=-2.21D-09 OVMax= 1.76D-05

 Cycle  21  Pass 1  IDiag  1:
 Restarting incremental Fock formation.
 E= -3531.44293841131     Delta-E=       -0.000000000399 Rises=F Damp=F
 DIIS: error= 2.26D-07 at cycle  21 NSaved=  20.
 NSaved=20 IEnMin=20 EnMin= -3531.44293841131     IErMin=20 ErrMin= 2.26D-07
 ErrMax= 2.26D-07  0.00D+00 EMaxC= 1.00D-01 BMatC= 1.78D-10 BMatP= 7.66D-10
 IDIUse=1 WtCom= 1.00D+00 WtEn= 0.00D+00
 Coeff-Com: -0.333D-05 0.340D-05 0.149D-05-0.153D-05 0.258D-05-0.201D-05
 Coeff-Com: -0.107D-04-0.109D-04-0.935D-04-0.474D-03-0.565D-03 0.203D-02
 Coeff-Com:  0.569D-02 0.805D-02-0.107D-01-0.441D-01-0.931D-01 0.356D-01
 Coeff-Com:  0.339D+00 0.758D+00
 Coeff:     -0.333D-05 0.340D-05 0.149D-05-0.153D-05 0.258D-05-0.201D-05
 Coeff:     -0.107D-04-0.109D-04-0.935D-04-0.474D-03-0.565D-03 0.203D-02
 Coeff:      0.569D-02 0.805D-02-0.107D-01-0.441D-01-0.931D-01 0.356D-01
 Coeff:      0.339D+00 0.758D+00
 Gap=     0.137 Goal=   None    Shift=    0.000
 Gap=     0.112 Goal=   None    Shift=    0.000
[...]
    32   Atom        0.005960     -0.000442     -0.005517
    33   Atom        0.004057      0.008725     -0.012782
    34   Atom        0.000644      0.002493     -0.003136
    35   Atom       -0.002494     -0.001661      0.004155
    36   Atom       -0.010635     -0.007663      0.018298
    37   Atom       -0.002095     -0.007090      0.009184
    38   Atom       -0.005116      0.013341     -0.008225
    39   Atom       -0.000137      0.002906     -0.002769
    40   Atom       -0.004867      0.010436     -0.005569
    41   Atom       -0.006293      0.011961     -0.005668
    42   Atom       -0.003912      0.009179     -0.005267
    43   Atom       -0.002546      0.005741     -0.003195
    44   Atom       -0.003662      0.007244     -0.003582
    45   Atom       -0.005227      0.009071     -0.003844
    46   Atom       -0.009740      0.019137     -0.009397
 --------------------------------------------------------
                        XY            XZ            YZ
 --------------------------------------------------------
     1   Atom        0.003895      0.002532      0.001666
     2   Atom        0.003724      0.008388      0.002860
     3   Atom       -0.006044      0.011834     -0.000770
     4   Atom       -0.001450      0.007799     -0.001651
     5   Atom       -0.002111      0.002288      0.001853
     6   Atom        0.001768      0.003501      0.000242
     7   Atom        0.031933     -0.005944      0.007098
     8   Atom        0.014633     -0.012491     -0.011315
     9   Atom        0.002366     -0.006294     -0.001130
    10   Atom        0.000344     -0.006101     -0.000188
    11   Atom       -0.009319     -0.015379      0.009532
    12   Atom       -0.013385     -0.016487      0.014785
    13   Atom       -0.005334     -0.010968      0.008384
    14   Atom       -0.027080     -0.091846     -0.131027
    15   Atom        0.001544     -0.119136      0.004185
    16   Atom       -0.055676      0.182775     -0.079426
    17   Atom       -0.010426     -0.005632      0.004301
    18   Atom        0.057308      0.033726      0.205011
    19   Atom       -0.007217     -0.007234     -0.101044
    20   Atom       -0.019521      0.020992     -0.010080
    21   Atom       -0.002830      0.006272     -0.002343
    22   Atom       -0.000173      0.003056     -0.000018
    23   Atom        0.001546      0.001802      0.000515
    24   Atom        0.004773      0.000412      0.000204
    25   Atom        0.010319     -0.013913     -0.012063
    26   Atom        0.010292     -0.003806     -0.002285
    27   Atom        0.002953     -0.003647     -0.002236
    28   Atom        0.003097     -0.002661     -0.000878
    29   Atom        0.000598     -0.005854     -0.000840
    30   Atom        0.000455     -0.003475     -0.000319
    31   Atom       -0.002487     -0.002734      0.000937
    32   Atom       -0.007841     -0.001847      0.000864
    33   Atom       -0.019554     -0.007100      0.006059
    34   Atom       -0.006253     -0.003515      0.003637
    35   Atom       -0.003212     -0.005121      0.006154
    36   Atom       -0.008573     -0.015725      0.019785
    37   Atom       -0.001667     -0.008773      0.002742
    38   Atom        0.011465     -0.004562     -0.006992
    39   Atom        0.004465     -0.003249      0.002441
    40   Atom        0.004373     -0.000465     -0.001514
    41   Atom       -0.000723      0.000123     -0.002073
    42   Atom        0.005274      0.000451      0.001629
    43   Atom        0.002962     -0.000513     -0.001556
    44   Atom       -0.001076      0.000062     -0.000124
    45   Atom       -0.001512      0.000621     -0.004298
    46   Atom       -0.005476      0.000463     -0.000405
 --------------------------------------------------------


 ---------------------------------------------------------------------------------
              Anisotropic Spin Dipole Couplings in Principal Axis System
 ---------------------------------------------------------------------------------

       Atom             a.u.   MegaHertz   Gauss  10(-4) cm-1        Axes

              Baa    -0.0066    -0.886    -0.316    -0.296  0.0142 -0.5859  0.8102
     1 C(13)  Bbb    -0.0046    -0.612    -0.219    -0.204 -0.3102  0.7678  0.5606
              Bcc     0.0112     1.499     0.535     0.500  0.9506  0.2593  0.1709
 
              Baa    -0.0154    -2.068    -0.738    -0.690 -0.0234  0.9481 -0.3171
     2 C(13)  Bbb    -0.0091    -1.227    -0.438    -0.409 -0.2827  0.2979  0.9118
              Bcc     0.0245     3.294     1.175     1.099  0.9589  0.1110  0.2611
 
              Baa    -0.0134    -1.804    -0.644    -0.602  0.3369  0.8168 -0.4684
     3 C(13)  Bbb    -0.0101    -1.352    -0.483    -0.451 -0.2224  0.5524  0.8033
              Bcc     0.0235     3.156     1.126     1.053  0.9149 -0.1665  0.3678
 
              Baa    -0.0064    -0.857    -0.306    -0.286 -0.3532  0.6309  0.6908
     4 C(13)  Bbb    -0.0052    -0.692    -0.247    -0.231  0.4257  0.7659 -0.4818
              Bcc     0.0115     1.549     0.553     0.517  0.8331 -0.1239  0.5391
 
              Baa    -0.0053    -0.711    -0.254    -0.237  0.2921  0.7818 -0.5509
     5 C(13)  Bbb    -0.0004    -0.050    -0.018    -0.017 -0.1090  0.5994  0.7930
              Bcc     0.0057     0.761     0.272     0.254  0.9501 -0.1716  0.2603
 
              Baa    -0.0039    -0.525    -0.187    -0.175 -0.3791  0.6294  0.6783
     6 C(13)  Bbb    -0.0031    -0.410    -0.146    -0.137  0.1090  0.7583 -0.6428
              Bcc     0.0070     0.935     0.334     0.312  0.9189  0.1698  0.3560
 
              Baa    -0.0374    -5.017    -1.790    -1.674  0.2639 -0.4668  0.8440
     7 C(13)  Bbb    -0.0174    -2.336    -0.834    -0.779 -0.3772  0.7555  0.5358
              Bcc     0.0548     7.354     2.624     2.453  0.8878  0.4597 -0.0233
 
              Baa    -0.0149    -1.997    -0.713    -0.666  0.3239  0.3247  0.8886
     8 C(13)  Bbb    -0.0116    -1.560    -0.557    -0.520 -0.6765  0.7361 -0.0224
              Bcc     0.0265     3.557     1.269     1.186  0.6613  0.5939 -0.4581
 
              Baa    -0.0058    -0.776    -0.277    -0.259  0.5407 -0.1035  0.8348
     9 C(13)  Bbb    -0.0031    -0.416    -0.149    -0.139 -0.1329  0.9694  0.2063
              Bcc     0.0089     1.193     0.426     0.398  0.8306  0.2225 -0.5104
 
              Baa    -0.0047    -0.630    -0.225    -0.210  0.5852 -0.0394  0.8099
    10 C(13)  Bbb    -0.0035    -0.467    -0.167    -0.156 -0.0040  0.9987  0.0515
              Bcc     0.0082     1.098     0.392     0.366  0.8109  0.0334 -0.5843
 
              Baa    -0.0142    -1.903    -0.679    -0.635  0.3346 -0.5255  0.7822
    11 C(13)  Bbb    -0.0104    -1.400    -0.499    -0.467  0.6123  0.7522  0.2434
              Bcc     0.0246     3.303     1.179     1.102  0.7163 -0.3975 -0.5735
 
              Baa    -0.0168    -2.257    -0.805    -0.753  0.3177 -0.5140  0.7968
    12 C(13)  Bbb    -0.0131    -1.763    -0.629    -0.588  0.7203  0.6773  0.1497
              Bcc     0.0300     4.020     1.434     1.341  0.6167 -0.5263 -0.5854
 
              Baa    -0.0098    -1.317    -0.470    -0.439  0.0833  0.9184 -0.3867
    13 C(13)  Bbb    -0.0091    -1.217    -0.434    -0.406  0.8588  0.1307  0.4954
              Bcc     0.0189     2.534     0.904     0.845 -0.5055  0.3734  0.7778
 
              Baa    -0.2046    14.803     5.282     4.938  0.2677  0.8385  0.4746
    14 O(17)  Bbb     0.0224    -1.619    -0.578    -0.540  0.8350 -0.4477  0.3200
              Bcc     0.1822   -13.184    -4.704    -4.398 -0.4808 -0.3106  0.8200
 
              Baa    -0.1055    -1.827    -0.652    -0.609  0.4840 -0.1226  0.8665
    15 Fe(57) Bbb    -0.0693    -1.199    -0.428    -0.400  0.0623  0.9925  0.1056
              Bcc     0.1748     3.026     1.080     1.009  0.8729 -0.0028 -0.4879
 
              Baa    -0.1535    -8.032    -2.866    -2.679  0.8518  0.1237 -0.5090
    16 Cl(35) Bbb    -0.1216    -6.367    -2.272    -2.124  0.0276  0.9598  0.2794
              Bcc     0.2751    14.399     5.138     4.803  0.5231 -0.2521  0.8141
 
              Baa    -0.0085    -1.145    -0.408    -0.382  0.4307  0.0625  0.9003
    17 C(13)  Bbb    -0.0074    -0.989    -0.353    -0.330  0.5331  0.7873 -0.3097
              Bcc     0.0159     2.134     0.761     0.712  0.7282 -0.6134 -0.3058
 
              Baa    -0.1640    -8.584    -3.063    -2.863 -0.3461  0.7334 -0.5851
    18 Cl(35) Bbb    -0.1031    -5.395    -1.925    -1.800  0.9225  0.1526 -0.3544
              Bcc     0.2671    13.979     4.988     4.663  0.1706  0.6625  0.7294
 
              Baa    -0.1609    -8.421    -3.005    -2.809  0.8255  0.1391  0.5469
    19 Cl(35) Bbb    -0.1422    -7.443    -2.656    -2.483 -0.5642  0.1834  0.8050
              Bcc     0.3031    15.864     5.661     5.292 -0.0117  0.9731 -0.2299
 
              Baa    -0.0222   -11.854    -4.230    -3.954 -0.1016  0.6066  0.7885
    20 H(1)   Bbb    -0.0204   -10.864    -3.876    -3.624  0.5313  0.7032 -0.4725
              Bcc     0.0426    22.718     8.106     7.578  0.8411 -0.3709  0.3937
 
              Baa    -0.0047    -2.499    -0.892    -0.833 -0.5945  0.1398  0.7918
    21 H(1)   Bbb    -0.0045    -2.406    -0.859    -0.803  0.3060  0.9500  0.0621
              Bcc     0.0092     4.905     1.750     1.636  0.7436 -0.2792  0.6076
 
              Baa    -0.0023    -1.244    -0.444    -0.415  0.2378  0.9198 -0.3122
    22 H(1)   Bbb    -0.0021    -1.122    -0.400    -0.374 -0.5104  0.3917  0.7655
              Bcc     0.0044     2.366     0.844     0.789  0.8264 -0.0227  0.5626
 
              Baa    -0.0021    -1.121    -0.400    -0.374 -0.4134  0.4590  0.7864
    23 H(1)   Bbb    -0.0020    -1.089    -0.388    -0.363 -0.0692  0.8453 -0.5298
              Bcc     0.0041     2.209     0.788     0.737  0.9079  0.2734  0.3177
 
              Baa    -0.0042    -2.242    -0.800    -0.748 -0.3999  0.8857 -0.2357
    24 H(1)   Bbb    -0.0041    -2.214    -0.790    -0.738 -0.1314  0.1991  0.9711
              Bcc     0.0084     4.456     1.590     1.486  0.9071  0.4193  0.0368
 
              Baa    -0.0135    -7.217    -2.575    -2.407 -0.0959  0.8462  0.5241
    25 H(1)   Bbb    -0.0113    -6.042    -2.156    -2.015  0.7976 -0.2497  0.5490
              Bcc     0.0249    13.259     4.731     4.423 -0.5955 -0.4707  0.6510
 
              Baa    -0.0088    -1.185    -0.423    -0.395  0.6352 -0.3436  0.6917
    26 C(13)  Bbb    -0.0058    -0.777    -0.277    -0.259 -0.4579  0.5538  0.6955
              Bcc     0.0146     1.962     0.700     0.654  0.6220  0.7585 -0.1944
 
              Baa    -0.0033    -1.745    -0.623    -0.582  0.3890  0.3665  0.8452
    27 H(1)   Bbb    -0.0030    -1.614    -0.576    -0.538 -0.5652  0.8194 -0.0951
              Bcc     0.0063     3.359     1.199     1.120  0.7274  0.4407 -0.5259
 
              Baa    -0.0036    -1.905    -0.680    -0.636 -0.4188  0.8232 -0.3834
    28 H(1)   Bbb    -0.0033    -1.783    -0.636    -0.595  0.1085  0.4645  0.8789
              Bcc     0.0069     3.689     1.316     1.230  0.9016  0.3265 -0.2838
 
              Baa    -0.0041    -2.188    -0.781    -0.730  0.3728  0.8163  0.4412
    29 H(1)   Bbb    -0.0038    -2.037    -0.727    -0.680  0.6347 -0.5712  0.5204
              Bcc     0.0079     4.225     1.508     1.409 -0.6768 -0.0860  0.7311
 
              Baa    -0.0026    -1.373    -0.490    -0.458  0.5259  0.1896  0.8292
    30 H(1)   Bbb    -0.0025    -1.324    -0.472    -0.442 -0.1648  0.9791 -0.1194
              Bcc     0.0051     2.697     0.962     0.900  0.8344  0.0739 -0.5461
 
              Baa    -0.0053    -2.837    -1.012    -0.946  0.1251  0.9566 -0.2632
    31 H(1)   Bbb    -0.0038    -2.009    -0.717    -0.670  0.2664  0.2232  0.9377
              Bcc     0.0091     4.845     1.729     1.616  0.9557 -0.1874 -0.2269
 
              Baa    -0.0060    -3.225    -1.151    -1.076  0.4500  0.5175  0.7278
    32 H(1)   Bbb    -0.0054    -2.893    -1.032    -0.965 -0.3408 -0.6538  0.6756
              Bcc     0.0115     6.118     2.183     2.041  0.8255 -0.5520 -0.1178
 
              Baa    -0.0156    -8.305    -2.963    -2.770  0.4887  0.1804  0.8536
    33 H(1)   Bbb    -0.0126    -6.727    -2.400    -2.244  0.5790  0.6648 -0.4720
              Bcc     0.0282    15.032     5.364     5.014 -0.6527  0.7249  0.2204
 
              Baa    -0.0052    -2.797    -0.998    -0.933  0.5670  0.0726  0.8205
    34 H(1)   Bbb    -0.0046    -2.460    -0.878    -0.820  0.5488  0.7095 -0.4421
              Bcc     0.0099     5.257     1.876     1.754 -0.6143  0.7009  0.3625
 
              Baa    -0.0056    -2.967    -1.059    -0.990 -0.0696  0.8258 -0.5597
    35 H(1)   Bbb    -0.0052    -2.796    -0.998    -0.933  0.9077  0.2852  0.3079
              Bcc     0.0108     5.763     2.056     1.922 -0.4139  0.4866  0.7694
 
              Baa    -0.0184    -9.792    -3.494    -3.266  0.0771  0.8908 -0.4478
    36 H(1)   Bbb    -0.0175    -9.351    -3.337    -3.119  0.9300  0.0976  0.3543
              Bcc     0.0359    19.142     6.830     6.385 -0.3593  0.4438  0.8209
 
              Baa    -0.0076    -4.054    -1.446    -1.352  0.2470  0.9686 -0.0292
    37 H(1)   Bbb    -0.0069    -3.657    -1.305    -1.220  0.8447 -0.2004  0.4963
              Bcc     0.0145     7.711     2.751     2.572 -0.4749  0.1472  0.8676
 
              Baa    -0.0116     0.842     0.300     0.281  0.7246 -0.1439  0.6740
    38 O(17)  Bbb    -0.0095     0.689     0.246     0.230 -0.5433  0.4824  0.6871
              Bcc     0.0212    -1.531    -0.546    -0.511  0.4241  0.8640 -0.2714
 
              Baa    -0.0071     0.515     0.184     0.172  0.5917 -0.4294  0.6823
    39 O(17)  Bbb     0.0010    -0.074    -0.026    -0.025 -0.5627  0.3861  0.7310
              Bcc     0.0061    -0.442    -0.158    -0.147  0.5773  0.8164  0.0132
 
              Baa    -0.0060    -0.810    -0.289    -0.270  0.9545 -0.2367  0.1814
    40 C(13)  Bbb    -0.0057    -0.765    -0.273    -0.255 -0.1530  0.1333  0.9792
              Bcc     0.0117     1.576     0.562     0.526  0.2559  0.9624 -0.0910
 
              Baa    -0.0063    -0.849    -0.303    -0.283  0.9950  0.0284 -0.0961
    41 C(13)  Bbb    -0.0059    -0.792    -0.283    -0.264  0.0921  0.1184  0.9887
              Bcc     0.0122     1.641     0.586     0.547 -0.0395  0.9926 -0.1152
 
              Baa    -0.0058    -3.099    -1.106    -1.034  0.8898 -0.3455  0.2982
    42 H(1)   Bbb    -0.0054    -2.883    -1.029    -0.962 -0.3151  0.0079  0.9490
              Bcc     0.0112     5.982     2.135     1.995  0.3303  0.9384  0.1018
 
              Baa    -0.0035    -1.868    -0.666    -0.623  0.9194 -0.2425  0.3097
    43 H(1)   Bbb    -0.0035    -1.843    -0.658    -0.615 -0.2525  0.2399  0.9374
              Bcc     0.0070     3.711     1.324     1.238  0.3016  0.9400 -0.1593
 
              Baa    -0.0038    -2.016    -0.720    -0.673  0.9652  0.0915 -0.2449
    44 H(1)   Bbb    -0.0036    -1.905    -0.680    -0.636  0.2426  0.0352  0.9695
              Bcc     0.0074     3.922     1.399     1.308 -0.0973  0.9952 -0.0118
 
              Baa    -0.0055    -2.918    -1.041    -0.973  0.8974 -0.0367 -0.4398
    45 H(1)   Bbb    -0.0051    -2.705    -0.965    -0.902  0.4292  0.3044  0.8504
              Bcc     0.0105     5.623     2.006     1.876 -0.1027  0.9518 -0.2889
 
              Baa    -0.0108    -5.786    -2.065    -1.930  0.9514  0.1703 -0.2566
    46 H(1)   Bbb    -0.0093    -4.964    -1.771    -1.656  0.2496  0.0618  0.9664
              Bcc     0.0201    10.750     3.836     3.586 -0.1804  0.9835 -0.0163
 

 ---------------------------------------------------------------------------------

 No NMR shielding tensors so no spin-rotation constants.
 Leave Link  601 at Sun Jun 20 20:50:33 2021, MaxMem=  2147483648 cpu:              80.4 elap:               5.2
 (Enter /SFS/product/gaussian/g16.a03/x86_64/avx/g16/l9999.exe)
 1\1\GINC-KTCHPCPX209\SP\UB3LYP\Jul-CC-pVDZ\C17H22Cl3Fe1O3(6)\KWANEU\20
 -Jun-2021\0\\#p ub3lyp jul-cc-pvdz pop=cm5 scrf=(pcm,solvent=water) gu
 ess=read geom=allcheck\\title\\0,6\C,0,2.8122764841,0.6144348173,1.248
 0346461\C,0,1.7163641275,-0.2053487856,0.9034687136\C,0,1.3466640793,-
 1.2515571006,1.7777338203\C,0,2.0642219022,-1.4837345304,2.9465729215\
 C,0,3.1550527678,-0.6687306262,3.2734289588\C,0,3.5194751868,0.3834012
 317,2.4269203473\C,0,0.9019646263,0.0245270577,-0.3066042355\C,0,1.202
 5980318,1.1266199752,-1.3352550982\C,0,2.5519527671,1.0199068264,-2.06
 34254868\C,0,2.6189711744,-0.3130439244,-2.8262113202\C,0,2.3088711438
 ,-1.4632922993,-1.9087932501\C,0,1.2240947852,-2.2676584668,-1.9330178
 042\C,0,0.0969192817,-2.1618728441,-2.9208250948\O,0,-0.2111322729,-0.
 5535858738,-0.4190574292\Fe,0,-2.0556330292,-0.6232790399,0.3002129421
 \Cl,0,-3.3760856578,-0.0171570147,-1.3490630183\C,0,1.1025607084,-3.41
 83715344,-0.9728528441\Cl,0,-2.0732042536,0.7549541866,2.0180346493\Cl
 ,0,-2.3572169281,-2.7239399619,0.9110688082\H,0,0.491634328,-1.8793514
 ,1.5371754655\H,0,1.7661629579,-2.295199504,3.61094613\H,0,3.713921950
 5,-0.8476483882,4.193476139\H,0,4.354340667,1.0340433632,2.6890271891\
 H,0,3.0926488498,1.459699454,0.6258601124\H,0,0.3934303336,1.020026956
 7,-2.0683987856\C,0,0.9992626411,2.5115688121,-0.6912318157\H,0,2.6433
 894526,1.8703837004,-2.753043075\H,0,3.3870723427,1.1028850687,-1.3595
 299813\H,0,1.924536848,-0.2838146289,-3.6758969892\H,0,3.6285736028,-0
 .4331844464,-3.2488235545\H,0,3.0793205875,-1.6845185208,-1.1645918075
 \H,0,1.9413852927,-3.4601176521,-0.2671769267\H,0,0.1575489263,-3.3676
 615296,-0.4114180272\H,0,1.0771503384,-4.3682578038,-1.5311168988\H,0,
 0.0553666583,-3.0801856948,-3.5284455003\H,0,-0.8689722513,-2.09093828
 42,-2.4005583813\H,0,0.1803878462,-1.3087145793,-3.6017369254\O,0,-0.3
 025054059,2.7952217084,-0.6038617242\O,0,1.8976833935,3.2452487167,-0.
 3366983089\C,0,-0.6616956977,4.0661849944,0.0215657939\C,0,-2.16293906
 48,4.2228691871,-0.0936811161\H,0,-0.3239477806,4.0295553268,1.0658470
 937\H,0,-0.1106102233,4.8643556637,-0.4926444727\H,0,-2.461873139,5.16
 97651117,0.3786589188\H,0,-2.4772286392,4.2457295482,-1.1460917844\H,0
 ,-2.6823267401,3.3990367273,0.4120510068\\Version=ES64L-G16RevA.03\Sta
 te=6-A\HF=-3531.4641564\S2=8.761539\S2-1=0.\S2A=8.750041\RMSD=6.886e-0
 9\Dipole=3.8723915,0.4059513,-0.6201798\Quadrupole=-8.3778028,1.601342
 1,6.7764607,-10.8272305,4.8231518,-0.8399853\PG=C01 [X(C17H22Cl3Fe1O3)
 ]\\@


 NOBODY LOSES ALL THE TIME
 I HAD AN UNCLE NAMED
 SOL WHO WAS A BORN FAILURE AND
 NEARLY EVERYBODY SAID HE SHOULD HAVE GONE
 INTO VAUDEVILLE PERHAPS BECAUSE MY UNCLE SOL COULD
 SING MCCANN HE WAS A DIVER ON XMAS EVE LIKE HELL ITSELF WHICH
 MAY OR MAY NOT ACCOUNT FOR THE FACT THAT MY UNCLE
 SOL INDULGED IN THAT POSSIBLY MOST INEXCUSABLE
 OF ALL TO USE A HIGHFALOOTIN PHRASE
 LUXURIES THAT IS OR TO
 WIT FARMING AND BE
 IT NEEDLESSLY
 ADDED
 MY UNCLE SOL'S FARM     
 FAILED BECAUSE THE CHICKENS
 ATE THE VEGETABLES SO
 MY UNCLE SOL HAD A
 CHICKEN FARM TILL THE
 SKUNKS ATE THE CHICKENS WHEN 
 MY UNCLE SOL
 HAD A SKUNK FARM BUT
 THE SKUNKS CAUGHT COLD AND
 DIED AND SO
 MY UNCLE SOL IMITATED THE
 SKUNKS IN A SUBTLE MANNER
 OR BY DROWNING HIMSELF IN THE WATERTANK
 BUT SOMEBODY WHO'D GIVEN MY UNCLE SOL A VICTOR     
 VICTROLA AND RECORDS WHILE HE LIVED PRESENTED TO
 HIM UPON THE AUSPICIOUS OCCASION OF HIS DECEASE A
 SCRUMPTIOUS NOT TO MENTION SPLENDIFEROUS FUNERAL WITH
 TALL BOYS IN BLACK GLOVES AND FLOWERS AND EVERYTHING AND
 I REMEMBER WE ALL CRIED LIKE THE MISSOURI
 WHEN MY UNCLE SOL'S COFFIN LURCHED BECAUSE     
 SOMEBODY PRESSED A BUTTON
 (AND DOWN WENT
 MY UNCLE
 SOL
 AND STARTED A WORM FARM)
           E. E. CUMMINGS
 Job cpu time:       0 days  4 hours 44 minutes 32.8 seconds.
 Elapsed time:       0 days  0 hours 17 minutes 51.8 seconds.
 File lengths (MBytes):  RWF=    666 Int=      0 D2E=      0 Chk=     57 Scr=      1
 Normal termination of Gaussian 16 at Sun Jun 20 20:50:33 2021.
