 Entering Gaussian System, Link 0=g16
 Input=prenyl-first_betaine_grid-CC_150_CO_220-b3lyp_d3bj-juldz-gas.gjf
 Output=prenyl-first_betaine_grid-CC_150_CO_220-b3lyp_d3bj-juldz-gas.out
 Initial command:
 /SFS/product/gaussian/g16.a03/x86_64/avx/g16/l1.exe "/scratch/kwaneu.2874200.bmbhpcps002/Gau-26761.inp" -scrdir="/scratch/kwaneu.2874200.bmbhpcps002/"
 Entering Link 1 = /SFS/product/gaussian/g16.a03/x86_64/avx/g16/l1.exe PID=     26766.
  
 Copyright (c) 1988,1990,1992,1993,1995,1998,2003,2009,2016,
            Gaussian, Inc.  All Rights Reserved.
  
 This is part of the Gaussian(R) 16 program.  It is based on
 the Gaussian(R) 09 system (copyright 2009, Gaussian, Inc.),
 the Gaussian(R) 03 system (copyright 2003, Gaussian, Inc.),
 the Gaussian(R) 98 system (copyright 1998, Gaussian, Inc.),
 the Gaussian(R) 94 system (copyright 1995, Gaussian, Inc.),
 the Gaussian 92(TM) system (copyright 1992, Gaussian, Inc.),
 the Gaussian 90(TM) system (copyright 1990, Gaussian, Inc.),
 the Gaussian 88(TM) system (copyright 1988, Gaussian, Inc.),
 the Gaussian 86(TM) system (copyright 1986, Carnegie Mellon
 University), and the Gaussian 82(TM) system (copyright 1983,
 Carnegie Mellon University). Gaussian is a federally registered
 trademark of Gaussian, Inc.
  
 This software contains proprietary and confidential information,
 including trade secrets, belonging to Gaussian, Inc.
  
 This software is provided under written license and may be
 used, copied, transmitted, or stored only in accord with that
 written license.
  
 The following legend is applicable only to US Government
 contracts under FAR:
  
                    RESTRICTED RIGHTS LEGEND
  
 Use, reproduction and disclosure by the US Government is
 subject to restrictions as set forth in subparagraphs (a)
 and (c) of the Commercial Computer Software - Restricted
 Rights clause in FAR 52.227-19.
  
 Gaussian, Inc.
 340 Quinnipiac St., Bldg. 40, Wallingford CT 06492
  
  
 ---------------------------------------------------------------
 Warning -- This program may not be used in any manner that
 competes with the business of Gaussian, Inc. or will provide
 assistance to any competitor of Gaussian, Inc.  The licensee
 of this program is prohibited from giving any competitor of
 Gaussian, Inc. access to this program.  By using this program,
 the user acknowledges that Gaussian, Inc. is engaged in the
 business of creating and licensing software in the field of
 computational chemistry and represents and warrants to the
 licensee that it is not a competitor of Gaussian, Inc. and that
 it will not use this program in any manner prohibited above.
 ---------------------------------------------------------------
  

 Cite this work as:
 Gaussian 16, Revision A.03,
 M. J. Frisch, G. W. Trucks, H. B. Schlegel, G. E. Scuseria, 
 M. A. Robb, J. R. Cheeseman, G. Scalmani, V. Barone, 
 G. A. Petersson, H. Nakatsuji, X. Li, M. Caricato, A. V. Marenich, 
 J. Bloino, B. G. Janesko, R. Gomperts, B. Mennucci, H. P. Hratchian, 
 J. V. Ortiz, A. F. Izmaylov, J. L. Sonnenberg, D. Williams-Young, 
 F. Ding, F. Lipparini, F. Egidi, J. Goings, B. Peng, A. Petrone, 
 T. Henderson, D. Ranasinghe, V. G. Zakrzewski, J. Gao, N. Rega, 
 G. Zheng, W. Liang, M. Hada, M. Ehara, K. Toyota, R. Fukuda, 
 J. Hasegawa, M. Ishida, T. Nakajima, Y. Honda, O. Kitao, H. Nakai, 
 T. Vreven, K. Throssell, J. A. Montgomery, Jr., J. E. Peralta, 
 F. Ogliaro, M. J. Bearpark, J. J. Heyd, E. N. Brothers, K. N. Kudin, 
 V. N. Staroverov, T. A. Keith, R. Kobayashi, J. Normand, 
 K. Raghavachari, A. P. Rendell, J. C. Burant, S. S. Iyengar, 
 J. Tomasi, M. Cossi, J. M. Millam, M. Klene, C. Adamo, R. Cammi, 
 J. W. Ochterski, R. L. Martin, K. Morokuma, O. Farkas, 
 J. B. Foresman, and D. J. Fox, Gaussian, Inc., Wallingford CT, 2016.
 
 ******************************************
 Gaussian 16:  ES64L-G16RevA.03 25-Dec-2016
                19-Jun-2021 
 ******************************************
 %chk=checkpoint.chk
 %nprocshared=16
 Will use up to   16 processors via shared memory.
 %mem=16GB
 -----------------------------------------------------------
 #p opt=modredundant freq=noraman ub3lyp jul-cc-pvdz pop=cm5
 -----------------------------------------------------------
 1/18=120,19=15,26=3,38=1/1,3;
 2/9=110,12=2,17=6,18=5,40=1/2;
 3/5=16,7=50,11=2,25=1,30=1,71=1,74=-5,116=2/1,2,3;
 4//1;
 5/5=2,38=5/2;
 6/7=2,8=2,9=2,10=2,28=1,79=1/1;
 7//1,2,3,16;
 1/18=20,19=15,26=3/3(2);
 2/9=110/2;
 99//99;
 2/9=110/2;
 3/5=16,7=50,11=2,25=1,30=1,71=1,74=-5,116=2/1,2,3;
 4/5=5,16=3,69=1/1;
 5/5=2,38=5/2;
 7//1,2,3,16;
 1/18=20,19=15,26=3/3(-5);
 2/9=110/2;
 6/7=2,8=2,9=2,10=2,19=2,28=1,79=1/1;
 99/9=1/99;
 Leave Link    1 at Sat Jun 19 21:33:36 2021, MaxMem=  2147483648 cpu:               2.0 elap:               0.2
 (Enter /SFS/product/gaussian/g16.a03/x86_64/avx/g16/l101.exe)
 -----
 title
 -----
 Symbolic Z-matrix:
 Charge =  0 Multiplicity = 6
 6                     2.11859  -1.7357    1.7102 
 6                     1.35583  -0.76169   1.05185 
 6                     1.30824   0.52933   1.59547 
 6                     1.98688   0.8299    2.77531 
 6                     2.73721  -0.14945   3.42727 
 6                     2.80486  -1.43247   2.88746 
 6                     0.63848  -1.0597   -0.26507 
 6                     1.55649  -0.73837  -1.51535 
 6                     2.32155  -2.04444  -1.74777 
 6                     1.29595  -3.15804  -1.43497 
 6                     0.26967  -2.49976  -0.46553 
 6                    -1.16414  -2.40703  -0.97201 
 6                    -1.52054  -2.20316  -2.39183 
 8                    -0.61936  -0.35789  -0.38531 
 26                   -1.94947   0.7537    0.34003 
 17                   -3.63379   0.43626  -1.09706 
 6                    -2.24353  -2.82449  -0.05318 
 17                   -1.39271   2.88258   0.43962 
 17                   -2.5037   -0.06682   2.32465 
 1                     0.74013   1.30899   1.10116 
 1                     1.92128   1.83375   3.18496 
 1                     3.26352   0.0856    4.34806 
 1                     3.38809  -2.20474   3.38144 
 1                     2.19373  -2.74473   1.31367 
 1                     0.8719   -0.5267   -2.34294 
 6                     2.4696    0.46863  -1.36338 
 1                     2.72487  -2.1153   -2.76221 
 1                     3.17199  -2.08476  -1.06126 
 1                     0.80856  -3.51168  -2.3496 
 1                     1.76134  -4.03422  -0.97386 
 1                     0.23214  -3.03153   0.48903 
 1                    -2.20496  -3.92921  -0.03941 
 1                    -2.06405  -2.48836   0.97247 
 1                    -3.23443  -2.51162  -0.38831 
 1                    -1.96992  -3.13724  -2.76536 
 1                    -2.31045  -1.44125  -2.44375 
 1                    -0.68418  -1.92686  -3.03178 
 8                     1.79631   1.60836  -1.59146 
 8                     3.64891   0.40858  -1.08753 
 6                     2.54836   2.84273  -1.44703 
 6                     1.65998   3.97709  -1.91837 
 1                     2.83022   2.94772  -0.39449 
 1                     3.468     2.75745  -2.03352 
 1                     2.18952   4.92942  -1.80348 
 1                     1.39817   3.8549   -2.9745 
 1                     0.73652   4.01717  -1.33373 
 
 The following ModRedundant input section has been read:
 B       7      11 F                                                           
 B      12      14 F                                                           
 
 ITRead=  0  0  0  0  0  0  0  0  0  0  0  0  0  0  0  0  0  0  0  0
 ITRead=  0  0  0  0  0  0  0  0  0  0  0  0  0  0  0  0  0  0  0  0
 ITRead=  0  0  0  0  0  0
 MicOpt= -1 -1 -1 -1 -1 -1 -1 -1 -1 -1 -1 -1 -1 -1 -1 -1 -1 -1 -1 -1
 MicOpt= -1 -1 -1 -1 -1 -1 -1 -1 -1 -1 -1 -1 -1 -1 -1 -1 -1 -1 -1 -1
 MicOpt= -1 -1 -1 -1 -1 -1
 NAtoms=     46 NQM=       46 NQMF=       0 NMMI=      0 NMMIF=      0
                NMic=       0 NMicF=      0.
                    Isotopes and Nuclear Properties:
 (Nuclear quadrupole moments (NQMom) in fm**2, nuclear magnetic moments (NMagM)
  in nuclear magnetons)

  Atom         1           2           3           4           5           6           7           8           9          10
 IAtWgt=          12          12          12          12          12          12          12          12          12          12
 AtmWgt=  12.0000000  12.0000000  12.0000000  12.0000000  12.0000000  12.0000000  12.0000000  12.0000000  12.0000000  12.0000000
 NucSpn=           0           0           0           0           0           0           0           0           0           0
 AtZEff=  -0.0000000  -0.0000000  -0.0000000  -0.0000000  -0.0000000  -0.0000000  -0.0000000  -0.0000000  -0.0000000  -0.0000000
 NQMom=    0.0000000   0.0000000   0.0000000   0.0000000   0.0000000   0.0000000   0.0000000   0.0000000   0.0000000   0.0000000
 NMagM=    0.0000000   0.0000000   0.0000000   0.0000000   0.0000000   0.0000000   0.0000000   0.0000000   0.0000000   0.0000000
 AtZNuc=   6.0000000   6.0000000   6.0000000   6.0000000   6.0000000   6.0000000   6.0000000   6.0000000   6.0000000   6.0000000

  Atom        11          12          13          14          15          16          17          18          19          20
 IAtWgt=          12          12          12          16          56          35          12          35          35           1
 AtmWgt=  12.0000000  12.0000000  12.0000000  15.9949146  55.9349393  34.9688527  12.0000000  34.9688527  34.9688527   1.0078250
 NucSpn=           0           0           0           0           0           3           0           3           3           1
 AtZEff=  -0.0000000  -0.0000000  -0.0000000  -0.0000000  -0.0000000  -0.0000000  -0.0000000  -0.0000000  -0.0000000  -0.0000000
 NQMom=    0.0000000   0.0000000   0.0000000   0.0000000   0.0000000  -8.1650000   0.0000000  -8.1650000  -8.1650000   0.0000000
 NMagM=    0.0000000   0.0000000   0.0000000   0.0000000   0.0000000   0.8218740   0.0000000   0.8218740   0.8218740   2.7928460
 AtZNuc=   6.0000000   6.0000000   6.0000000   8.0000000  26.0000000  17.0000000   6.0000000  17.0000000  17.0000000   1.0000000

  Atom        21          22          23          24          25          26          27          28          29          30
 IAtWgt=           1           1           1           1           1          12           1           1           1           1
 AtmWgt=   1.0078250   1.0078250   1.0078250   1.0078250   1.0078250  12.0000000   1.0078250   1.0078250   1.0078250   1.0078250
 NucSpn=           1           1           1           1           1           0           1           1           1           1
 AtZEff=  -0.0000000  -0.0000000  -0.0000000  -0.0000000  -0.0000000  -0.0000000  -0.0000000  -0.0000000  -0.0000000  -0.0000000
 NQMom=    0.0000000   0.0000000   0.0000000   0.0000000   0.0000000   0.0000000   0.0000000   0.0000000   0.0000000   0.0000000
 NMagM=    2.7928460   2.7928460   2.7928460   2.7928460   2.7928460   0.0000000   2.7928460   2.7928460   2.7928460   2.7928460
 AtZNuc=   1.0000000   1.0000000   1.0000000   1.0000000   1.0000000   6.0000000   1.0000000   1.0000000   1.0000000   1.0000000

  Atom        31          32          33          34          35          36          37          38          39          40
 IAtWgt=           1           1           1           1           1           1           1          16          16          12
 AtmWgt=   1.0078250   1.0078250   1.0078250   1.0078250   1.0078250   1.0078250   1.0078250  15.9949146  15.9949146  12.0000000
 NucSpn=           1           1           1           1           1           1           1           0           0           0
 AtZEff=  -0.0000000  -0.0000000  -0.0000000  -0.0000000  -0.0000000  -0.0000000  -0.0000000  -0.0000000  -0.0000000  -0.0000000
 NQMom=    0.0000000   0.0000000   0.0000000   0.0000000   0.0000000   0.0000000   0.0000000   0.0000000   0.0000000   0.0000000
 NMagM=    2.7928460   2.7928460   2.7928460   2.7928460   2.7928460   2.7928460   2.7928460   0.0000000   0.0000000   0.0000000
 AtZNuc=   1.0000000   1.0000000   1.0000000   1.0000000   1.0000000   1.0000000   1.0000000   8.0000000   8.0000000   6.0000000

  Atom        41          42          43          44          45          46
 IAtWgt=          12           1           1           1           1           1
 AtmWgt=  12.0000000   1.0078250   1.0078250   1.0078250   1.0078250   1.0078250
 NucSpn=           0           1           1           1           1           1
 AtZEff=  -0.0000000  -0.0000000  -0.0000000  -0.0000000  -0.0000000  -0.0000000
 NQMom=    0.0000000   0.0000000   0.0000000   0.0000000   0.0000000   0.0000000
 NMagM=    0.0000000   2.7928460   2.7928460   2.7928460   2.7928460   2.7928460
 AtZNuc=   6.0000000   1.0000000   1.0000000   1.0000000   1.0000000   1.0000000
 Leave Link  101 at Sat Jun 19 21:33:37 2021, MaxMem=  2147483648 cpu:              12.9 elap:               0.8
 (Enter /SFS/product/gaussian/g16.a03/x86_64/avx/g16/l103.exe)

 GradGradGradGradGradGradGradGradGradGradGradGradGradGradGradGradGradGrad
 Berny optimization.
 Initialization pass.
                           ----------------------------
                           !    Initial Parameters    !
                           ! (Angstroms and Degrees)  !
 --------------------------                            --------------------------
 ! Name  Definition              Value          Derivative Info.                !
 --------------------------------------------------------------------------------
 ! R1    R(1,2)                  1.4014         estimate D2E/DX2                !
 ! R2    R(1,6)                  1.396          estimate D2E/DX2                !
 ! R3    R(1,24)                 1.0867         estimate D2E/DX2                !
 ! R4    R(2,3)                  1.4016         estimate D2E/DX2                !
 ! R5    R(2,7)                  1.5289         estimate D2E/DX2                !
 ! R6    R(3,4)                  1.3939         estimate D2E/DX2                !
 ! R7    R(3,20)                 1.0839         estimate D2E/DX2                !
 ! R8    R(4,5)                  1.3954         estimate D2E/DX2                !
 ! R9    R(4,21)                 1.0862         estimate D2E/DX2                !
 ! R10   R(5,6)                  1.3936         estimate D2E/DX2                !
 ! R11   R(5,22)                 1.0863         estimate D2E/DX2                !
 ! R12   R(6,23)                 1.0865         estimate D2E/DX2                !
 ! R13   R(7,8)                  1.584          estimate D2E/DX2                !
 ! R14   R(7,11)                 1.5            Frozen                          !
 ! R15   R(7,14)                 1.4454         estimate D2E/DX2                !
 ! R16   R(8,9)                  1.5314         estimate D2E/DX2                !
 ! R17   R(8,25)                 1.0947         estimate D2E/DX2                !
 ! R18   R(8,26)                 1.5211         estimate D2E/DX2                !
 ! R19   R(9,10)                 1.5459         estimate D2E/DX2                !
 ! R20   R(9,27)                 1.094          estimate D2E/DX2                !
 ! R21   R(9,28)                 1.0937         estimate D2E/DX2                !
 ! R22   R(10,11)                1.5577         estimate D2E/DX2                !
 ! R23   R(10,29)                1.0951         estimate D2E/DX2                !
 ! R24   R(10,30)                1.094          estimate D2E/DX2                !
 ! R25   R(11,12)                1.5235         estimate D2E/DX2                !
 ! R26   R(11,31)                1.0933         estimate D2E/DX2                !
 ! R27   R(12,13)                1.478          estimate D2E/DX2                !
 ! R28   R(12,14)                2.2            Frozen                          !
 ! R29   R(12,17)                1.4777         estimate D2E/DX2                !
 ! R30   R(13,35)                1.1018         estimate D2E/DX2                !
 ! R31   R(13,36)                1.0987         estimate D2E/DX2                !
 ! R32   R(13,37)                1.0887         estimate D2E/DX2                !
 ! R33   R(14,15)                1.8791         estimate D2E/DX2                !
 ! R34   R(15,16)                2.2367         estimate D2E/DX2                !
 ! R35   R(15,18)                2.2027         estimate D2E/DX2                !
 ! R36   R(15,19)                2.2179         estimate D2E/DX2                !
 ! R37   R(17,32)                1.1055         estimate D2E/DX2                !
 ! R38   R(17,33)                1.0941         estimate D2E/DX2                !
 ! R39   R(17,34)                1.0918         estimate D2E/DX2                !
 ! R40   R(26,38)                1.3433         estimate D2E/DX2                !
 ! R41   R(26,39)                1.2126         estimate D2E/DX2                !
 ! R42   R(38,40)                1.4526         estimate D2E/DX2                !
 ! R43   R(40,41)                1.516          estimate D2E/DX2                !
 ! R44   R(40,42)                1.0947         estimate D2E/DX2                !
 ! R45   R(40,43)                1.0941         estimate D2E/DX2                !
 ! R46   R(41,44)                1.0957         estimate D2E/DX2                !
 ! R47   R(41,45)                1.0949         estimate D2E/DX2                !
 ! R48   R(41,46)                1.0937         estimate D2E/DX2                !
 ! A1    A(2,1,6)              120.8479         estimate D2E/DX2                !
 ! A2    A(2,1,24)             120.7671         estimate D2E/DX2                !
 ! A3    A(6,1,24)             118.3844         estimate D2E/DX2                !
 ! A4    A(1,2,3)              118.4551         estimate D2E/DX2                !
 ! A5    A(1,2,7)              121.6364         estimate D2E/DX2                !
 ! A6    A(3,2,7)              119.8456         estimate D2E/DX2                !
 ! A7    A(2,3,4)              120.6887         estimate D2E/DX2                !
 ! A8    A(2,3,20)             120.2284         estimate D2E/DX2                !
 ! A9    A(4,3,20)             119.0829         estimate D2E/DX2                !
 ! A10   A(3,4,5)              120.3935         estimate D2E/DX2                !
 ! A11   A(3,4,21)             119.2819         estimate D2E/DX2                !
 ! A12   A(5,4,21)             120.3238         estimate D2E/DX2                !
 ! A13   A(4,5,6)              119.4242         estimate D2E/DX2                !
 ! A14   A(4,5,22)             120.3107         estimate D2E/DX2                !
 ! A15   A(6,5,22)             120.2651         estimate D2E/DX2                !
 ! A16   A(1,6,5)              120.1829         estimate D2E/DX2                !
 ! A17   A(1,6,23)             119.5306         estimate D2E/DX2                !
 ! A18   A(5,6,23)             120.286          estimate D2E/DX2                !
 ! A19   A(2,7,8)              111.6169         estimate D2E/DX2                !
 ! A20   A(2,7,11)             114.6825         estimate D2E/DX2                !
 ! A21   A(2,7,14)             112.6631         estimate D2E/DX2                !
 ! A22   A(8,7,11)             103.4005         estimate D2E/DX2                !
 ! A23   A(8,7,14)             109.888          estimate D2E/DX2                !
 ! A24   A(11,7,14)            103.9491         estimate D2E/DX2                !
 ! A25   A(7,8,9)              103.6691         estimate D2E/DX2                !
 ! A26   A(7,8,25)             105.873          estimate D2E/DX2                !
 ! A27   A(7,8,26)             115.4674         estimate D2E/DX2                !
 ! A28   A(9,8,25)             111.2599         estimate D2E/DX2                !
 ! A29   A(9,8,26)             113.0804         estimate D2E/DX2                !
 ! A30   A(25,8,26)            107.3078         estimate D2E/DX2                !
 ! A31   A(8,9,10)             104.6087         estimate D2E/DX2                !
 ! A32   A(8,9,27)             112.3435         estimate D2E/DX2                !
 ! A33   A(8,9,28)             108.9439         estimate D2E/DX2                !
 ! A34   A(10,9,27)            112.679          estimate D2E/DX2                !
 ! A35   A(10,9,28)            111.242          estimate D2E/DX2                !
 ! A36   A(27,9,28)            107.0379         estimate D2E/DX2                !
 ! A37   A(9,10,11)            104.9877         estimate D2E/DX2                !
 ! A38   A(9,10,29)            111.0334         estimate D2E/DX2                !
 ! A39   A(9,10,30)            112.3323         estimate D2E/DX2                !
 ! A40   A(11,10,29)           111.2877         estimate D2E/DX2                !
 ! A41   A(11,10,30)           110.8794         estimate D2E/DX2                !
 ! A42   A(29,10,30)           106.4232         estimate D2E/DX2                !
 ! A43   A(7,11,10)            109.0801         estimate D2E/DX2                !
 ! A44   A(7,11,12)            102.5562         estimate D2E/DX2                !
 ! A45   A(7,11,31)            111.0207         estimate D2E/DX2                !
 ! A46   A(10,11,12)           116.0329         estimate D2E/DX2                !
 ! A47   A(10,11,31)           111.1277         estimate D2E/DX2                !
 ! A48   A(12,11,31)           106.7118         estimate D2E/DX2                !
 ! A49   A(11,12,13)           123.6913         estimate D2E/DX2                !
 ! A50   A(11,12,17)           117.6165         estimate D2E/DX2                !
 ! A51   A(13,12,17)           117.3965         estimate D2E/DX2                !
 ! A52   A(12,13,35)           107.8835         estimate D2E/DX2                !
 ! A53   A(12,13,36)           108.3257         estimate D2E/DX2                !
 ! A54   A(12,13,37)           114.4824         estimate D2E/DX2                !
 ! A55   A(35,13,36)           106.1799         estimate D2E/DX2                !
 ! A56   A(35,13,37)           109.2189         estimate D2E/DX2                !
 ! A57   A(36,13,37)           110.397          estimate D2E/DX2                !
 ! A58   A(7,14,15)            150.5895         estimate D2E/DX2                !
 ! A59   A(14,15,16)           101.5997         estimate D2E/DX2                !
 ! A60   A(14,15,18)           114.2212         estimate D2E/DX2                !
 ! A61   A(14,15,19)           107.6646         estimate D2E/DX2                !
 ! A62   A(16,15,18)           110.8881         estimate D2E/DX2                !
 ! A63   A(16,15,19)           109.5263         estimate D2E/DX2                !
 ! A64   A(18,15,19)           112.3493         estimate D2E/DX2                !
 ! A65   A(12,17,32)           105.3416         estimate D2E/DX2                !
 ! A66   A(12,17,33)           112.1023         estimate D2E/DX2                !
 ! A67   A(12,17,34)           113.0246         estimate D2E/DX2                !
 ! A68   A(32,17,33)           106.8332         estimate D2E/DX2                !
 ! A69   A(32,17,34)           108.7744         estimate D2E/DX2                !
 ! A70   A(33,17,34)           110.4003         estimate D2E/DX2                !
 ! A71   A(8,26,38)            110.8193         estimate D2E/DX2                !
 ! A72   A(8,26,39)            124.5578         estimate D2E/DX2                !
 ! A73   A(38,26,39)           124.6186         estimate D2E/DX2                !
 ! A74   A(26,38,40)           116.399          estimate D2E/DX2                !
 ! A75   A(38,40,41)           107.5505         estimate D2E/DX2                !
 ! A76   A(38,40,42)           108.0834         estimate D2E/DX2                !
 ! A77   A(38,40,43)           108.3998         estimate D2E/DX2                !
 ! A78   A(41,40,42)           112.2143         estimate D2E/DX2                !
 ! A79   A(41,40,43)           112.5971         estimate D2E/DX2                !
 ! A80   A(42,40,43)           107.8466         estimate D2E/DX2                !
 ! A81   A(40,41,44)           109.5454         estimate D2E/DX2                !
 ! A82   A(40,41,45)           110.8863         estimate D2E/DX2                !
 ! A83   A(40,41,46)           110.8559         estimate D2E/DX2                !
 ! A84   A(44,41,45)           108.2817         estimate D2E/DX2                !
 ! A85   A(44,41,46)           108.6729         estimate D2E/DX2                !
 ! A86   A(45,41,46)           108.5301         estimate D2E/DX2                !
 ! D1    D(6,1,2,3)              0.6316         estimate D2E/DX2                !
 ! D2    D(6,1,2,7)            177.7421         estimate D2E/DX2                !
 ! D3    D(24,1,2,3)          -179.0855         estimate D2E/DX2                !
 ! D4    D(24,1,2,7)            -1.9749         estimate D2E/DX2                !
 ! D5    D(2,1,6,5)              0.1224         estimate D2E/DX2                !
 ! D6    D(2,1,6,23)           179.8629         estimate D2E/DX2                !
 ! D7    D(24,1,6,5)           179.8461         estimate D2E/DX2                !
 ! D8    D(24,1,6,23)           -0.4134         estimate D2E/DX2                !
 ! D9    D(1,2,3,4)             -1.0226         estimate D2E/DX2                !
 ! D10   D(1,2,3,20)           179.0121         estimate D2E/DX2                !
 ! D11   D(7,2,3,4)           -178.1864         estimate D2E/DX2                !
 ! D12   D(7,2,3,20)             1.8483         estimate D2E/DX2                !
 ! D13   D(1,2,7,8)            -90.2256         estimate D2E/DX2                !
 ! D14   D(1,2,7,11)            26.9341         estimate D2E/DX2                !
 ! D15   D(1,2,7,14)           145.5801         estimate D2E/DX2                !
 ! D16   D(3,2,7,8)             86.8455         estimate D2E/DX2                !
 ! D17   D(3,2,7,11)          -155.9947         estimate D2E/DX2                !
 ! D18   D(3,2,7,14)           -37.3487         estimate D2E/DX2                !
 ! D19   D(2,3,4,5)              0.6649         estimate D2E/DX2                !
 ! D20   D(2,3,4,21)          -179.0184         estimate D2E/DX2                !
 ! D21   D(20,3,4,5)          -179.3695         estimate D2E/DX2                !
 ! D22   D(20,3,4,21)            0.9473         estimate D2E/DX2                !
 ! D23   D(3,4,5,6)              0.1065         estimate D2E/DX2                !
 ! D24   D(3,4,5,22)          -179.844          estimate D2E/DX2                !
 ! D25   D(21,4,5,6)           179.7865         estimate D2E/DX2                !
 ! D26   D(21,4,5,22)           -0.1641         estimate D2E/DX2                !
 ! D27   D(4,5,6,1)             -0.4963         estimate D2E/DX2                !
 ! D28   D(4,5,6,23)           179.7651         estimate D2E/DX2                !
 ! D29   D(22,5,6,1)           179.4542         estimate D2E/DX2                !
 ! D30   D(22,5,6,23)           -0.2843         estimate D2E/DX2                !
 ! D31   D(2,7,8,9)             88.4462         estimate D2E/DX2                !
 ! D32   D(2,7,8,25)          -154.3527         estimate D2E/DX2                !
 ! D33   D(2,7,8,26)           -35.7968         estimate D2E/DX2                !
 ! D34   D(11,7,8,9)           -35.3446         estimate D2E/DX2                !
 ! D35   D(11,7,8,25)           81.8565         estimate D2E/DX2                !
 ! D36   D(11,7,8,26)         -159.5876         estimate D2E/DX2                !
 ! D37   D(14,7,8,9)          -145.8142         estimate D2E/DX2                !
 ! D38   D(14,7,8,25)          -28.6131         estimate D2E/DX2                !
 ! D39   D(14,7,8,26)           89.9428         estimate D2E/DX2                !
 ! D40   D(2,7,11,10)         -101.6091         estimate D2E/DX2                !
 ! D41   D(2,7,11,12)          134.8304         estimate D2E/DX2                !
 ! D42   D(2,7,11,31)           21.1775         estimate D2E/DX2                !
 ! D43   D(8,7,11,10)           20.1454         estimate D2E/DX2                !
 ! D44   D(8,7,11,12)         -103.4151         estimate D2E/DX2                !
 ! D45   D(8,7,11,31)          142.9321         estimate D2E/DX2                !
 ! D46   D(14,7,11,10)         134.9488         estimate D2E/DX2                !
 ! D47   D(14,7,11,12)          11.3883         estimate D2E/DX2                !
 ! D48   D(14,7,11,31)        -102.2646         estimate D2E/DX2                !
 ! D49   D(2,7,14,15)           -5.1405         estimate D2E/DX2                !
 ! D50   D(8,7,14,15)         -130.2821         estimate D2E/DX2                !
 ! D51   D(11,7,14,15)         119.6094         estimate D2E/DX2                !
 ! D52   D(7,8,9,10)            37.1022         estimate D2E/DX2                !
 ! D53   D(7,8,9,27)           159.6444         estimate D2E/DX2                !
 ! D54   D(7,8,9,28)           -81.9309         estimate D2E/DX2                !
 ! D55   D(25,8,9,10)          -76.2672         estimate D2E/DX2                !
 ! D56   D(25,8,9,27)           46.275          estimate D2E/DX2                !
 ! D57   D(25,8,9,28)          164.6997         estimate D2E/DX2                !
 ! D58   D(26,8,9,10)          162.882          estimate D2E/DX2                !
 ! D59   D(26,8,9,27)          -74.5758         estimate D2E/DX2                !
 ! D60   D(26,8,9,28)           43.8489         estimate D2E/DX2                !
 ! D61   D(7,8,26,38)          -80.6445         estimate D2E/DX2                !
 ! D62   D(7,8,26,39)          100.0774         estimate D2E/DX2                !
 ! D63   D(9,8,26,38)          160.1804         estimate D2E/DX2                !
 ! D64   D(9,8,26,39)          -19.0977         estimate D2E/DX2                !
 ! D65   D(25,8,26,38)          37.1126         estimate D2E/DX2                !
 ! D66   D(25,8,26,39)        -142.1654         estimate D2E/DX2                !
 ! D67   D(8,9,10,11)          -24.6971         estimate D2E/DX2                !
 ! D68   D(8,9,10,29)           95.6749         estimate D2E/DX2                !
 ! D69   D(8,9,10,30)         -145.2841         estimate D2E/DX2                !
 ! D70   D(27,9,10,11)        -147.0205         estimate D2E/DX2                !
 ! D71   D(27,9,10,29)         -26.6485         estimate D2E/DX2                !
 ! D72   D(27,9,10,30)          92.3925         estimate D2E/DX2                !
 ! D73   D(28,9,10,11)          92.7713         estimate D2E/DX2                !
 ! D74   D(28,9,10,29)        -146.8567         estimate D2E/DX2                !
 ! D75   D(28,9,10,30)         -27.8156         estimate D2E/DX2                !
 ! D76   D(9,10,11,7)            2.2767         estimate D2E/DX2                !
 ! D77   D(9,10,11,12)         117.4246         estimate D2E/DX2                !
 ! D78   D(9,10,11,31)        -120.4458         estimate D2E/DX2                !
 ! D79   D(29,10,11,7)        -117.9269         estimate D2E/DX2                !
 ! D80   D(29,10,11,12)         -2.7789         estimate D2E/DX2                !
 ! D81   D(29,10,11,31)        119.3506         estimate D2E/DX2                !
 ! D82   D(30,10,11,7)         123.8188         estimate D2E/DX2                !
 ! D83   D(30,10,11,12)       -121.0332         estimate D2E/DX2                !
 ! D84   D(30,10,11,31)          1.0963         estimate D2E/DX2                !
 ! D85   D(7,11,12,13)          85.3845         estimate D2E/DX2                !
 ! D86   D(7,11,12,17)        -107.9779         estimate D2E/DX2                !
 ! D87   D(10,11,12,13)        -33.3991         estimate D2E/DX2                !
 ! D88   D(10,11,12,17)        133.2385         estimate D2E/DX2                !
 ! D89   D(31,11,12,13)       -157.8352         estimate D2E/DX2                !
 ! D90   D(31,11,12,17)          8.8024         estimate D2E/DX2                !
 ! D91   D(11,12,13,35)        110.2919         estimate D2E/DX2                !
 ! D92   D(11,12,13,36)       -135.1687         estimate D2E/DX2                !
 ! D93   D(11,12,13,37)        -11.5106         estimate D2E/DX2                !
 ! D94   D(17,12,13,35)        -56.3729         estimate D2E/DX2                !
 ! D95   D(17,12,13,36)         58.1666         estimate D2E/DX2                !
 ! D96   D(17,12,13,37)       -178.1754         estimate D2E/DX2                !
 ! D97   D(11,12,17,32)        -75.0492         estimate D2E/DX2                !
 ! D98   D(11,12,17,33)         40.7692         estimate D2E/DX2                !
 ! D99   D(11,12,17,34)        166.3166         estimate D2E/DX2                !
 ! D100  D(13,12,17,32)         92.4424         estimate D2E/DX2                !
 ! D101  D(13,12,17,33)       -151.7392         estimate D2E/DX2                !
 ! D102  D(13,12,17,34)        -26.1918         estimate D2E/DX2                !
 ! D103  D(7,14,15,16)        -165.0259         estimate D2E/DX2                !
 ! D104  D(7,14,15,18)          75.538          estimate D2E/DX2                !
 ! D105  D(7,14,15,19)         -49.9726         estimate D2E/DX2                !
 ! D106  D(8,26,38,40)         178.5899         estimate D2E/DX2                !
 ! D107  D(39,26,38,40)         -2.1326         estimate D2E/DX2                !
 ! D108  D(26,38,40,41)        172.8345         estimate D2E/DX2                !
 ! D109  D(26,38,40,42)        -65.8061         estimate D2E/DX2                !
 ! D110  D(26,38,40,43)         50.8339         estimate D2E/DX2                !
 ! D111  D(38,40,41,44)        178.823          estimate D2E/DX2                !
 ! D112  D(38,40,41,45)        -61.7214         estimate D2E/DX2                !
 ! D113  D(38,40,41,46)         58.9013         estimate D2E/DX2                !
 ! D114  D(42,40,41,44)         60.0843         estimate D2E/DX2                !
 ! D115  D(42,40,41,45)        179.5399         estimate D2E/DX2                !
 ! D116  D(42,40,41,46)        -59.8374         estimate D2E/DX2                !
 ! D117  D(43,40,41,44)        -61.8223         estimate D2E/DX2                !
 ! D118  D(43,40,41,45)         57.6332         estimate D2E/DX2                !
 ! D119  D(43,40,41,46)        178.256          estimate D2E/DX2                !
 --------------------------------------------------------------------------------
 Trust Radius=3.00D-01 FncErr=1.00D-07 GrdErr=1.00D-06 EigMax=2.50D+02 EigMin=1.00D-04
 Number of steps in this run=    263 maximum allowed number of steps=    276.
 GradGradGradGradGradGradGradGradGradGradGradGradGradGradGradGradGradGrad

 Leave Link  103 at Sat Jun 19 21:33:37 2021, MaxMem=  2147483648 cpu:               0.4 elap:               0.1
 (Enter /SFS/product/gaussian/g16.a03/x86_64/avx/g16/l202.exe)
                          Input orientation:                          
 ---------------------------------------------------------------------
 Center     Atomic      Atomic             Coordinates (Angstroms)
 Number     Number       Type             X           Y           Z
 ---------------------------------------------------------------------
      1          6           0        2.118588   -1.735702    1.710196
      2          6           0        1.355833   -0.761686    1.051851
      3          6           0        1.308236    0.529334    1.595467
      4          6           0        1.986880    0.829896    2.775307
      5          6           0        2.737208   -0.149445    3.427269
      6          6           0        2.804859   -1.432474    2.887459
      7          6           0        0.638483   -1.059695   -0.265067
      8          6           0        1.556490   -0.738372   -1.515351
      9          6           0        2.321546   -2.044442   -1.747772
     10          6           0        1.295945   -3.158037   -1.434973
     11          6           0        0.269670   -2.499764   -0.465526
     12          6           0       -1.164136   -2.407030   -0.972013
     13          6           0       -1.520541   -2.203157   -2.391829
     14          8           0       -0.619363   -0.357885   -0.385305
     15         26           0       -1.949469    0.753695    0.340030
     16         17           0       -3.633785    0.436261   -1.097058
     17          6           0       -2.243531   -2.824486   -0.053184
     18         17           0       -1.392707    2.882583    0.439617
     19         17           0       -2.503704   -0.066820    2.324652
     20          1           0        0.740127    1.308985    1.101164
     21          1           0        1.921279    1.833745    3.184964
     22          1           0        3.263519    0.085597    4.348055
     23          1           0        3.388090   -2.204741    3.381440
     24          1           0        2.193731   -2.744725    1.313670
     25          1           0        0.871895   -0.526696   -2.342941
     26          6           0        2.469598    0.468627   -1.363378
     27          1           0        2.724865   -2.115295   -2.762213
     28          1           0        3.171989   -2.084762   -1.061255
     29          1           0        0.808555   -3.511677   -2.349601
     30          1           0        1.761338   -4.034221   -0.973862
     31          1           0        0.232136   -3.031530    0.489031
     32          1           0       -2.204962   -3.929213   -0.039406
     33          1           0       -2.064048   -2.488359    0.972469
     34          1           0       -3.234432   -2.511624   -0.388314
     35          1           0       -1.969917   -3.137244   -2.765363
     36          1           0       -2.310445   -1.441252   -2.443749
     37          1           0       -0.684184   -1.926862   -3.031779
     38          8           0        1.796305    1.608356   -1.591459
     39          8           0        3.648905    0.408578   -1.087527
     40          6           0        2.548357    2.842732   -1.447031
     41          6           0        1.659981    3.977088   -1.918366
     42          1           0        2.830217    2.947720   -0.394492
     43          1           0        3.468003    2.757450   -2.033517
     44          1           0        2.189518    4.929417   -1.803478
     45          1           0        1.398174    3.854901   -2.974496
     46          1           0        0.736516    4.017165   -1.333728
 ---------------------------------------------------------------------
                    Distance matrix (angstroms):
                    1          2          3          4          5
     1  C    0.000000
     2  C    1.401399   0.000000
     3  C    2.408365   1.401612   0.000000
     4  C    2.781025   2.429332   1.393886   0.000000
     5  C    2.418107   2.815252   2.420372   1.395405   0.000000
     6  C    1.396017   2.432918   2.785285   2.408316   1.393605
     7  C    2.559172   1.528945   2.536763   3.825259   4.343564
     8  C    3.422685   2.575137   3.368367   4.588512   5.115704
     9  C    3.477651   3.227376   4.339167   5.369550   5.526738
    10  C    3.548502   3.454038   4.772884   5.840159   5.896631
    11  C    2.955682   2.550117   3.808116   4.953629   5.173644
    12  C    4.291993   3.626765   4.618096   5.869327   6.298481
    13  C    5.503488   4.712780   5.600626   6.942673   7.497204
    14  O    3.712934   2.475858   2.902801   4.265301   5.083870
    15  Fe   4.962211   3.705144   3.498443   4.629387   5.684334
    16  Cl   6.759282   5.563198   5.628670   6.836815   7.835952
    17  C    4.829394   4.293212   5.155697   6.265082   6.639063
    18  Cl   5.939034   4.605431   3.764155   4.592448   5.930890
    19  Cl   4.952606   4.122971   3.926576   4.601362   5.356281
    20  H    3.397233   2.160834   1.083946   2.141652   3.395013
    21  H    3.867147   3.406782   2.145649   1.086202   2.158123
    22  H    3.403865   3.901553   3.405404   2.158084   1.086322
    23  H    2.150509   3.411665   3.871777   3.397029   2.156383
    24  H    1.086741   2.168655   3.403377   3.867439   3.390892
    25  H    4.409519   3.437154   4.100811   5.411099   6.075939
    26  C    3.798570   2.930439   3.179184   4.182373   4.837761
    27  H    4.529250   4.272422   5.290584   6.315291   6.494182
    28  H    2.985371   3.084505   4.167163   4.961746   4.907274
    29  H    4.620847   4.408156   5.669481   6.819266   6.956762
    30  H    3.551758   3.870069   5.256690   6.145468   5.950946
    31  H    2.594054   2.594543   3.880972   4.818381   4.818199
    32  H    5.154191   4.889103   5.907115   6.938535   7.122466
    33  H    4.313372   3.831878   4.568030   5.538146   5.877807
    34  H    5.801778   5.119267   5.815380   6.959623   7.469876
    35  H    6.221802   5.592407   6.573197   7.879941   8.332626
    36  H    6.079333   5.111030   5.770037   7.131876   7.849613
    37  H    5.511660   4.711193   5.604823   6.961074   7.522263
    38  O    4.710363   3.577458   3.399853   4.439703   5.400259
    39  O    3.842793   3.347333   3.562551   4.226266   4.639608
    40  C    5.578068   4.545146   4.018271   4.711147   5.722551
    41  C    6.783270   5.600953   4.935358   5.660587   6.838458
    42  H    5.183683   4.245634   3.482090   3.904359   4.920055
    43  H    6.002060   5.134693   4.774790   5.388319   6.229308
    44  H    7.534902   6.421572   5.629406   6.149179   7.311328
    45  H    7.329405   6.125858   5.652614   6.523608   7.668794
    46  H    6.653651   5.376984   4.590426   5.348482   6.635548
                    6          7          8          9         10
     6  C    0.000000
     7  C    3.843250   0.000000
     8  C    4.628708   1.584044   0.000000
     9  C    4.700368   2.449662   1.531388   0.000000
    10  C    4.892628   2.490778   2.434979   1.545896   0.000000
    11  C    4.336911   1.500002   2.420855   2.462046   1.557688
    12  C    5.621228   2.358923   3.237505   3.589325   2.613492
    13  C    6.868327   3.239137   3.518796   3.898927   3.124094
    14  O    4.857059   1.445396   2.481151   3.653729   3.551205
    15  Fe   5.819997   3.217456   4.237977   5.516345   5.383771
    16  Cl   7.799018   4.602431   5.337948   6.484079   6.110270
    17  C    6.005940   3.386058   4.574928   4.931534   3.814248
    18  Cl   6.498554   4.490420   5.062705   6.546443   6.872556
    19  Cl   5.510227   4.191155   5.628657   6.616545   6.174766
    20  H    3.869052   2.736341   3.421150   4.675767   5.166741
    21  H    3.396676   4.681909   5.370458   6.287482   6.830282
    22  H    2.155980   5.429862   6.162175   6.525602   6.916352
    23  H    1.086541   4.708342   5.429876   5.241376   5.337010
    24  H    2.138292   2.783978   3.526314   3.143113   2.920939
    25  H    5.649236   2.157807   1.094706   2.181574   2.815702
    26  C    4.668640   2.625840   1.521088   2.546604   3.812516
    27  H    5.691348   3.420968   2.194466   1.093973   2.211490
    28  H    4.019031   2.846635   2.151466   1.093702   2.193428
    29  H    5.977885   3.222797   2.991087   2.191830   1.095059
    30  H    4.771564   3.257453   3.346310   2.207259   1.094035
    31  H    3.863721   2.149864   3.321150   3.216095   2.202155
    32  H    6.316530   4.046015   5.148631   5.192317   3.846904
    33  H    5.337447   3.297916   4.728636   5.179788   4.187338
    34  H    6.954731   4.137965   5.231402   5.738926   4.694429
    35  H    7.593360   4.167906   4.444397   4.543827   3.526503
    36  H    7.388382   3.686247   4.038459   4.722665   4.119591
    37  H    6.888775   3.186867   2.955111   3.270613   2.826038
    38  O    5.506772   3.196618   2.360177   3.693676   4.795138
    39  O    4.461211   3.448899   2.424196   2.866202   4.286943
    40  C    6.093520   4.502621   3.716554   4.901669   6.130082
    41  C    7.325985   5.398707   4.733782   6.060165   7.160740
    42  H    5.473385   4.569445   4.057829   5.197287   6.380976
    43  H    6.497017   5.069930   4.017854   4.945117   6.330014
    44  H    7.928253   6.375098   5.710304   6.975331   8.145010
    45  H    8.018579   5.663161   4.822066   6.095877   7.180660
    46  H    7.196876   5.189042   4.829128   6.279079   7.197690
                   11         12         13         14         15
    11  C    0.000000
    12  C    1.523459   0.000000
    13  C    2.646408   1.477994   0.000000
    14  O    2.320444   2.200000   2.871113   0.000000
    15  Fe   4.019763   3.511180   4.048457   1.879070   0.000000
    16  Cl   4.925042   3.768170   3.620602   3.197499   2.236718
    17  C    2.567421   1.477704   2.525475   2.971926   3.611713
    18  Cl   5.705475   5.479503   5.822214   3.432082   2.202740
    19  Cl   4.625572   4.258993   5.270269   3.313507   2.217915
    20  H    4.145168   4.661872   5.444884   2.614624   2.849842
    21  H    5.901965   6.692116   7.696968   4.899482   4.923703
    22  H    6.230392   7.356660   8.576227   6.138253   6.609528
    23  H    4.960920   6.302082   7.577948   5.801631   6.818508
    24  H    2.632025   4.075985   5.274451   4.061652   5.509358
    25  H    2.789330   3.092009   2.921757   2.466716   4.098516
    26  C    3.802258   4.650440   4.910942   3.343864   4.744578
    27  H    3.383869   4.291183   4.262438   4.463412   6.301144
    28  H    2.991751   4.349000   4.878963   4.220588   6.020778
    29  H    2.205471   2.647547   2.671834   3.980429   5.747539
    30  H    2.199554   3.347559   4.016734   4.419229   6.198430
    31  H    1.093327   2.115236   3.472381   2.939029   4.371445
    32  H    2.889413   2.066426   2.996931   3.922774   4.705197
    33  H    2.741204   2.144170   3.419831   2.910255   3.305151
    34  H    3.504973   2.153548   2.654552   3.387800   3.583842
    35  H    3.272825   2.097284   1.101810   3.900450   4.978282
    36  H    3.419182   2.100657   1.098701   2.875871   3.563358
    37  H    2.797089   2.168767   1.088746   3.077290   4.489480
    38  O    4.524930   5.027052   5.115632   3.340114   4.300223
    39  O    4.501618   5.577307   5.936795   4.393028   5.787816
    40  C    5.890503   6.447344   6.550540   4.626625   5.271442
    41  C    6.781838   7.044727   6.966729   5.132025   5.340294
    42  H    6.019678   6.705351   7.032068   4.777731   5.310242
    43  H    6.350294   7.018216   7.044259   5.397080   6.244819
    44  H    7.789009   8.109364   8.061284   6.152771   6.257994
    45  H    6.924610   7.056001   6.749701   5.340593   5.640060
    46  H    6.591061   6.709217   6.701216   4.677497   4.546011
                   16         17         18         19         20
    16  Cl   0.000000
    17  C    3.695260   0.000000
    18  Cl   3.656267   5.791148   0.000000
    19  Cl   3.638444   3.650550   3.672417   0.000000
    20  H    4.972417   5.226884   2.731819   3.729906   0.000000
    21  H    7.151742   7.037781   4.429390   4.892112   2.452084
    22  H    8.794602   7.626735   6.691746   6.113776   4.290278
    23  H    8.737194   6.625397   7.575699   6.356158   4.955566
    24  H    7.063301   4.643700   6.730015   5.500832   4.311692
    25  H    4.772909   4.497633   4.949165   5.778631   3.904990
    26  C    6.109276   5.897015   4.898507   6.214660   3.125898
    27  H    7.050930   5.703223   7.223912   7.576964   5.530873
    28  H    7.257782   5.557990   6.911120   6.910134   4.701864
    29  H    6.073670   3.880849   7.315180   6.684814   5.928848
    30  H    7.007691   4.283700   7.732277   6.694106   5.822238
    31  H    5.430156   2.542792   6.133457   4.432136   4.412803
    32  H    4.713547   1.105486   6.876757   4.538292   6.116630
    33  H    3.911575   1.094148   5.438901   2.808122   4.722264
    34  H    3.058076   1.091824   5.759765   3.724408   5.710755
    35  H    4.280378   2.743829   6.844223   5.968307   6.485624
    36  H    2.662679   2.762719   5.277461   4.966292   5.425514
    37  H    4.245897   3.479845   5.973555   5.954978   5.438804
    38  O    5.577106   6.191660   3.989827   6.052455   2.907809
    39  O    7.282749   6.800248   5.819856   7.051494   3.749945
    40  C    6.643227   7.551315   4.369555   6.943659   3.480714
    41  C    6.421523   8.060876   4.009605   7.189761   4.133094
    42  H    6.970247   7.692709   4.305005   6.703127   3.048100
    43  H    7.529958   8.228083   5.455140   7.914002   4.400634
    44  H    7.389069   9.101564   4.696098   8.001886   4.862634
    45  H    6.366513   8.149251   4.515594   7.660647   4.850332
    46  H    5.654946   7.571569   2.994264   6.368807   3.641833
                   21         22         23         24         25
    21  H    0.000000
    22  H    2.492069   0.000000
    23  H    4.301105   2.489078   0.000000
    24  H    4.953621   4.285168   2.448213   0.000000
    25  H    6.101690   7.131914   6.474227   4.476350   0.000000
    26  C    4.780336   5.779056   5.523027   4.191458   2.121996
    27  H    7.183981   7.462572   6.179995   4.158258   2.476476
    28  H    5.911797   5.829191   4.449566   2.651944   3.059530
    29  H    7.774516   7.989107   6.419261   3.990800   2.985660
    30  H    7.194056   6.895814   4.996196   2.661309   3.868878
    31  H    5.813102   5.813590   4.360006   2.147124   3.834521
    32  H    7.786791   8.079158   6.779249   4.752087   5.133268
    33  H    6.281604   6.811960   5.967360   4.279115   4.843535
    34  H    7.630983   8.449977   7.626468   5.693509   4.962099
    35  H    8.675167   9.400865   8.207374   5.841964   3.881919
    36  H    7.766306   8.917900   8.184683   6.008730   3.312682
    37  H    7.718711   8.607921   7.601974   5.275815   2.203712
    38  O    4.783371   6.304708   6.465540   5.248527   2.444935
    39  O    4.823896   5.458790   5.183544   4.222156   3.187881
    40  C    4.781910   6.457265   7.035358   6.242348   3.868621
    41  C    5.541315   7.548713   8.324020   7.477547   4.591886
    42  H    3.857410   5.556190   6.412234   5.977195   4.438811
    43  H    5.520700   6.921349   7.345167   6.565163   4.197754
    44  H    5.877048   7.903001   8.900346   8.283060   5.638823
    45  H    6.503665   8.444342   9.004274   7.910521   4.458052
    46  H    5.156507   7.357012   8.244742   7.406440   4.656556
                   26         27         28         29         30
    26  C    0.000000
    27  H    2.949331   0.000000
    28  H    2.665413   1.759008   0.000000
    29  H    4.424310   2.406735   3.046595   0.000000
    30  H    4.574822   2.794434   2.407896   1.753142   0.000000
    31  H    4.548489   4.198068   3.455791   2.936091   2.341774
    32  H    6.553275   5.916686   5.775619   3.820029   4.076245
    33  H    5.895243   6.084465   5.631608   4.509454   4.561959
    34  H    6.509117   6.426951   6.455795   4.603531   5.255367
    35  H    5.888732   4.804723   5.518233   2.834249   4.235128
    36  H    5.259625   5.090196   5.690560   3.744821   5.046134
    37  H    4.297473   3.424878   4.333355   2.281507   3.828389
    38  O    1.343252   4.012289   3.976524   5.269266   5.676383
    39  O    1.212627   3.166758   2.538677   5.002881   4.828488
    40  C    2.376884   5.132533   4.981760   6.649816   6.937995
    41  C    3.643184   6.242050   6.306095   7.549337   8.067430
    42  H    2.686017   5.590288   5.087952   7.045096   7.087007
    43  H    2.585461   4.982660   4.947720   6.817223   7.082540
    44  H    4.491189   7.129778   7.121436   8.570728   9.012126
    45  H    3.900064   6.119511   6.487411   7.416510   8.146942
    46  H    3.949250   6.603118   6.575658   7.597411   8.124320
                   31         32         33         34         35
    31  H    0.000000
    32  H    2.650382   0.000000
    33  H    2.408570   1.766298   0.000000
    34  H    3.613465   1.786366   1.795013   0.000000
    35  H    3.930813   2.848386   3.794905   2.764193   0.000000
    36  H    4.194628   3.461494   3.581576   2.494847   1.759484
    37  H    3.802110   3.908513   4.272389   3.719357   1.785808
    38  O    5.320113   7.005974   6.185396   6.612874   6.171159
    39  O    5.098450   7.360893   6.728570   7.509781   6.852675
    40  C    6.604557   8.392538   7.453106   7.951771   7.610053
    41  C    7.546855   8.998771   8.001708   8.270412   8.031643
    42  H    6.578911   8.530611   7.441328   8.159929   8.104881
    43  H    7.095518   8.992801   8.195002   8.682884   8.053197
    44  H    8.512557  10.044836   8.990112   9.316169   9.126727
    45  H    7.796063   9.065858   8.234225   8.287461   7.763882
    46  H    7.298010   8.571609   7.448728   7.699826   7.782026
                   36         37         38         39         40
    36  H    0.000000
    37  H    1.796196   0.000000
    38  O    5.185740   4.552484   0.000000
    39  O    6.385535   5.292453   2.263966   0.000000
    40  C    6.553924   5.975766   1.452627   2.695469   0.000000
    41  C    6.737857   6.449141   2.395067   4.168978   1.515959
    42  H    7.063210   6.562610   2.072583   2.756409   1.094672
    43  H    7.154568   6.338767   2.076152   2.538665   1.094069
    44  H    7.825921   7.534948   3.350972   4.804205   2.147108
    45  H    6.487279   6.145590   2.668008   4.528088   2.163459
    46  H    6.349050   6.342966   2.644227   4.643762   2.162151
                   41         42         43         44         45
    41  C    0.000000
    42  H    2.179735   0.000000
    43  H    2.183969   1.769004   0.000000
    44  H    1.095691   2.514530   2.530787   0.000000
    45  H    1.094935   3.087093   2.524685   1.775414   0.000000
    46  H    1.093707   2.531691   3.088302   1.778787   1.776581
                   46
    46  H    0.000000
 Stoichiometry    C17H22Cl3FeO3(6)
 Framework group  C1[X(C17H22Cl3FeO3)]
 Deg. of freedom   132
 Full point group                 C1      NOp   1
 Largest Abelian subgroup         C1      NOp   1
 Largest concise Abelian subgroup C1      NOp   1
                         Standard orientation:                         
 ---------------------------------------------------------------------
 Center     Atomic      Atomic             Coordinates (Angstroms)
 Number     Number       Type             X           Y           Z
 ---------------------------------------------------------------------
      1          6           0        2.118588   -1.735702    1.710196
      2          6           0        1.355833   -0.761686    1.051851
      3          6           0        1.308236    0.529334    1.595467
      4          6           0        1.986880    0.829896    2.775307
      5          6           0        2.737208   -0.149445    3.427269
      6          6           0        2.804859   -1.432474    2.887459
      7          6           0        0.638483   -1.059695   -0.265067
      8          6           0        1.556490   -0.738372   -1.515351
      9          6           0        2.321546   -2.044442   -1.747772
     10          6           0        1.295944   -3.158037   -1.434973
     11          6           0        0.269670   -2.499764   -0.465526
     12          6           0       -1.164136   -2.407030   -0.972013
     13          6           0       -1.520541   -2.203157   -2.391829
     14          8           0       -0.619363   -0.357885   -0.385305
     15         26           0       -1.949469    0.753695    0.340030
     16         17           0       -3.633785    0.436262   -1.097058
     17          6           0       -2.243531   -2.824486   -0.053184
     18         17           0       -1.392707    2.882583    0.439617
     19         17           0       -2.503704   -0.066819    2.324652
     20          1           0        0.740127    1.308985    1.101164
     21          1           0        1.921279    1.833745    3.184964
     22          1           0        3.263519    0.085597    4.348055
     23          1           0        3.388090   -2.204741    3.381440
     24          1           0        2.193731   -2.744725    1.313670
     25          1           0        0.871895   -0.526696   -2.342941
     26          6           0        2.469598    0.468627   -1.363378
     27          1           0        2.724865   -2.115295   -2.762213
     28          1           0        3.171989   -2.084762   -1.061255
     29          1           0        0.808554   -3.511677   -2.349601
     30          1           0        1.761337   -4.034221   -0.973862
     31          1           0        0.232135   -3.031530    0.489031
     32          1           0       -2.204963   -3.929213   -0.039406
     33          1           0       -2.064048   -2.488359    0.972469
     34          1           0       -3.234432   -2.511623   -0.388314
     35          1           0       -1.969918   -3.137244   -2.765363
     36          1           0       -2.310445   -1.441252   -2.443749
     37          1           0       -0.684184   -1.926862   -3.031779
     38          8           0        1.796305    1.608356   -1.591459
     39          8           0        3.648905    0.408578   -1.087527
     40          6           0        2.548357    2.842732   -1.447031
     41          6           0        1.659982    3.977088   -1.918366
     42          1           0        2.830217    2.947720   -0.394492
     43          1           0        3.468003    2.757450   -2.033517
     44          1           0        2.189519    4.929417   -1.803478
     45          1           0        1.398175    3.854901   -2.974496
     46          1           0        0.736517    4.017165   -1.333728
 ---------------------------------------------------------------------
 Rotational constants (GHZ):           0.2022925           0.1594772           0.1448294
 Leave Link  202 at Sat Jun 19 21:33:37 2021, MaxMem=  2147483648 cpu:               0.1 elap:               0.0
 (Enter /SFS/product/gaussian/g16.a03/x86_64/avx/g16/l301.exe)
 Standard basis: Jul-CC-pVDZ (5D, 7F)
 Ernie: Thresh=  0.10000D-02 Tol=  0.10000D-05 Strict=F.
 Ernie:  134 primitive shells out of 958 were deleted.
 There are   766 symmetry adapted cartesian basis functions of A   symmetry.
 There are   710 symmetry adapted basis functions of A   symmetry.
   710 basis functions,  1571 primitive gaussians,   766 cartesian basis functions
   115 alpha electrons      110 beta electrons
       nuclear repulsion energy      3357.9403672659 Hartrees.
 IExCor=  402 DFT=T Ex+Corr=B3LYP ExCW=0 ScaHFX=  0.200000
 ScaDFX=  0.800000  0.720000  1.000000  0.810000 ScalE2=  1.000000  1.000000
 IRadAn=      5 IRanWt=     -1 IRanGd=            0 ICorTp=0 IEmpDi=  4
 NAtoms=   46 NActive=   46 NUniq=   46 SFac= 1.00D+00 NAtFMM=   60 NAOKFM=F Big=F
 Integral buffers will be    131072 words long.
 Raffenetti 2 integral format.
 Two-electron integral symmetry is turned on.
 Leave Link  301 at Sat Jun 19 21:33:37 2021, MaxMem=  2147483648 cpu:               1.3 elap:               0.1
 (Enter /SFS/product/gaussian/g16.a03/x86_64/avx/g16/l302.exe)
 NPDir=0 NMtPBC=     1 NCelOv=     1 NCel=       1 NClECP=     1 NCelD=      1
         NCelK=      1 NCelE2=     1 NClLst=     1 CellRange=     0.0.
 One-electron integrals computed using PRISM.
 One-electron integral symmetry used in STVInt
 NBasis=   710 RedAO= T EigKep=  1.39D-06  NBF=   710
 NBsUse=   710 1.00D-06 EigRej= -1.00D+00 NBFU=   710
 Precomputing XC quadrature grid using
 IXCGrd= 4 IRadAn=           5 IRanWt=          -1 IRanGd=           0 AccXCQ= 0.00D+00.
 Generated NRdTot=       0 NPtTot=           0 NUsed=           0 NTot=          32
 NSgBfM=   764   764   764   764   764 MxSgAt=    46 MxSgA2=    46.
 Leave Link  302 at Sat Jun 19 21:33:38 2021, MaxMem=  2147483648 cpu:              20.8 elap:               1.3
 (Enter /SFS/product/gaussian/g16.a03/x86_64/avx/g16/l303.exe)
 DipDrv:  MaxL=1.
 Leave Link  303 at Sat Jun 19 21:33:39 2021, MaxMem=  2147483648 cpu:               3.2 elap:               0.2
 (Enter /SFS/product/gaussian/g16.a03/x86_64/avx/g16/l401.exe)
 ExpMin= 1.40D-02 ExpMax= 4.32D+06 ExpMxC= 4.91D+03 IAcc=3 IRadAn=         5 AccDes= 0.00D+00
 Harris functional with IExCor=  402 and IRadAn=       5 diagonalized for initial guess.
 HarFok:  IExCor=  402 AccDes= 0.00D+00 IRadAn=         5 IDoV= 1 UseB2=F ITyADJ=14
 ICtDFT=  3500011 ScaDFX=  1.000000  1.000000  1.000000  1.000000
 FoFCou: FMM=F IPFlag=           0 FMFlag=      100000 FMFlg1=           0
         NFxFlg=           0 DoJE=T BraDBF=F KetDBF=T FulRan=T
         wScrn=  0.000000 ICntrl=       500 IOpCl=  0 I1Cent=   200000004 NGrid=           0
         NMat0=    1 NMatS0=      1 NMatT0=    0 NMatD0=    1 NMtDS0=    0 NMtDT0=    0
 Petite list used in FoFCou.
 Harris En= -3531.07555388546    
 JPrj=0 DoOrth=F DoCkMO=F.
 Initial guess <Sx>= 0.0000 <Sy>= 0.0000 <Sz>= 2.5000 <S**2>= 8.7500 S= 2.5000
 Leave Link  401 at Sat Jun 19 21:33:46 2021, MaxMem=  2147483648 cpu:             119.8 elap:               7.5
 (Enter /SFS/product/gaussian/g16.a03/x86_64/avx/g16/l502.exe)
 Integral symmetry usage will be decided dynamically.
 UHF open shell SCF:
 Using DIIS extrapolation, IDIIS=  1040.
 NGot=  2147483648 LenX=  2146290678 LenY=  2145703156
 Requested convergence on RMS density matrix=1.00D-08 within 128 cycles.
 Requested convergence on MAX density matrix=1.00D-06.
 Requested convergence on             energy=1.00D-06.
 No special actions if energy rises.
 Fock matrices will be formed incrementally for  20 cycles.

 Cycle   1  Pass 1  IDiag  1:
 FoFJK:  IHMeth= 1 ICntrl=       0 DoSepK=F KAlg= 0 I1Cent=           0 FoldK=F
 IRaf= 920000000 NMat=       1 IRICut=       1 DoRegI=T DoRafI=F ISym2E= 0 IDoP0=0 IntGTp=1.
 FoFCou: FMM=F IPFlag=           0 FMFlag=      100000 FMFlg1=           0
         NFxFlg=           0 DoJE=F BraDBF=F KetDBF=F FulRan=T
         wScrn=  0.000000 ICntrl=         0 IOpCl=  1 I1Cent=           0 NGrid=           0
         NMat0=    1 NMatS0=      1 NMatT0=    0 NMatD0=    1 NMtDS0=    0 NMtDT0=    0
 Symmetry not used in FoFCou.
 E= -3530.35447991266    
 DIIS: error= 1.75D-02 at cycle   1 NSaved=   1.
 NSaved= 1 IEnMin= 1 EnMin= -3530.35447991266     IErMin= 1 ErrMin= 1.75D-02
 ErrMax= 1.75D-02  0.00D+00 EMaxC= 1.00D-01 BMatC= 4.61D+00 BMatP= 4.61D+00
 IDIUse=3 WtCom= 8.25D-01 WtEn= 1.75D-01
 Coeff-Com:  0.100D+01
 Coeff-En:   0.100D+01
 Coeff:      0.100D+01
 Gap=     0.074 Goal=   None    Shift=    0.000
 Gap=    -0.102 Goal=   None    Shift=    0.000
 GapD=   -0.102 DampG=0.250 DampE=0.250 DampFc=0.1250 IDamp=-1.
 Damping current iteration by 1.25D-01
 RMSDP=4.00D-02 MaxDP=1.51D+01              OVMax= 8.09D-01

 Cycle   2  Pass 1  IDiag  1:
 RMSU=  2.19D-03    CP:  9.49D-01
 E= -3530.67933634314     Delta-E=       -0.324856430476 Rises=F Damp=T
 DIIS: error= 9.53D-03 at cycle   2 NSaved=   2.
 NSaved= 2 IEnMin= 2 EnMin= -3530.67933634314     IErMin= 2 ErrMin= 9.53D-03
 ErrMax= 9.53D-03  0.00D+00 EMaxC= 1.00D-01 BMatC= 1.22D+00 BMatP= 4.61D+00
 IDIUse=3 WtCom= 9.05D-01 WtEn= 9.53D-02
 Coeff-Com: -0.436D+00 0.144D+01
 Coeff-En:   0.000D+00 0.100D+01
 Coeff:     -0.395D+00 0.139D+01
 Gap=     0.432 Goal=   None    Shift=    0.000
 Gap=    -0.063 Goal=   None    Shift=    0.000
 RMSDP=3.20D-02 MaxDP=1.15D+01 DE=-3.25D-01 OVMax= 9.38D-01

 Cycle   3  Pass 1  IDiag  1:
 RMSU=  8.34D-03    CP:  6.06D-01  2.86D+00
 E= -3530.23151276374     Delta-E=        0.447823579399 Rises=F Damp=F
 DIIS: error= 2.64D-02 at cycle   3 NSaved=   3.
 NSaved= 3 IEnMin= 2 EnMin= -3530.67933634314     IErMin= 2 ErrMin= 9.53D-03
 ErrMax= 2.64D-02  0.00D+00 EMaxC= 1.00D-01 BMatC= 5.26D+00 BMatP= 1.22D+00
 IDIUse=2 WtCom= 0.00D+00 WtEn= 1.00D+00
 Coeff-En:   0.000D+00 0.700D+00 0.300D+00
 Coeff:      0.000D+00 0.700D+00 0.300D+00
 Gap=    -0.300 Goal=   None    Shift=    0.000
 Gap=     0.256 Goal=   None    Shift=    0.000
 RMSDP=9.37D-03 MaxDP=1.90D+00 DE= 4.48D-01 OVMax= 8.22D-01

 Cycle   4  Pass 1  IDiag  1:
 RMSU=  6.67D-03    CP:  6.02D-01  3.00D+00  2.36D-01
 E= -3521.76647018433     Delta-E=        8.465042579413 Rises=F Damp=F
 DIIS: error= 7.66D-02 at cycle   4 NSaved=   4.
 NSaved= 4 IEnMin= 2 EnMin= -3530.67933634314     IErMin= 2 ErrMin= 9.53D-03
 ErrMax= 7.66D-02  0.00D+00 EMaxC= 1.00D-01 BMatC= 4.83D+01 BMatP= 1.22D+00
 IDIUse=2 WtCom= 0.00D+00 WtEn= 1.00D+00
 EnCoef did   100 forward-backward iterations
 Coeff-En:   0.317D+00 0.398D-01 0.469D+00 0.174D+00
 Coeff:      0.317D+00 0.398D-01 0.469D+00 0.174D+00
 Gap=     0.163 Goal=   None    Shift=    0.000
 Gap=     0.047 Goal=   None    Shift=    0.000
 RMSDP=6.19D-03 MaxDP=9.24D-01 DE= 8.47D+00 OVMax= 9.68D-01

 Cycle   5  Pass 1  IDiag  1:
 RMSU=  5.28D-03    CP:  6.23D-01  3.00D+00  4.10D-01  6.83D-01
 E= -3530.11435799186     Delta-E=       -8.347887807533 Rises=F Damp=F
 DIIS: error= 5.41D-02 at cycle   5 NSaved=   5.
 NSaved= 5 IEnMin= 2 EnMin= -3530.67933634314     IErMin= 2 ErrMin= 9.53D-03
 ErrMax= 5.41D-02  0.00D+00 EMaxC= 1.00D-01 BMatC= 8.64D+00 BMatP= 1.22D+00
 IDIUse=2 WtCom= 0.00D+00 WtEn= 1.00D+00
 Coeff-En:   0.000D+00 0.000D+00 0.515D+00 0.000D+00 0.485D+00
 Coeff:      0.000D+00 0.000D+00 0.515D+00 0.000D+00 0.485D+00
 Gap=     0.109 Goal=   None    Shift=    0.000
 Gap=     0.127 Goal=   None    Shift=    0.000
 RMSDP=5.07D-03 MaxDP=1.35D+00 DE=-8.35D+00 OVMax= 4.37D-01

 Cycle   6  Pass 1  IDiag  1:
 RMSU=  3.80D-03    CP:  6.48D-01  2.84D+00  4.54D-01  4.49D-01  6.54D-01
 E= -3531.25133804913     Delta-E=       -1.136980057273 Rises=F Damp=F
 DIIS: error= 6.28D-03 at cycle   6 NSaved=   6.
 NSaved= 6 IEnMin= 6 EnMin= -3531.25133804913     IErMin= 6 ErrMin= 6.28D-03
 ErrMax= 6.28D-03  0.00D+00 EMaxC= 1.00D-01 BMatC= 6.42D-01 BMatP= 1.22D+00
 IDIUse=3 WtCom= 9.37D-01 WtEn= 6.28D-02
 Coeff-Com: -0.430D+00 0.786D+00 0.268D+00-0.549D-02 0.876D-01 0.294D+00
 Coeff-En:   0.000D+00 0.000D+00 0.000D+00 0.000D+00 0.128D+00 0.872D+00
 Coeff:     -0.403D+00 0.737D+00 0.251D+00-0.515D-02 0.901D-01 0.330D+00
 Gap=     0.117 Goal=   None    Shift=    0.000
 Gap=     0.134 Goal=   None    Shift=    0.000
 RMSDP=3.87D-03 MaxDP=1.04D+00 DE=-1.14D+00 OVMax= 1.79D-01

 Cycle   7  Pass 1  IDiag  1:
 RMSU=  1.70D-03    CP:  6.24D-01  2.96D+00  4.92D-01  5.08D-01  8.09D-01
                    CP:  3.28D-01
 E= -3531.30144403028     Delta-E=       -0.050105981150 Rises=F Damp=F
 DIIS: error= 7.80D-03 at cycle   7 NSaved=   7.
 NSaved= 7 IEnMin= 7 EnMin= -3531.30144403028     IErMin= 6 ErrMin= 6.28D-03
 ErrMax= 7.80D-03  0.00D+00 EMaxC= 1.00D-01 BMatC= 4.59D-01 BMatP= 6.42D-01
 IDIUse=3 WtCom= 9.37D-01 WtEn= 6.28D-02
 Coeff-Com: -0.223D+00 0.332D+00 0.961D-01 0.743D-02-0.933D-01 0.295D+00
 Coeff-Com:  0.586D+00
 Coeff-En:   0.000D+00 0.000D+00 0.000D+00 0.000D+00 0.000D+00 0.415D+00
 Coeff-En:   0.585D+00
 Coeff:     -0.209D+00 0.311D+00 0.901D-01 0.696D-02-0.874D-01 0.303D+00
 Coeff:      0.586D+00
 Gap=     0.077 Goal=   None    Shift=    0.000
 Gap=     0.144 Goal=   None    Shift=    0.000
 RMSDP=1.50D-03 MaxDP=2.00D-01 DE=-5.01D-02 OVMax= 1.07D-01

 Cycle   8  Pass 1  IDiag  1:
 RMSU=  1.10D-03    CP:  6.25D-01  2.83D+00  4.96D-01  4.82D-01  7.33D-01
                    CP:  5.55D-01  9.54D-01
 E= -3531.39595135647     Delta-E=       -0.094507326185 Rises=F Damp=F
 DIIS: error= 1.60D-03 at cycle   8 NSaved=   8.
 NSaved= 8 IEnMin= 8 EnMin= -3531.39595135647     IErMin= 8 ErrMin= 1.60D-03
 ErrMax= 1.60D-03  0.00D+00 EMaxC= 1.00D-01 BMatC= 3.86D-02 BMatP= 4.59D-01
 IDIUse=3 WtCom= 9.84D-01 WtEn= 1.60D-02
 Coeff-Com: -0.976D-01 0.131D+00 0.239D-01 0.744D-02-0.579D-01 0.153D+00
 Coeff-Com:  0.357D+00 0.482D+00
 Coeff-En:   0.000D+00 0.000D+00 0.000D+00 0.000D+00 0.000D+00 0.000D+00
 Coeff-En:   0.296D-01 0.970D+00
 Coeff:     -0.961D-01 0.129D+00 0.235D-01 0.732D-02-0.570D-01 0.151D+00
 Coeff:      0.352D+00 0.490D+00
 Gap=     0.109 Goal=   None    Shift=    0.000
 Gap=     0.126 Goal=   None    Shift=    0.000
 RMSDP=6.48D-04 MaxDP=1.13D-01 DE=-9.45D-02 OVMax= 3.03D-02

 Cycle   9  Pass 1  IDiag  1:
 RMSU=  5.32D-04    CP:  6.24D-01  2.83D+00  4.83D-01  4.77D-01  6.97D-01
                    CP:  6.00D-01  1.04D+00  8.50D-01
 E= -3531.40278533130     Delta-E=       -0.006833974831 Rises=F Damp=F
 DIIS: error= 1.48D-03 at cycle   9 NSaved=   9.
 NSaved= 9 IEnMin= 9 EnMin= -3531.40278533130     IErMin= 9 ErrMin= 1.48D-03
 ErrMax= 1.48D-03  0.00D+00 EMaxC= 1.00D-01 BMatC= 1.79D-02 BMatP= 3.86D-02
 IDIUse=3 WtCom= 9.85D-01 WtEn= 1.48D-02
 Coeff-Com: -0.422D-01 0.525D-01-0.725D-02 0.353D-02 0.847D-02 0.495D-03
 Coeff-Com:  0.148D-01 0.203D+00 0.767D+00
 Coeff-En:   0.000D+00 0.000D+00 0.000D+00 0.000D+00 0.000D+00 0.000D+00
 Coeff-En:   0.000D+00 0.000D+00 0.100D+01
 Coeff:     -0.416D-01 0.518D-01-0.714D-02 0.348D-02 0.835D-02 0.488D-03
 Coeff:      0.146D-01 0.200D+00 0.770D+00
 Gap=     0.119 Goal=   None    Shift=    0.000
 Gap=     0.116 Goal=   None    Shift=    0.000
 RMSDP=3.60D-04 MaxDP=1.01D-01 DE=-6.83D-03 OVMax= 1.40D-02

 Cycle  10  Pass 1  IDiag  1:
 RMSU=  2.85D-04    CP:  6.25D-01  2.84D+00  4.71D-01  4.83D-01  7.05D-01
                    CP:  6.02D-01  1.06D+00  8.95D-01  1.20D+00
 E= -3531.40537740391     Delta-E=       -0.002592072611 Rises=F Damp=F
 DIIS: error= 5.63D-04 at cycle  10 NSaved=  10.
 NSaved=10 IEnMin=10 EnMin= -3531.40537740391     IErMin=10 ErrMin= 5.63D-04
 ErrMax= 5.63D-04  0.00D+00 EMaxC= 1.00D-01 BMatC= 3.28D-03 BMatP= 1.79D-02
 IDIUse=3 WtCom= 9.94D-01 WtEn= 5.63D-03
 Coeff-Com: -0.567D-02 0.497D-02-0.114D-01 0.867D-03 0.170D-01-0.314D-01
 Coeff-Com: -0.458D-01-0.153D-01 0.341D+00 0.746D+00
 Coeff-En:   0.000D+00 0.000D+00 0.000D+00 0.000D+00 0.000D+00 0.000D+00
 Coeff-En:   0.000D+00 0.000D+00 0.000D+00 0.100D+01
 Coeff:     -0.564D-02 0.494D-02-0.114D-01 0.862D-03 0.169D-01-0.312D-01
 Coeff:     -0.456D-01-0.153D-01 0.339D+00 0.747D+00
 Gap=     0.118 Goal=   None    Shift=    0.000
 Gap=     0.114 Goal=   None    Shift=    0.000
 RMSDP=2.37D-04 MaxDP=7.92D-02 DE=-2.59D-03 OVMax= 9.68D-03

 Cycle  11  Pass 1  IDiag  1:
 RMSU=  1.45D-04    CP:  6.24D-01  2.86D+00  4.63D-01  4.84D-01  7.06D-01
                    CP:  6.05D-01  1.06D+00  9.67D-01  1.39D+00  9.78D-01
 E= -3531.40576820795     Delta-E=       -0.000390804035 Rises=F Damp=F
 DIIS: error= 3.05D-04 at cycle  11 NSaved=  11.
 NSaved=11 IEnMin=11 EnMin= -3531.40576820795     IErMin=11 ErrMin= 3.05D-04
 ErrMax= 3.05D-04  0.00D+00 EMaxC= 1.00D-01 BMatC= 1.44D-03 BMatP= 3.28D-03
 IDIUse=3 WtCom= 9.97D-01 WtEn= 3.05D-03
 Coeff-Com:  0.222D-02-0.302D-02-0.326D-02 0.198D-03 0.373D-02-0.924D-02
 Coeff-Com:  0.209D-02-0.595D-01-0.679D-01 0.568D+00 0.566D+00
 Coeff-En:   0.000D+00 0.000D+00 0.000D+00 0.000D+00 0.000D+00 0.000D+00
 Coeff-En:   0.000D+00 0.000D+00 0.000D+00 0.210D+00 0.790D+00
 Coeff:      0.221D-02-0.302D-02-0.325D-02 0.197D-03 0.372D-02-0.922D-02
 Coeff:      0.208D-02-0.593D-01-0.677D-01 0.567D+00 0.567D+00
 Gap=     0.118 Goal=   None    Shift=    0.000
 Gap=     0.114 Goal=   None    Shift=    0.000
 RMSDP=1.04D-04 MaxDP=2.94D-02 DE=-3.91D-04 OVMax= 5.43D-03

 Cycle  12  Pass 1  IDiag  1:
 RMSU=  7.10D-05    CP:  6.25D-01  2.86D+00  4.63D-01  4.85D-01  7.05D-01
                    CP:  6.03D-01  1.07D+00  9.40D-01  1.41D+00  1.09D+00
                    CP:  8.17D-01
 E= -3531.40601977167     Delta-E=       -0.000251563720 Rises=F Damp=F
 DIIS: error= 1.28D-04 at cycle  12 NSaved=  12.
 NSaved=12 IEnMin=12 EnMin= -3531.40601977167     IErMin=12 ErrMin= 1.28D-04
 ErrMax= 1.28D-04  0.00D+00 EMaxC= 1.00D-01 BMatC= 1.93D-04 BMatP= 1.44D-03
 IDIUse=3 WtCom= 9.99D-01 WtEn= 1.28D-03
 Coeff-Com:  0.190D-03 0.438D-03-0.189D-03 0.854D-04-0.143D-02 0.783D-03
 Coeff-Com:  0.172D-01-0.276D-01-0.928D-01 0.263D+00 0.374D+00 0.466D+00
 Coeff-En:   0.000D+00 0.000D+00 0.000D+00 0.000D+00 0.000D+00 0.000D+00
 Coeff-En:   0.000D+00 0.000D+00 0.000D+00 0.000D+00 0.489D-01 0.951D+00
 Coeff:      0.190D-03 0.437D-03-0.188D-03 0.853D-04-0.142D-02 0.782D-03
 Coeff:      0.171D-01-0.276D-01-0.927D-01 0.263D+00 0.373D+00 0.467D+00
 Gap=     0.118 Goal=   None    Shift=    0.000
 Gap=     0.114 Goal=   None    Shift=    0.000
 RMSDP=4.27D-05 MaxDP=1.23D-02 DE=-2.52D-04 OVMax= 1.83D-03

 Cycle  13  Pass 1  IDiag  1:
 RMSU=  2.39D-05    CP:  6.25D-01  2.86D+00  4.63D-01  4.85D-01  7.06D-01
                    CP:  6.01D-01  1.07D+00  9.24D-01  1.41D+00  1.13D+00
                    CP:  7.93D-01  6.88D-01
 E= -3531.40606452179     Delta-E=       -0.000044750123 Rises=F Damp=F
 DIIS: error= 2.31D-05 at cycle  13 NSaved=  13.
 NSaved=13 IEnMin=13 EnMin= -3531.40606452179     IErMin=13 ErrMin= 2.31D-05
 ErrMax= 2.31D-05  0.00D+00 EMaxC= 1.00D-01 BMatC= 1.00D-05 BMatP= 1.93D-04
 IDIUse=1 WtCom= 1.00D+00 WtEn= 0.00D+00
 Coeff-Com:  0.530D-03-0.618D-03 0.948D-06 0.215D-04-0.727D-03 0.120D-02
 Coeff-Com:  0.694D-02-0.757D-02-0.348D-01 0.730D-01 0.123D+00 0.223D+00
 Coeff-Com:  0.616D+00
 Coeff:      0.530D-03-0.618D-03 0.948D-06 0.215D-04-0.727D-03 0.120D-02
 Coeff:      0.694D-02-0.757D-02-0.348D-01 0.730D-01 0.123D+00 0.223D+00
 Coeff:      0.616D+00
 Gap=     0.118 Goal=   None    Shift=    0.000
 Gap=     0.114 Goal=   None    Shift=    0.000
 RMSDP=1.61D-05 MaxDP=2.23D-03 DE=-4.48D-05 OVMax= 7.85D-04

 Cycle  14  Pass 1  IDiag  1:
 RMSU=  1.18D-05    CP:  6.25D-01  2.86D+00  4.63D-01  4.85D-01  7.06D-01
                    CP:  6.02D-01  1.07D+00  9.28D-01  1.41D+00  1.15D+00
                    CP:  8.24D-01  6.81D-01  9.53D-01
 E= -3531.40606807444     Delta-E=       -0.000003552649 Rises=F Damp=F
 DIIS: error= 1.37D-05 at cycle  14 NSaved=  14.
 NSaved=14 IEnMin=14 EnMin= -3531.40606807444     IErMin=14 ErrMin= 1.37D-05
 ErrMax= 1.37D-05  0.00D+00 EMaxC= 1.00D-01 BMatC= 3.68D-06 BMatP= 1.00D-05
 IDIUse=1 WtCom= 1.00D+00 WtEn= 0.00D+00
 Coeff-Com:  0.973D-04-0.148D-03 0.514D-04-0.329D-04 0.149D-03-0.361D-03
 Coeff-Com: -0.308D-02 0.501D-02 0.157D-01-0.455D-01-0.592D-01-0.377D-01
 Coeff-Com:  0.348D+00 0.777D+00
 Coeff:      0.973D-04-0.148D-03 0.514D-04-0.329D-04 0.149D-03-0.361D-03
 Coeff:     -0.308D-02 0.501D-02 0.157D-01-0.455D-01-0.592D-01-0.377D-01
 Coeff:      0.348D+00 0.777D+00
 Gap=     0.118 Goal=   None    Shift=    0.000
 Gap=     0.114 Goal=   None    Shift=    0.000
 RMSDP=9.47D-06 MaxDP=8.10D-04 DE=-3.55D-06 OVMax= 8.20D-04

 Cycle  15  Pass 1  IDiag  1:
 RMSU=  7.12D-06    CP:  6.25D-01  2.86D+00  4.63D-01  4.85D-01  7.06D-01
                    CP:  6.02D-01  1.07D+00  9.28D-01  1.41D+00  1.15D+00
                    CP:  8.20D-01  7.17D-01  1.11D+00  1.25D+00
 E= -3531.40607021394     Delta-E=       -0.000002139504 Rises=F Damp=F
 DIIS: error= 9.63D-06 at cycle  15 NSaved=  15.
 NSaved=15 IEnMin=15 EnMin= -3531.40607021394     IErMin=15 ErrMin= 9.63D-06
 ErrMax= 9.63D-06  0.00D+00 EMaxC= 1.00D-01 BMatC= 1.11D-06 BMatP= 3.68D-06
 IDIUse=1 WtCom= 1.00D+00 WtEn= 0.00D+00
 Coeff-Com:  0.923D-04-0.177D-03 0.321D-05-0.251D-04 0.330D-03-0.604D-03
 Coeff-Com: -0.385D-02 0.463D-02 0.192D-01-0.429D-01-0.640D-01-0.814D-01
 Coeff-Com:  0.183D-01 0.413D+00 0.737D+00
 Coeff:      0.923D-04-0.177D-03 0.321D-05-0.251D-04 0.330D-03-0.604D-03
 Coeff:     -0.385D-02 0.463D-02 0.192D-01-0.429D-01-0.640D-01-0.814D-01
 Coeff:      0.183D-01 0.413D+00 0.737D+00
 Gap=     0.118 Goal=   None    Shift=    0.000
 Gap=     0.113 Goal=   None    Shift=    0.000
 RMSDP=6.73D-06 MaxDP=7.78D-04 DE=-2.14D-06 OVMax= 5.48D-04

 Cycle  16  Pass 1  IDiag  1:
 RMSU=  4.89D-06    CP:  6.25D-01  2.86D+00  4.63D-01  4.85D-01  7.06D-01
                    CP:  6.02D-01  1.07D+00  9.29D-01  1.41D+00  1.15D+00
                    CP:  8.20D-01  7.26D-01  1.23D+00  1.41D+00  1.03D+00
 E= -3531.40607092058     Delta-E=       -0.000000706642 Rises=F Damp=F
 DIIS: error= 5.21D-06 at cycle  16 NSaved=  16.
 NSaved=16 IEnMin=16 EnMin= -3531.40607092058     IErMin=16 ErrMin= 5.21D-06
 ErrMax= 5.21D-06  0.00D+00 EMaxC= 1.00D-01 BMatC= 2.85D-07 BMatP= 1.11D-06
 IDIUse=1 WtCom= 1.00D+00 WtEn= 0.00D+00
 Coeff-Com: -0.106D-03 0.195D-03 0.319D-04-0.634D-05 0.846D-04-0.284D-03
 Coeff-Com: -0.861D-03 0.745D-03 0.522D-02-0.653D-02-0.128D-01-0.328D-01
 Coeff-Com: -0.127D+00-0.699D-01 0.423D+00 0.821D+00
 Coeff:     -0.106D-03 0.195D-03 0.319D-04-0.634D-05 0.846D-04-0.284D-03
 Coeff:     -0.861D-03 0.745D-03 0.522D-02-0.653D-02-0.128D-01-0.328D-01
 Coeff:     -0.127D+00-0.699D-01 0.423D+00 0.821D+00
 Gap=     0.118 Goal=   None    Shift=    0.000
 Gap=     0.113 Goal=   None    Shift=    0.000
 RMSDP=4.16D-06 MaxDP=7.14D-04 DE=-7.07D-07 OVMax= 4.09D-04

 Cycle  17  Pass 1  IDiag  1:
 RMSU=  2.06D-06    CP:  6.25D-01  2.86D+00  4.63D-01  4.85D-01  7.06D-01
                    CP:  6.02D-01  1.07D+00  9.30D-01  1.41D+00  1.15D+00
                    CP:  8.25D-01  7.40D-01  1.29D+00  1.58D+00  1.30D+00
                    CP:  9.53D-01
 E= -3531.40607113743     Delta-E=       -0.000000216844 Rises=F Damp=F
 DIIS: error= 1.19D-06 at cycle  17 NSaved=  17.
 NSaved=17 IEnMin=17 EnMin= -3531.40607113743     IErMin=17 ErrMin= 1.19D-06
 ErrMax= 1.19D-06  0.00D+00 EMaxC= 1.00D-01 BMatC= 3.50D-08 BMatP= 2.85D-07
 IDIUse=1 WtCom= 1.00D+00 WtEn= 0.00D+00
 Coeff-Com: -0.551D-05 0.272D-04-0.514D-05 0.643D-06 0.272D-05-0.600D-04
 Coeff-Com:  0.154D-03-0.559D-03-0.695D-03 0.409D-02 0.533D-02-0.843D-03
 Coeff-Com: -0.559D-01-0.104D+00 0.596D-01 0.355D+00 0.737D+00
 Coeff:     -0.551D-05 0.272D-04-0.514D-05 0.643D-06 0.272D-05-0.600D-04
 Coeff:      0.154D-03-0.559D-03-0.695D-03 0.409D-02 0.533D-02-0.843D-03
 Coeff:     -0.559D-01-0.104D+00 0.596D-01 0.355D+00 0.737D+00
 Gap=     0.118 Goal=   None    Shift=    0.000
 Gap=     0.113 Goal=   None    Shift=    0.000
 RMSDP=1.44D-06 MaxDP=3.39D-04 DE=-2.17D-07 OVMax= 1.36D-04

 Cycle  18  Pass 1  IDiag  1:
 RMSU=  7.65D-07    CP:  6.25D-01  2.86D+00  4.63D-01  4.85D-01  7.06D-01
                    CP:  6.02D-01  1.07D+00  9.30D-01  1.41D+00  1.15D+00
                    CP:  8.25D-01  7.38D-01  1.31D+00  1.61D+00  1.39D+00
                    CP:  1.09D+00  9.34D-01
 E= -3531.40607115883     Delta-E=       -0.000000021402 Rises=F Damp=F
 DIIS: error= 5.97D-07 at cycle  18 NSaved=  18.
 NSaved=18 IEnMin=18 EnMin= -3531.40607115883     IErMin=18 ErrMin= 5.97D-07
 ErrMax= 5.97D-07  0.00D+00 EMaxC= 1.00D-01 BMatC= 7.27D-09 BMatP= 3.50D-08
 IDIUse=1 WtCom= 1.00D+00 WtEn= 0.00D+00
 Coeff-Com:  0.110D-04-0.155D-04-0.244D-05 0.213D-05-0.177D-04 0.510D-04
 Coeff-Com:  0.283D-03-0.428D-03-0.133D-02 0.330D-02 0.515D-02 0.517D-02
 Coeff-Com: -0.103D-01-0.452D-01-0.336D-01 0.647D-01 0.373D+00 0.639D+00
 Coeff:      0.110D-04-0.155D-04-0.244D-05 0.213D-05-0.177D-04 0.510D-04
 Coeff:      0.283D-03-0.428D-03-0.133D-02 0.330D-02 0.515D-02 0.517D-02
 Coeff:     -0.103D-01-0.452D-01-0.336D-01 0.647D-01 0.373D+00 0.639D+00
 Gap=     0.118 Goal=   None    Shift=    0.000
 Gap=     0.113 Goal=   None    Shift=    0.000
 RMSDP=4.49D-07 MaxDP=6.36D-05 DE=-2.14D-08 OVMax= 3.78D-05

 Cycle  19  Pass 1  IDiag  1:
 RMSU=  3.26D-07    CP:  6.25D-01  2.86D+00  4.63D-01  4.85D-01  7.06D-01
                    CP:  6.02D-01  1.07D+00  9.30D-01  1.41D+00  1.15D+00
                    CP:  8.25D-01  7.39D-01  1.31D+00  1.62D+00  1.40D+00
                    CP:  1.11D+00  1.01D+00  8.71D-01
 E= -3531.40607116170     Delta-E=       -0.000000002870 Rises=F Damp=F
 DIIS: error= 4.02D-07 at cycle  19 NSaved=  19.
 NSaved=19 IEnMin=19 EnMin= -3531.40607116170     IErMin=19 ErrMin= 4.02D-07
 ErrMax= 4.02D-07  0.00D+00 EMaxC= 1.00D-01 BMatC= 1.65D-09 BMatP= 7.27D-09
 IDIUse=1 WtCom= 1.00D+00 WtEn= 0.00D+00
 Coeff-Com:  0.308D-05-0.790D-05-0.175D-05 0.433D-06-0.360D-05 0.205D-04
 Coeff-Com:  0.537D-04-0.450D-04-0.370D-03 0.200D-03 0.542D-03 0.186D-02
 Coeff-Com:  0.809D-02 0.666D-02-0.240D-01-0.513D-01-0.157D-01 0.201D+00
 Coeff-Com:  0.873D+00
 Coeff:      0.308D-05-0.790D-05-0.175D-05 0.433D-06-0.360D-05 0.205D-04
 Coeff:      0.537D-04-0.450D-04-0.370D-03 0.200D-03 0.542D-03 0.186D-02
 Coeff:      0.809D-02 0.666D-02-0.240D-01-0.513D-01-0.157D-01 0.201D+00
 Coeff:      0.873D+00
 Gap=     0.118 Goal=   None    Shift=    0.000
 Gap=     0.113 Goal=   None    Shift=    0.000
 RMSDP=2.25D-07 MaxDP=4.76D-05 DE=-2.87D-09 OVMax= 1.84D-05

[...]
    14   Atom       -0.212900      0.045732      0.167168
    15   Atom        0.055474     -0.062278      0.006804
    16   Atom        0.074491     -0.156037      0.081546
    17   Atom       -0.013077      0.026587     -0.013510
    18   Atom       -0.122595      0.241416     -0.118820
    19   Atom       -0.123643     -0.114441      0.238084
    20   Atom        0.043449     -0.022154     -0.021295
    21   Atom        0.004748     -0.004928      0.000180
    22   Atom        0.002019     -0.002390      0.000371
    23   Atom        0.001761     -0.000946     -0.000815
    24   Atom        0.002641      0.001133     -0.003774
    25   Atom        0.004114     -0.009350      0.005236
    26   Atom        0.010756     -0.006028     -0.004727
    27   Atom        0.001877     -0.001260     -0.000617
    28   Atom        0.004255     -0.001246     -0.003009
    29   Atom       -0.001429      0.002538     -0.001108
    30   Atom       -0.000068      0.002785     -0.002718
    31   Atom       -0.003549      0.011565     -0.008016
    32   Atom       -0.006534      0.013048     -0.006514
    33   Atom       -0.018521      0.034625     -0.016105
    34   Atom       -0.008901      0.021188     -0.012287
    35   Atom       -0.005453      0.004598      0.000855
    36   Atom       -0.012629      0.001024      0.011604
    37   Atom       -0.005934     -0.000394      0.006328
    38   Atom        0.010325     -0.006308     -0.004017
    39   Atom        0.004523     -0.003951     -0.000571
    40   Atom        0.005720     -0.002491     -0.003229
    41   Atom        0.002578     -0.000346     -0.002232
    42   Atom        0.006788     -0.002345     -0.004443
    43   Atom        0.003651     -0.001925     -0.001726
    44   Atom        0.001224      0.000730     -0.001954
    45   Atom        0.000432     -0.000539      0.000107
    46   Atom        0.001649      0.002561     -0.004209
 --------------------------------------------------------
                        XY            XZ            YZ
 --------------------------------------------------------
     1   Atom       -0.007463      0.004574     -0.003886
     2   Atom       -0.013938      0.013166     -0.002888
     3   Atom       -0.002803      0.016266     -0.000391
     4   Atom        0.000239      0.009011     -0.000164
     5   Atom       -0.001672      0.005213     -0.000983
     6   Atom       -0.003227      0.004271     -0.001752
     7   Atom       -0.051323     -0.004391      0.004026
     8   Atom       -0.007666     -0.020565      0.003688
     9   Atom       -0.006683     -0.004792      0.003386
    10   Atom       -0.007655     -0.004296      0.004958
    11   Atom       -0.016536     -0.003332      0.006380
    12   Atom       -0.008180     -0.003217      0.015770
    13   Atom       -0.003623     -0.002090      0.017080
    14   Atom        0.063776     -0.209978      0.074949
    15   Atom       -0.075069     -0.038052      0.098955
    16   Atom        0.075705      0.263112      0.045129
    17   Atom        0.004177      0.000336      0.004855
    18   Atom        0.102012      0.021939      0.015417
    19   Atom        0.070009     -0.104441     -0.165803
    20   Atom        0.013334      0.021206      0.005153
    21   Atom        0.002607      0.007915      0.001973
    22   Atom       -0.000668      0.003550     -0.000518
    23   Atom       -0.002382      0.002436     -0.001431
    24   Atom       -0.006349      0.001997     -0.001768
    25   Atom       -0.006217     -0.014883      0.005054
    26   Atom       -0.000198     -0.005889      0.000714
    27   Atom       -0.003058     -0.003474      0.001984
    28   Atom       -0.004298     -0.001880      0.001068
    29   Atom       -0.004107     -0.002496      0.004429
    30   Atom       -0.004492     -0.001215      0.001439
    31   Atom       -0.010691      0.000038     -0.001747
    32   Atom        0.001261      0.000070      0.001892
    33   Atom        0.002258     -0.001469     -0.008595
    34   Atom        0.013422      0.003526      0.008051
    35   Atom        0.000157      0.000197      0.008643
    36   Atom        0.000671      0.003551      0.021831
    37   Atom       -0.003832     -0.004782      0.011013
    38   Atom        0.004616     -0.009426     -0.001846
    39   Atom       -0.000303     -0.001785      0.004009
    40   Atom        0.004456     -0.003981     -0.001646
    41   Atom        0.005430     -0.004656     -0.003214
    42   Atom        0.004714     -0.001638     -0.000609
    43   Atom        0.002297     -0.002789     -0.000967
    44   Atom        0.003844     -0.002074     -0.001833
    45   Atom        0.003738     -0.004156     -0.003513
    46   Atom        0.009419     -0.006006     -0.005554
 --------------------------------------------------------


 ---------------------------------------------------------------------------------
              Anisotropic Spin Dipole Couplings in Principal Axis System
 ---------------------------------------------------------------------------------

       Atom             a.u.   MegaHertz   Gauss  10(-4) cm-1        Axes

              Baa    -0.0069    -0.919    -0.328    -0.307  0.3801  0.8334  0.4012
     1 C(13)  Bbb    -0.0052    -0.692    -0.247    -0.231 -0.5174 -0.1679  0.8391
              Bcc     0.0120     1.611     0.575     0.537  0.7667 -0.5265  0.3674
 
              Baa    -0.0174    -2.341    -0.835    -0.781  0.4534  0.8273 -0.3317
     2 C(13)  Bbb    -0.0109    -1.463    -0.522    -0.488 -0.1831  0.4506  0.8737
              Bcc     0.0283     3.804     1.357     1.269  0.8723 -0.3354  0.3558
 
              Baa    -0.0157    -2.111    -0.753    -0.704 -0.3387 -0.6370  0.6924
     3 C(13)  Bbb    -0.0142    -1.907    -0.681    -0.636 -0.2078  0.7684  0.6053
              Bcc     0.0299     4.018     1.434     1.340  0.9176 -0.0611  0.3927
 
              Baa    -0.0071    -0.957    -0.341    -0.319 -0.1819  0.9452  0.2712
     4 C(13)  Bbb    -0.0063    -0.840    -0.300    -0.280 -0.5127 -0.3265  0.7941
              Bcc     0.0134     1.797     0.641     0.599  0.8391  0.0054  0.5439
 
              Baa    -0.0040    -0.537    -0.192    -0.179  0.4316  0.8054 -0.4064
     5 C(13)  Bbb    -0.0038    -0.509    -0.182    -0.170 -0.3687  0.5686  0.7353
              Bcc     0.0078     1.046     0.373     0.349  0.8233 -0.1675  0.5424
 
              Baa    -0.0038    -0.516    -0.184    -0.172  0.5241  0.7790 -0.3442
     6 C(13)  Bbb    -0.0037    -0.496    -0.177    -0.165 -0.2416  0.5236  0.8170
              Bcc     0.0075     1.012     0.361     0.337  0.8167 -0.3450  0.4626
 
              Baa    -0.0378    -5.071    -1.809    -1.691 -0.2576 -0.4536  0.8531
     7 C(13)  Bbb    -0.0359    -4.822    -1.721    -1.608  0.5079  0.6876  0.5189
              Bcc     0.0737     9.893     3.530     3.300  0.8220 -0.5670 -0.0532
 
              Baa    -0.0166    -2.233    -0.797    -0.745  0.5260  0.5485  0.6500
     8 C(13)  Bbb    -0.0146    -1.962    -0.700    -0.655 -0.1645  0.8154 -0.5550
              Bcc     0.0313     4.195     1.497     1.399  0.8344 -0.1850 -0.5191
 
              Baa    -0.0058    -0.781    -0.279    -0.261  0.3892 -0.0931  0.9165
     9 C(13)  Bbb    -0.0053    -0.709    -0.253    -0.237  0.5342  0.8333 -0.1422
              Bcc     0.0111     1.490     0.532     0.497  0.7505 -0.5449 -0.3740
 
              Baa    -0.0064    -0.857    -0.306    -0.286  0.5466  0.0034  0.8374
    10 C(13)  Bbb    -0.0059    -0.796    -0.284    -0.265  0.5962  0.7006 -0.3920
              Bcc     0.0123     1.653     0.590     0.551 -0.5880  0.7135  0.3809
 
              Baa    -0.0175    -2.351    -0.839    -0.784  0.2012 -0.0708  0.9770
    11 C(13)  Bbb    -0.0143    -1.918    -0.684    -0.640  0.8955  0.4175 -0.1542
              Bcc     0.0318     4.269     1.523     1.424 -0.3970  0.9059  0.1474
 
              Baa    -0.0161    -2.156    -0.769    -0.719 -0.0953 -0.4139  0.9053
    12 C(13)  Bbb    -0.0130    -1.744    -0.622    -0.582  0.9723  0.1565  0.1739
              Bcc     0.0291     3.901     1.392     1.301 -0.2136  0.8968  0.3875
 
              Baa    -0.0124    -1.667    -0.595    -0.556  0.5400  0.6025 -0.5878
    13 C(13)  Bbb    -0.0106    -1.425    -0.509    -0.475  0.8330 -0.2822  0.4759
              Bcc     0.0230     3.092     1.103     1.031 -0.1208  0.7466  0.6543
 
              Baa    -0.3273    23.685     8.452     7.901  0.8819 -0.2331  0.4098
    14 O(17)  Bbb     0.0583    -4.220    -1.506    -1.408  0.2932  0.9518 -0.0897
              Bcc     0.2690   -19.466    -6.946    -6.493 -0.3692  0.1993  0.9078
 
              Baa    -0.1415    -2.450    -0.874    -0.817  0.2220  0.8364 -0.5012
    15 Fe(57) Bbb    -0.0025    -0.043    -0.015    -0.014  0.7129  0.2114  0.6686
              Bcc     0.1440     2.493     0.889     0.831  0.6652 -0.5057 -0.5494
 
              Baa    -0.2008   -10.511    -3.750    -3.506  0.6423 -0.5753 -0.5065
    16 Cl(35) Bbb    -0.1546    -8.090    -2.887    -2.699  0.3177  0.8012 -0.5071
              Bcc     0.3554    18.601     6.637     6.205  0.6975  0.1648  0.6973
 
              Baa    -0.0141    -1.896    -0.677    -0.633  0.2484 -0.1398  0.9585
    17 C(13)  Bbb    -0.0135    -1.807    -0.645    -0.603  0.9632 -0.0690 -0.2597
              Bcc     0.0276     3.703     1.321     1.235  0.1024  0.9878  0.1175
 
              Baa    -0.1573    -8.230    -2.937    -2.745  0.8830 -0.2097 -0.4199
    18 Cl(35) Bbb    -0.1119    -5.856    -2.089    -1.953  0.3944 -0.1534  0.9060
              Bcc     0.2691    14.086     5.026     4.699  0.2544  0.9657  0.0528
 
              Baa    -0.1967   -10.293    -3.673    -3.433 -0.5229  0.8307  0.1912
    19 Cl(35) Bbb    -0.1400    -7.330    -2.615    -2.445  0.8122  0.4175  0.4074
              Bcc     0.3367    17.623     6.288     5.878 -0.2586 -0.3683  0.8930
 
              Baa    -0.0280   -14.946    -5.333    -4.985 -0.2124 -0.3267  0.9210
    20 H(1)   Bbb    -0.0245   -13.064    -4.662    -4.358 -0.2653  0.9263  0.2674
              Bcc     0.0525    28.010     9.995     9.343  0.9405  0.1875  0.2834
 
              Baa    -0.0058    -3.081    -1.099    -1.028 -0.5930 -0.0471  0.8038
    21 H(1)   Bbb    -0.0056    -2.979    -1.063    -0.994 -0.1859  0.9793 -0.0798
              Bcc     0.0114     6.060     2.162     2.022  0.7835  0.1968  0.5895
 
              Baa    -0.0025    -1.328    -0.474    -0.443  0.2376  0.9639 -0.1204
    22 H(1)   Bbb    -0.0024    -1.305    -0.466    -0.435 -0.5817  0.2405  0.7771
              Bcc     0.0049     2.634     0.940     0.879  0.7779 -0.1146  0.6178
 
              Baa    -0.0023    -1.246    -0.444    -0.416  0.4102  0.8933  0.1839
    23 H(1)   Bbb    -0.0023    -1.218    -0.435    -0.406 -0.4944  0.0483  0.8679
              Bcc     0.0046     2.463     0.879     0.822  0.7664 -0.4469  0.4614
 
              Baa    -0.0045    -2.404    -0.858    -0.802  0.6674  0.7444 -0.0223
    24 H(1)   Bbb    -0.0043    -2.315    -0.826    -0.772 -0.1394  0.1544  0.9781
              Bcc     0.0088     4.719     1.684     1.574  0.7315 -0.6497  0.2068
 
              Baa    -0.0119    -6.358    -2.269    -2.121  0.4983  0.8476  0.1826
    25 H(1)   Bbb    -0.0097    -5.174    -1.846    -1.726  0.5413 -0.4686  0.6981
              Bcc     0.0216    11.532     4.115     3.847 -0.6773  0.2490  0.6923
 
              Baa    -0.0071    -0.949    -0.339    -0.317  0.2649 -0.5086  0.8192
    26 C(13)  Bbb    -0.0057    -0.762    -0.272    -0.254  0.1810  0.8607  0.4759
              Bcc     0.0128     1.711     0.611     0.571  0.9471 -0.0222 -0.3201
 
              Baa    -0.0032    -1.698    -0.606    -0.566  0.6604  0.6319  0.4056
    27 H(1)   Bbb    -0.0029    -1.567    -0.559    -0.523  0.1431 -0.6361  0.7582
              Bcc     0.0061     3.265     1.165     1.089  0.7371 -0.4427 -0.5105
 
              Baa    -0.0036    -1.924    -0.687    -0.642  0.4217  0.8751 -0.2374
    28 H(1)   Bbb    -0.0035    -1.848    -0.660    -0.617  0.2951  0.1151  0.9485
              Bcc     0.0071     3.773     1.346     1.258  0.8574 -0.4700 -0.2097
 
              Baa    -0.0042    -2.236    -0.798    -0.746  0.4694  0.6672 -0.5784
    29 H(1)   Bbb    -0.0038    -2.011    -0.717    -0.671  0.7565  0.0340  0.6531
              Bcc     0.0080     4.247     1.515     1.417 -0.4554  0.7441  0.4888
 
              Baa    -0.0034    -1.818    -0.649    -0.606  0.7886  0.4837  0.3796
    30 H(1)   Bbb    -0.0030    -1.627    -0.580    -0.543 -0.2025 -0.3786  0.9031
              Bcc     0.0065     3.445     1.229     1.149 -0.5806  0.7891  0.2007
 
              Baa    -0.0095    -5.073    -1.810    -1.692  0.7647  0.4279  0.4817
    31 H(1)   Bbb    -0.0077    -4.103    -1.464    -1.369 -0.4539 -0.1727  0.8741
              Bcc     0.0172     9.176     3.274     3.061 -0.4573  0.8872 -0.0622
 
              Baa    -0.0067    -3.585    -1.279    -1.196  0.4325 -0.1132  0.8945
    32 H(1)   Bbb    -0.0066    -3.516    -1.255    -1.173  0.8994 -0.0157 -0.4369
              Bcc     0.0133     7.101     2.534     2.369  0.0635  0.9935  0.0950
 
              Baa    -0.0193   -10.293    -3.673    -3.433  0.8527  0.0472  0.5203
    33 H(1)   Bbb    -0.0169    -8.997    -3.210    -3.001 -0.5205  0.1628  0.8382
              Bcc     0.0362    19.290     6.883     6.434  0.0451  0.9855 -0.1634
 
              Baa    -0.0145    -7.753    -2.766    -2.586 -0.6483  0.0728  0.7579
    34 H(1)   Bbb    -0.0137    -7.298    -2.604    -2.434  0.6761 -0.4027  0.6170
              Bcc     0.0282    15.051     5.371     5.020  0.3501  0.9124  0.2119
 
              Baa    -0.0061    -3.266    -1.165    -1.089 -0.0820 -0.6248  0.7764
    35 H(1)   Bbb    -0.0055    -2.909    -1.038    -0.970  0.9965 -0.0627  0.0548
              Bcc     0.0116     6.175     2.203     2.060  0.0144  0.7782  0.6278
 
              Baa    -0.0168    -8.988    -3.207    -2.998  0.3855  0.7082 -0.5915
    36 H(1)   Bbb    -0.0122    -6.498    -2.319    -2.167  0.9195 -0.3482  0.1823
              Bcc     0.0290    15.486     5.526     5.166  0.0769  0.6142  0.7854
 
              Baa    -0.0086    -4.588    -1.637    -1.531  0.2195  0.8174 -0.5327
    37 H(1)   Bbb    -0.0076    -4.043    -1.443    -1.349  0.9384 -0.0275  0.3445
              Bcc     0.0162     8.631     3.080     2.879 -0.2669  0.5755  0.7730
 
              Baa    -0.0088     0.637     0.227     0.212  0.4768 -0.2622  0.8390
    38 O(17)  Bbb    -0.0073     0.528     0.188     0.176 -0.0684  0.9405  0.3328
              Bcc     0.0161    -1.165    -0.416    -0.388  0.8763  0.2160 -0.4305
 
              Baa    -0.0067     0.482     0.172     0.161 -0.0674  0.8242 -0.5623
    39 O(17)  Bbb     0.0013    -0.092    -0.033    -0.031  0.4452  0.5292  0.7223
              Bcc     0.0054    -0.390    -0.139    -0.130  0.8929 -0.2017 -0.4026
 
              Baa    -0.0047    -0.637    -0.227    -0.213  0.3975 -0.1212  0.9096
    40 C(13)  Bbb    -0.0044    -0.593    -0.212    -0.198 -0.3034  0.9181  0.2549
              Bcc     0.0092     1.231     0.439     0.410  0.8660  0.3773 -0.3282
 
              Baa    -0.0051    -0.681    -0.243    -0.227  0.5609 -0.0843  0.8236
    41 C(13)  Bbb    -0.0044    -0.590    -0.210    -0.197 -0.4087  0.8370  0.3640
              Bcc     0.0095     1.271     0.453     0.424  0.7200  0.5407 -0.4350
 
              Baa    -0.0047    -2.501    -0.892    -0.834  0.2004 -0.1517  0.9679
    42 H(1)   Bbb    -0.0043    -2.308    -0.823    -0.770 -0.3542  0.9099  0.2159
              Bcc     0.0090     4.808     1.716     1.604  0.9134  0.3861 -0.1287
 
              Baa    -0.0029    -1.553    -0.554    -0.518  0.4036 -0.0436  0.9139
    43 H(1)   Bbb    -0.0027    -1.464    -0.522    -0.488 -0.2692  0.9490  0.1642
              Bcc     0.0057     3.017     1.077     1.006  0.8744  0.3123 -0.3713
 
              Baa    -0.0030    -1.596    -0.569    -0.532  0.5822 -0.2153  0.7840
    44 H(1)   Bbb    -0.0028    -1.507    -0.538    -0.503 -0.4312  0.7357  0.5223
              Bcc     0.0058     3.102     1.107     1.035  0.6893  0.6421 -0.3355
 
              Baa    -0.0039    -2.084    -0.744    -0.695  0.7765 -0.2660  0.5713
    45 H(1)   Bbb    -0.0037    -1.994    -0.712    -0.665 -0.1477  0.8045  0.5754
              Bcc     0.0076     4.079     1.455     1.360  0.6126  0.5311 -0.5853
 
              Baa    -0.0080    -4.274    -1.525    -1.426  0.6319 -0.1651  0.7572
    46 H(1)   Bbb    -0.0070    -3.732    -1.332    -1.245 -0.4352  0.7329  0.5230
              Bcc     0.0150     8.006     2.857     2.671  0.6413  0.6600 -0.3913
 

 ---------------------------------------------------------------------------------

 No NMR shielding tensors so no spin-rotation constants.
 Leave Link  601 at Sun Jun 20 09:25:19 2021, MaxMem=  2147483648 cpu:              98.8 elap:               6.4
 (Enter /SFS/product/gaussian/g16.a03/x86_64/avx/g16/l9999.exe)
 1\1\GINC-KTCHPCPX082\SP\UB3LYP\Jul-CC-pVDZ\C17H22Cl3Fe1O3(6)\KWANEU\20
 -Jun-2021\0\\#p ub3lyp jul-cc-pvdz pop=cm5 scrf=(pcm,solvent=water) gu
 ess=read geom=allcheck\\title\\0,6\C,0,2.1003427085,-1.739058274,1.718
 7325364\C,0,1.3480202952,-0.7593379431,1.0543393018\C,0,1.3049729987,0
 .5322268579,1.5991582363\C,0,1.9771861339,0.828323848,2.7860953133\C,0
 ,2.7181544228,-0.1569099664,3.4447551816\C,0,2.781386973,-1.4420701833
 ,2.9033499039\C,0,0.6391164809,-1.0543601964,-0.2673310912\C,0,1.56496
 83501,-0.7286637266,-1.5121339743\C,0,2.3229233862,-2.0371571479,-1.75
 56260586\C,0,1.2927693624,-3.1480339469,-1.448962245\C,0,0.2714557176,
 -2.4939127327,-0.4735401572\C,0,-1.1651657711,-2.4046626677,-0.9694691
 889\C,0,-1.5295774099,-2.197773921,-2.3843620862\O,0,-0.6188905662,-0.
 3528716852,-0.3935057995\Fe,0,-1.9887854086,0.737500278,0.3627382168\C
 l,0,-3.6917660518,0.4011846625,-1.0590339199\C,0,-2.2318270752,-2.8373
 973276,-0.0480821822\Cl,0,-1.4364005348,2.8761694847,0.4625273771\Cl,0
 ,-2.4989413354,-0.0984127275,2.3600879542\H,0,0.7387427161,1.318704781
 6,1.1035043342\H,0,1.9136599625,1.8358650948,3.1990870866\H,0,3.240976
 5424,0.0752694876,4.3736066221\H,0,3.3585177998,-2.2214810666,3.402957
 3752\H,0,2.17520114,-2.7524624199,1.3225451939\H,0,0.8779364013,-0.508
 3375005,-2.3391865969\C,0,2.4788368338,0.475975956,-1.3573344477\H,0,2
 .7215703,-2.0999444246,-2.7759391023\H,0,3.1795107933,-2.090099472,-1.
 0724497116\H,0,0.8015808442,-3.4961443133,-2.3673734303\H,0,1.75767227
 89,-4.0313813308,-0.9935689357\H,0,0.2414835193,-3.0291374492,0.482041
 9133\H,0,-2.1585567242,-3.9441959096,-0.0330742752\H,0,-2.0530381323,-
 2.4959884252,0.979412671\H,0,-3.2337306983,-2.5519372579,-0.3843045368
 \H,0,-1.9605938569,-3.145125838,-2.7574481291\H,0,-2.3419782285,-1.454
 9325502,-2.4277500931\H,0,-0.6987327065,-1.9012533965,-3.0279896684\O,
 0,1.8217244652,1.6166646063,-1.6273059297\O,0,3.6515855469,0.416454692
 7,-1.0526806079\C,0,2.5796353775,2.8517916466,-1.4871557966\C,0,1.6885
 362983,3.9897558131,-1.9409611193\H,0,2.8767410559,2.9494878588,-0.434
 0181383\H,0,3.4933477092,2.7646459926,-2.0902050169\H,0,2.2284266925,4
 .9408007685,-1.8256218193\H,0,1.4126723028,3.8754285093,-2.9986475453\
 H,0,0.7699410904,4.0317274616,-1.3412696147\\Version=ES64L-G16RevA.03\
 State=6-A\HF=-3531.4383628\S2=8.761699\S2-1=0.\S2A=8.750043\RMSD=7.999
 e-09\Dipole=1.7147711,-4.7680359,-2.2525745\Quadrupole=-24.205527,21.4
 418624,2.7636647,14.2355019,8.2500975,6.1424416\PG=C01 [X(C17H22Cl3Fe1
 O3)]\\@


 THERE ARE TWO THINGS THAT EVERYBODY THINKS THEY CAN DO BETTER THAN
 ANYONE ELSE - PUNCH THE FIRE, AND EDIT A DAILY PAPER.
 -- UNCLE ESEK, "CENTURY MAGAZINE", 1885
 Job cpu time:       0 days  5 hours 32 minutes 59.1 seconds.
 Elapsed time:       0 days  0 hours 20 minutes 52.3 seconds.
 File lengths (MBytes):  RWF=    657 Int=      0 D2E=      0 Chk=     57 Scr=      1
 Normal termination of Gaussian 16 at Sun Jun 20 09:25:19 2021.
