 Entering Gaussian System, Link 0=g16
 Input=prenyl-first_betaine_grid-CC_210_CO_230-b3lyp_d3bj-juldz-gas.gjf
 Output=prenyl-first_betaine_grid-CC_210_CO_230-b3lyp_d3bj-juldz-gas.out
 Initial command:
 /SFS/product/gaussian/g16.a03/x86_64/avx/g16/l1.exe "/scratch/kwaneu.2874283.bmbhpcps002/Gau-44439.inp" -scrdir="/scratch/kwaneu.2874283.bmbhpcps002/"
 Entering Link 1 = /SFS/product/gaussian/g16.a03/x86_64/avx/g16/l1.exe PID=     44440.
  
 Copyright (c) 1988,1990,1992,1993,1995,1998,2003,2009,2016,
            Gaussian, Inc.  All Rights Reserved.
  
 This is part of the Gaussian(R) 16 program.  It is based on
 the Gaussian(R) 09 system (copyright 2009, Gaussian, Inc.),
 the Gaussian(R) 03 system (copyright 2003, Gaussian, Inc.),
 the Gaussian(R) 98 system (copyright 1998, Gaussian, Inc.),
 the Gaussian(R) 94 system (copyright 1995, Gaussian, Inc.),
 the Gaussian 92(TM) system (copyright 1992, Gaussian, Inc.),
 the Gaussian 90(TM) system (copyright 1990, Gaussian, Inc.),
 the Gaussian 88(TM) system (copyright 1988, Gaussian, Inc.),
 the Gaussian 86(TM) system (copyright 1986, Carnegie Mellon
 University), and the Gaussian 82(TM) system (copyright 1983,
 Carnegie Mellon University). Gaussian is a federally registered
 trademark of Gaussian, Inc.
  
 This software contains proprietary and confidential information,
 including trade secrets, belonging to Gaussian, Inc.
  
 This software is provided under written license and may be
 used, copied, transmitted, or stored only in accord with that
 written license.
  
 The following legend is applicable only to US Government
 contracts under FAR:
  
                    RESTRICTED RIGHTS LEGEND
  
 Use, reproduction and disclosure by the US Government is
 subject to restrictions as set forth in subparagraphs (a)
 and (c) of the Commercial Computer Software - Restricted
 Rights clause in FAR 52.227-19.
  
 Gaussian, Inc.
 340 Quinnipiac St., Bldg. 40, Wallingford CT 06492
  
  
 ---------------------------------------------------------------
 Warning -- This program may not be used in any manner that
 competes with the business of Gaussian, Inc. or will provide
 assistance to any competitor of Gaussian, Inc.  The licensee
 of this program is prohibited from giving any competitor of
 Gaussian, Inc. access to this program.  By using this program,
 the user acknowledges that Gaussian, Inc. is engaged in the
 business of creating and licensing software in the field of
 computational chemistry and represents and warrants to the
 licensee that it is not a competitor of Gaussian, Inc. and that
 it will not use this program in any manner prohibited above.
 ---------------------------------------------------------------
  

 Cite this work as:
 Gaussian 16, Revision A.03,
 M. J. Frisch, G. W. Trucks, H. B. Schlegel, G. E. Scuseria, 
 M. A. Robb, J. R. Cheeseman, G. Scalmani, V. Barone, 
 G. A. Petersson, H. Nakatsuji, X. Li, M. Caricato, A. V. Marenich, 
 J. Bloino, B. G. Janesko, R. Gomperts, B. Mennucci, H. P. Hratchian, 
 J. V. Ortiz, A. F. Izmaylov, J. L. Sonnenberg, D. Williams-Young, 
 F. Ding, F. Lipparini, F. Egidi, J. Goings, B. Peng, A. Petrone, 
 T. Henderson, D. Ranasinghe, V. G. Zakrzewski, J. Gao, N. Rega, 
 G. Zheng, W. Liang, M. Hada, M. Ehara, K. Toyota, R. Fukuda, 
 J. Hasegawa, M. Ishida, T. Nakajima, Y. Honda, O. Kitao, H. Nakai, 
 T. Vreven, K. Throssell, J. A. Montgomery, Jr., J. E. Peralta, 
 F. Ogliaro, M. J. Bearpark, J. J. Heyd, E. N. Brothers, K. N. Kudin, 
 V. N. Staroverov, T. A. Keith, R. Kobayashi, J. Normand, 
 K. Raghavachari, A. P. Rendell, J. C. Burant, S. S. Iyengar, 
 J. Tomasi, M. Cossi, J. M. Millam, M. Klene, C. Adamo, R. Cammi, 
 J. W. Ochterski, R. L. Martin, K. Morokuma, O. Farkas, 
 J. B. Foresman, and D. J. Fox, Gaussian, Inc., Wallingford CT, 2016.
 
 ******************************************
 Gaussian 16:  ES64L-G16RevA.03 25-Dec-2016
                19-Jun-2021 
 ******************************************
 %chk=checkpoint.chk
 %nprocshared=16
 Will use up to   16 processors via shared memory.
 %mem=16GB
 -----------------------------------------------------------
 #p opt=modredundant freq=noraman ub3lyp jul-cc-pvdz pop=cm5
 -----------------------------------------------------------
 1/18=120,19=15,26=3,38=1/1,3;
 2/9=110,12=2,17=6,18=5,40=1/2;
 3/5=16,7=50,11=2,25=1,30=1,71=1,74=-5,116=2/1,2,3;
 4//1;
 5/5=2,38=5/2;
 6/7=2,8=2,9=2,10=2,28=1,79=1/1;
 7//1,2,3,16;
 1/18=20,19=15,26=3/3(2);
 2/9=110/2;
 99//99;
 2/9=110/2;
 3/5=16,7=50,11=2,25=1,30=1,71=1,74=-5,116=2/1,2,3;
 4/5=5,16=3,69=1/1;
 5/5=2,38=5/2;
 7//1,2,3,16;
 1/18=20,19=15,26=3/3(-5);
 2/9=110/2;
 6/7=2,8=2,9=2,10=2,19=2,28=1,79=1/1;
 99/9=1/99;
 Leave Link    1 at Sat Jun 19 21:34:56 2021, MaxMem=  2147483648 cpu:               1.6 elap:               0.1
 (Enter /SFS/product/gaussian/g16.a03/x86_64/avx/g16/l101.exe)
 -----
 title
 -----
 Symbolic Z-matrix:
 Charge =  0 Multiplicity = 6
 6                     3.20465  -0.10994   0.52989 
 6                     1.85276  -0.45397   0.7279 
 6                     1.40686  -0.70769   2.03865 
 6                     2.28571  -0.62698   3.11631 
 6                     3.62394  -0.29361   2.90553 
 6                     4.07787  -0.03101   1.60967 
 6                     0.85923  -0.52691  -0.38965 
 6                     1.02026   0.37337  -1.65288 
 6                     1.98717  -0.19891  -2.69624 
 6                     1.69082  -1.70301  -2.80952 
 6                     1.49299  -2.24588  -1.41604 
 6                     0.32791  -2.79207  -0.92865 
 6                    -0.94829  -2.84331  -1.70945 
 8                    -0.36992  -0.79188  -0.03294 
 26                   -2.05187  -0.02698   0.39917 
 17                   -2.89716   0.79472  -1.46981 
 6                     0.31712  -3.51283   0.37937 
 17                   -1.82067   1.43519   2.03071 
 17                   -3.20175  -1.78272   1.12165 
 1                     0.36394  -0.9415    2.20729 
 1                     1.91876  -0.81498   4.12093 
 1                     4.30947  -0.22848   3.74591 
 1                     5.11493   0.24303   1.43947 
 1                     3.5778    0.11896  -0.45958 
 1                     0.01164   0.41651  -2.07627 
 6                     1.4023    1.81068  -1.26403 
 1                     1.85244   0.31629  -3.65287 
 1                     3.02315  -0.02266  -2.39726 
 1                     0.80127  -1.86419  -3.42523 
 1                     2.51776  -2.22596  -3.30429 
 1                     2.40026  -2.44579  -0.85298 
 1                     1.25011  -3.39809   0.93552 
 1                    -0.53128  -3.19201   0.99263 
 1                     0.1705   -4.58366   0.17438 
 1                    -0.92754  -3.76678  -2.3093 
 1                    -1.81791  -2.89562  -1.05124 
 1                    -1.07688  -2.00774  -2.39854 
 8                     0.3557    2.45149  -0.73817 
 8                     2.50286   2.29181  -1.43445 
 6                     0.56426   3.83583  -0.33163 
 6                    -0.79675   4.47558  -0.14594 
 1                     1.14663   3.82398   0.59508 
 1                     1.15973   4.32977  -1.10371 
 1                    -0.66606   5.51849   0.16429 
 1                    -1.36495   4.4609   -1.0811 
 1                    -1.37409   3.95152   0.61998 
 
 The following ModRedundant input section has been read:
 B       7      11 F                                                           
 B      12      14 F                                                           
 
 ITRead=  0  0  0  0  0  0  0  0  0  0  0  0  0  0  0  0  0  0  0  0
 ITRead=  0  0  0  0  0  0  0  0  0  0  0  0  0  0  0  0  0  0  0  0
 ITRead=  0  0  0  0  0  0
 MicOpt= -1 -1 -1 -1 -1 -1 -1 -1 -1 -1 -1 -1 -1 -1 -1 -1 -1 -1 -1 -1
 MicOpt= -1 -1 -1 -1 -1 -1 -1 -1 -1 -1 -1 -1 -1 -1 -1 -1 -1 -1 -1 -1
 MicOpt= -1 -1 -1 -1 -1 -1
 NAtoms=     46 NQM=       46 NQMF=       0 NMMI=      0 NMMIF=      0
                NMic=       0 NMicF=      0.
                    Isotopes and Nuclear Properties:
 (Nuclear quadrupole moments (NQMom) in fm**2, nuclear magnetic moments (NMagM)
  in nuclear magnetons)

  Atom         1           2           3           4           5           6           7           8           9          10
 IAtWgt=          12          12          12          12          12          12          12          12          12          12
 AtmWgt=  12.0000000  12.0000000  12.0000000  12.0000000  12.0000000  12.0000000  12.0000000  12.0000000  12.0000000  12.0000000
 NucSpn=           0           0           0           0           0           0           0           0           0           0
 AtZEff=  -0.0000000  -0.0000000  -0.0000000  -0.0000000  -0.0000000  -0.0000000  -0.0000000  -0.0000000  -0.0000000  -0.0000000
 NQMom=    0.0000000   0.0000000   0.0000000   0.0000000   0.0000000   0.0000000   0.0000000   0.0000000   0.0000000   0.0000000
 NMagM=    0.0000000   0.0000000   0.0000000   0.0000000   0.0000000   0.0000000   0.0000000   0.0000000   0.0000000   0.0000000
 AtZNuc=   6.0000000   6.0000000   6.0000000   6.0000000   6.0000000   6.0000000   6.0000000   6.0000000   6.0000000   6.0000000

  Atom        11          12          13          14          15          16          17          18          19          20
 IAtWgt=          12          12          12          16          56          35          12          35          35           1
 AtmWgt=  12.0000000  12.0000000  12.0000000  15.9949146  55.9349393  34.9688527  12.0000000  34.9688527  34.9688527   1.0078250
 NucSpn=           0           0           0           0           0           3           0           3           3           1
 AtZEff=  -0.0000000  -0.0000000  -0.0000000  -0.0000000  -0.0000000  -0.0000000  -0.0000000  -0.0000000  -0.0000000  -0.0000000
 NQMom=    0.0000000   0.0000000   0.0000000   0.0000000   0.0000000  -8.1650000   0.0000000  -8.1650000  -8.1650000   0.0000000
 NMagM=    0.0000000   0.0000000   0.0000000   0.0000000   0.0000000   0.8218740   0.0000000   0.8218740   0.8218740   2.7928460
 AtZNuc=   6.0000000   6.0000000   6.0000000   8.0000000  26.0000000  17.0000000   6.0000000  17.0000000  17.0000000   1.0000000

  Atom        21          22          23          24          25          26          27          28          29          30
 IAtWgt=           1           1           1           1           1          12           1           1           1           1
 AtmWgt=   1.0078250   1.0078250   1.0078250   1.0078250   1.0078250  12.0000000   1.0078250   1.0078250   1.0078250   1.0078250
 NucSpn=           1           1           1           1           1           0           1           1           1           1
 AtZEff=  -0.0000000  -0.0000000  -0.0000000  -0.0000000  -0.0000000  -0.0000000  -0.0000000  -0.0000000  -0.0000000  -0.0000000
 NQMom=    0.0000000   0.0000000   0.0000000   0.0000000   0.0000000   0.0000000   0.0000000   0.0000000   0.0000000   0.0000000
 NMagM=    2.7928460   2.7928460   2.7928460   2.7928460   2.7928460   0.0000000   2.7928460   2.7928460   2.7928460   2.7928460
 AtZNuc=   1.0000000   1.0000000   1.0000000   1.0000000   1.0000000   6.0000000   1.0000000   1.0000000   1.0000000   1.0000000

  Atom        31          32          33          34          35          36          37          38          39          40
 IAtWgt=           1           1           1           1           1           1           1          16          16          12
 AtmWgt=   1.0078250   1.0078250   1.0078250   1.0078250   1.0078250   1.0078250   1.0078250  15.9949146  15.9949146  12.0000000
 NucSpn=           1           1           1           1           1           1           1           0           0           0
 AtZEff=  -0.0000000  -0.0000000  -0.0000000  -0.0000000  -0.0000000  -0.0000000  -0.0000000  -0.0000000  -0.0000000  -0.0000000
 NQMom=    0.0000000   0.0000000   0.0000000   0.0000000   0.0000000   0.0000000   0.0000000   0.0000000   0.0000000   0.0000000
 NMagM=    2.7928460   2.7928460   2.7928460   2.7928460   2.7928460   2.7928460   2.7928460   0.0000000   0.0000000   0.0000000
 AtZNuc=   1.0000000   1.0000000   1.0000000   1.0000000   1.0000000   1.0000000   1.0000000   8.0000000   8.0000000   6.0000000

  Atom        41          42          43          44          45          46
 IAtWgt=          12           1           1           1           1           1
 AtmWgt=  12.0000000   1.0078250   1.0078250   1.0078250   1.0078250   1.0078250
 NucSpn=           0           1           1           1           1           1
 AtZEff=  -0.0000000  -0.0000000  -0.0000000  -0.0000000  -0.0000000  -0.0000000
 NQMom=    0.0000000   0.0000000   0.0000000   0.0000000   0.0000000   0.0000000
 NMagM=    0.0000000   2.7928460   2.7928460   2.7928460   2.7928460   2.7928460
 AtZNuc=   6.0000000   1.0000000   1.0000000   1.0000000   1.0000000   1.0000000
 Leave Link  101 at Sat Jun 19 21:34:57 2021, MaxMem=  2147483648 cpu:               5.4 elap:               0.4
 (Enter /SFS/product/gaussian/g16.a03/x86_64/avx/g16/l103.exe)

 GradGradGradGradGradGradGradGradGradGradGradGradGradGradGradGradGradGrad
 Berny optimization.
 Initialization pass.
                           ----------------------------
                           !    Initial Parameters    !
                           ! (Angstroms and Degrees)  !
 --------------------------                            --------------------------
 ! Name  Definition              Value          Derivative Info.                !
 --------------------------------------------------------------------------------
 ! R1    R(1,2)                  1.409          estimate D2E/DX2                !
 ! R2    R(1,6)                  1.3909         estimate D2E/DX2                !
 ! R3    R(1,24)                 1.082          estimate D2E/DX2                !
 ! R4    R(2,3)                  1.4076         estimate D2E/DX2                !
 ! R5    R(2,7)                  1.4971         estimate D2E/DX2                !
 ! R6    R(3,4)                  1.3929         estimate D2E/DX2                !
 ! R7    R(3,20)                 1.082          estimate D2E/DX2                !
 ! R8    R(4,5)                  1.3951         estimate D2E/DX2                !
 ! R9    R(4,21)                 1.0859         estimate D2E/DX2                !
 ! R10   R(5,6)                  1.3979         estimate D2E/DX2                !
 ! R11   R(5,22)                 1.0865         estimate D2E/DX2                !
 ! R12   R(6,23)                 1.0861         estimate D2E/DX2                !
 ! R13   R(7,8)                  1.5595         estimate D2E/DX2                !
 ! R14   R(7,11)                 2.1            Frozen                          !
 ! R15   R(7,14)                 1.307          estimate D2E/DX2                !
 ! R16   R(8,9)                  1.5333         estimate D2E/DX2                !
 ! R17   R(8,25)                 1.0947         estimate D2E/DX2                !
 ! R18   R(8,26)                 1.5372         estimate D2E/DX2                !
 ! R19   R(9,10)                 1.5372         estimate D2E/DX2                !
 ! R20   R(9,27)                 1.0949         estimate D2E/DX2                !
 ! R21   R(9,28)                 1.0926         estimate D2E/DX2                !
 ! R22   R(10,11)                1.5085         estimate D2E/DX2                !
 ! R23   R(10,29)                1.0938         estimate D2E/DX2                !
 ! R24   R(10,30)                1.0964         estimate D2E/DX2                !
 ! R25   R(11,12)                1.376          estimate D2E/DX2                !
 ! R26   R(11,31)                1.0863         estimate D2E/DX2                !
 ! R27   R(12,13)                1.497          estimate D2E/DX2                !
 ! R28   R(12,14)                2.3            Frozen                          !
 ! R29   R(12,17)                1.4935         estimate D2E/DX2                !
 ! R30   R(13,35)                1.1014         estimate D2E/DX2                !
 ! R31   R(13,36)                1.0919         estimate D2E/DX2                !
 ! R32   R(13,37)                1.0907         estimate D2E/DX2                !
 ! R33   R(14,15)                1.8976         estimate D2E/DX2                !
 ! R34   R(15,16)                2.2097         estimate D2E/DX2                !
 ! R35   R(15,18)                2.203          estimate D2E/DX2                !
 ! R36   R(15,19)                2.2196         estimate D2E/DX2                !
 ! R37   R(17,32)                1.0922         estimate D2E/DX2                !
 ! R38   R(17,33)                1.0949         estimate D2E/DX2                !
 ! R39   R(17,34)                1.1001         estimate D2E/DX2                !
 ! R40   R(26,38)                1.3351         estimate D2E/DX2                !
 ! R41   R(26,39)                1.2132         estimate D2E/DX2                !
 ! R42   R(38,40)                1.4578         estimate D2E/DX2                !
 ! R43   R(40,41)                1.5153         estimate D2E/DX2                !
 ! R44   R(40,42)                1.0946         estimate D2E/DX2                !
 ! R45   R(40,43)                1.093          estimate D2E/DX2                !
 ! R46   R(41,44)                1.0959         estimate D2E/DX2                !
 ! R47   R(41,45)                1.0943         estimate D2E/DX2                !
 ! R48   R(41,46)                1.093          estimate D2E/DX2                !
 ! A1    A(2,1,6)              120.4725         estimate D2E/DX2                !
 ! A2    A(2,1,24)             120.7357         estimate D2E/DX2                !
 ! A3    A(6,1,24)             118.7779         estimate D2E/DX2                !
 ! A4    A(1,2,3)              118.6095         estimate D2E/DX2                !
 ! A5    A(1,2,7)              122.9387         estimate D2E/DX2                !
 ! A6    A(3,2,7)              118.4316         estimate D2E/DX2                !
 ! A7    A(2,3,4)              120.6722         estimate D2E/DX2                !
 ! A8    A(2,3,20)             119.3024         estimate D2E/DX2                !
 ! A9    A(4,3,20)             120.0053         estimate D2E/DX2                !
 ! A10   A(3,4,5)              120.1431         estimate D2E/DX2                !
 ! A11   A(3,4,21)             119.5049         estimate D2E/DX2                !
 ! A12   A(5,4,21)             120.3488         estimate D2E/DX2                !
 ! A13   A(4,5,6)              119.7621         estimate D2E/DX2                !
 ! A14   A(4,5,22)             120.1779         estimate D2E/DX2                !
 ! A15   A(6,5,22)             120.0573         estimate D2E/DX2                !
 ! A16   A(1,6,5)              120.338          estimate D2E/DX2                !
 ! A17   A(1,6,23)             119.4809         estimate D2E/DX2                !
 ! A18   A(5,6,23)             120.1798         estimate D2E/DX2                !
 ! A19   A(2,7,8)              120.53           estimate D2E/DX2                !
 ! A20   A(2,7,14)             115.4834         estimate D2E/DX2                !
 ! A21   A(8,7,14)             115.7986         estimate D2E/DX2                !
 ! A22   A(7,8,9)              113.6304         estimate D2E/DX2                !
 ! A23   A(7,8,25)             103.9388         estimate D2E/DX2                !
 ! A24   A(7,8,26)             111.1325         estimate D2E/DX2                !
 ! A25   A(9,8,25)             109.4222         estimate D2E/DX2                !
 ! A26   A(9,8,26)             111.3698         estimate D2E/DX2                !
 ! A27   A(25,8,26)            106.8558         estimate D2E/DX2                !
 ! A28   A(8,9,10)             107.0841         estimate D2E/DX2                !
 ! A29   A(8,9,27)             109.9577         estimate D2E/DX2                !
 ! A30   A(8,9,28)             110.5803         estimate D2E/DX2                !
 ! A31   A(10,9,27)            111.859          estimate D2E/DX2                !
 ! A32   A(10,9,28)            111.1498         estimate D2E/DX2                !
 ! A33   A(27,9,28)            106.2524         estimate D2E/DX2                !
 ! A34   A(9,10,11)            108.0189         estimate D2E/DX2                !
 ! A35   A(9,10,29)            110.0261         estimate D2E/DX2                !
 ! A36   A(9,10,30)            110.7657         estimate D2E/DX2                !
 ! A37   A(11,10,29)           111.1192         estimate D2E/DX2                !
 ! A38   A(11,10,30)           110.1283         estimate D2E/DX2                !
 ! A39   A(29,10,30)           106.8029         estimate D2E/DX2                !
 ! A40   A(10,11,12)           125.5277         estimate D2E/DX2                !
 ! A41   A(10,11,31)           115.8158         estimate D2E/DX2                !
 ! A42   A(12,11,31)           116.7771         estimate D2E/DX2                !
 ! A43   A(11,12,13)           123.4141         estimate D2E/DX2                !
 ! A44   A(11,12,17)           120.525          estimate D2E/DX2                !
 ! A45   A(13,12,17)           115.7299         estimate D2E/DX2                !
 ! A46   A(12,13,35)           107.2606         estimate D2E/DX2                !
 ! A47   A(12,13,36)           111.4812         estimate D2E/DX2                !
 ! A48   A(12,13,37)           113.8176         estimate D2E/DX2                !
 ! A49   A(35,13,36)           107.6467         estimate D2E/DX2                !
 ! A50   A(35,13,37)           107.4862         estimate D2E/DX2                !
 ! A51   A(36,13,37)           108.8844         estimate D2E/DX2                !
 ! A52   A(7,14,15)            144.4888         estimate D2E/DX2                !
 ! A53   A(14,15,16)           107.239          estimate D2E/DX2                !
 ! A54   A(14,15,18)           110.0698         estimate D2E/DX2                !
 ! A55   A(14,15,19)           102.3835         estimate D2E/DX2                !
 ! A56   A(16,15,18)           114.8178         estimate D2E/DX2                !
 ! A57   A(16,15,19)           111.7941         estimate D2E/DX2                !
 ! A58   A(18,15,19)           109.7737         estimate D2E/DX2                !
 ! A59   A(12,17,32)           112.8977         estimate D2E/DX2                !
 ! A60   A(12,17,33)           110.7779         estimate D2E/DX2                !
 ! A61   A(12,17,34)           107.9107         estimate D2E/DX2                !
 ! A62   A(32,17,33)           110.2378         estimate D2E/DX2                !
 ! A63   A(32,17,34)           108.1186         estimate D2E/DX2                !
 ! A64   A(33,17,34)           106.6374         estimate D2E/DX2                !
 ! A65   A(8,26,38)            110.7066         estimate D2E/DX2                !
 ! A66   A(8,26,39)            124.1073         estimate D2E/DX2                !
 ! A67   A(38,26,39)           125.1782         estimate D2E/DX2                !
 ! A68   A(26,38,40)           116.9667         estimate D2E/DX2                !
 ! A69   A(38,40,41)           107.8545         estimate D2E/DX2                !
 ! A70   A(38,40,42)           107.5742         estimate D2E/DX2                !
 ! A71   A(38,40,43)           108.0647         estimate D2E/DX2                !
 ! A72   A(41,40,42)           112.2532         estimate D2E/DX2                !
 ! A73   A(41,40,43)           112.6502         estimate D2E/DX2                !
 ! A74   A(42,40,43)           108.2445         estimate D2E/DX2                !
 ! A75   A(40,41,44)           109.2302         estimate D2E/DX2                !
 ! A76   A(40,41,45)           110.8526         estimate D2E/DX2                !
 ! A77   A(40,41,46)           110.9709         estimate D2E/DX2                !
 ! A78   A(44,41,45)           108.4563         estimate D2E/DX2                !
 ! A79   A(44,41,46)           108.7186         estimate D2E/DX2                !
 ! A80   A(45,41,46)           108.5502         estimate D2E/DX2                !
 ! D1    D(6,1,2,3)              0.3379         estimate D2E/DX2                !
 ! D2    D(6,1,2,7)            178.6757         estimate D2E/DX2                !
 ! D3    D(24,1,2,3)          -178.2915         estimate D2E/DX2                !
 ! D4    D(24,1,2,7)             0.0463         estimate D2E/DX2                !
 ! D5    D(2,1,6,5)              0.0555         estimate D2E/DX2                !
 ! D6    D(2,1,6,23)          -179.5346         estimate D2E/DX2                !
 ! D7    D(24,1,6,5)           178.7115         estimate D2E/DX2                !
 ! D8    D(24,1,6,23)           -0.8786         estimate D2E/DX2                !
 ! D9    D(1,2,3,4)             -0.3288         estimate D2E/DX2                !
 ! D10   D(1,2,3,20)           178.0391         estimate D2E/DX2                !
 ! D11   D(7,2,3,4)           -178.7425         estimate D2E/DX2                !
 ! D12   D(7,2,3,20)            -0.3746         estimate D2E/DX2                !
 ! D13   D(1,2,7,8)            -29.3546         estimate D2E/DX2                !
 ! D14   D(1,2,7,14)          -176.579          estimate D2E/DX2                !
 ! D15   D(3,2,7,8)            148.986          estimate D2E/DX2                !
 ! D16   D(3,2,7,14)             1.7616         estimate D2E/DX2                !
 ! D17   D(2,3,4,5)             -0.0747         estimate D2E/DX2                !
 ! D18   D(2,3,4,21)           179.2777         estimate D2E/DX2                !
 ! D19   D(20,3,4,5)          -178.4311         estimate D2E/DX2                !
 ! D20   D(20,3,4,21)            0.9213         estimate D2E/DX2                !
 ! D21   D(3,4,5,6)              0.4733         estimate D2E/DX2                !
 ! D22   D(3,4,5,22)           179.8731         estimate D2E/DX2                !
 ! D23   D(21,4,5,6)          -178.8736         estimate D2E/DX2                !
 ! D24   D(21,4,5,22)            0.5263         estimate D2E/DX2                !
 ! D25   D(4,5,6,1)             -0.4644         estimate D2E/DX2                !
 ! D26   D(4,5,6,23)           179.1229         estimate D2E/DX2                !
 ! D27   D(22,5,6,1)          -179.865          estimate D2E/DX2                !
 ! D28   D(22,5,6,23)           -0.2778         estimate D2E/DX2                !
 ! D29   D(2,7,8,9)             83.0143         estimate D2E/DX2                !
 ! D30   D(2,7,8,25)          -158.1327         estimate D2E/DX2                !
 ! D31   D(2,7,8,26)           -43.5357         estimate D2E/DX2                !
 ! D32   D(14,7,8,9)          -129.859          estimate D2E/DX2                !
 ! D33   D(14,7,8,25)          -11.006          estimate D2E/DX2                !
 ! D34   D(14,7,8,26)          103.5911         estimate D2E/DX2                !
 ! D35   D(2,7,14,15)           95.2941         estimate D2E/DX2                !
 ! D36   D(8,7,14,15)          -53.513          estimate D2E/DX2                !
 ! D37   D(7,8,9,10)            42.7739         estimate D2E/DX2                !
 ! D38   D(7,8,9,27)           164.5096         estimate D2E/DX2                !
 ! D39   D(7,8,9,28)           -78.4642         estimate D2E/DX2                !
 ! D40   D(25,8,9,10)          -72.8883         estimate D2E/DX2                !
 ! D41   D(25,8,9,27)           48.8474         estimate D2E/DX2                !
 ! D42   D(25,8,9,28)          165.8737         estimate D2E/DX2                !
 ! D43   D(26,8,9,10)          169.1991         estimate D2E/DX2                !
 ! D44   D(26,8,9,27)          -69.0652         estimate D2E/DX2                !
 ! D45   D(26,8,9,28)           47.961          estimate D2E/DX2                !
 ! D46   D(7,8,26,38)          -73.3232         estimate D2E/DX2                !
 ! D47   D(7,8,26,39)          107.6559         estimate D2E/DX2                !
 ! D48   D(9,8,26,38)          158.8916         estimate D2E/DX2                !
 ! D49   D(9,8,26,39)          -20.1292         estimate D2E/DX2                !
 ! D50   D(25,8,26,38)          39.4419         estimate D2E/DX2                !
 ! D51   D(25,8,26,39)        -139.5789         estimate D2E/DX2                !
 ! D52   D(8,9,10,11)          -42.7186         estimate D2E/DX2                !
 ! D53   D(8,9,10,29)           78.7371         estimate D2E/DX2                !
 ! D54   D(8,9,10,30)         -163.4059         estimate D2E/DX2                !
 ! D55   D(27,9,10,11)        -163.2517         estimate D2E/DX2                !
 ! D56   D(27,9,10,29)         -41.7961         estimate D2E/DX2                !
 ! D57   D(27,9,10,30)          76.0609         estimate D2E/DX2                !
 ! D58   D(28,9,10,11)          78.159          estimate D2E/DX2                !
 ! D59   D(28,9,10,29)        -160.3854         estimate D2E/DX2                !
 ! D60   D(28,9,10,30)         -42.5284         estimate D2E/DX2                !
 ! D61   D(9,10,11,12)         116.5383         estimate D2E/DX2                !
 ! D62   D(9,10,11,31)         -79.6467         estimate D2E/DX2                !
 ! D63   D(29,10,11,12)         -4.2377         estimate D2E/DX2                !
 ! D64   D(29,10,11,31)        159.5773         estimate D2E/DX2                !
 ! D65   D(30,10,11,12)       -122.3771         estimate D2E/DX2                !
 ! D66   D(30,10,11,31)         41.4379         estimate D2E/DX2                !
 ! D67   D(10,11,12,13)         -3.9638         estimate D2E/DX2                !
 ! D68   D(10,11,12,17)        169.1431         estimate D2E/DX2                !
 ! D69   D(31,11,12,13)       -167.6403         estimate D2E/DX2                !
 ! D70   D(31,11,12,17)          5.4666         estimate D2E/DX2                !
 ! D71   D(11,12,13,35)         87.1642         estimate D2E/DX2                !
 ! D72   D(11,12,13,36)       -155.2282         estimate D2E/DX2                !
 ! D73   D(11,12,13,37)        -31.5924         estimate D2E/DX2                !
 ! D74   D(17,12,13,35)        -86.2458         estimate D2E/DX2                !
 ! D75   D(17,12,13,36)         31.3618         estimate D2E/DX2                !
 ! D76   D(17,12,13,37)        154.9976         estimate D2E/DX2                !
 ! D77   D(11,12,17,32)          9.6708         estimate D2E/DX2                !
 ! D78   D(11,12,17,33)        133.8569         estimate D2E/DX2                !
 ! D79   D(11,12,17,34)       -109.7545         estimate D2E/DX2                !
 ! D80   D(13,12,17,32)       -176.7141         estimate D2E/DX2                !
 ! D81   D(13,12,17,33)        -52.5279         estimate D2E/DX2                !
 ! D82   D(13,12,17,34)         63.8606         estimate D2E/DX2                !
 ! D83   D(7,14,15,16)          70.2225         estimate D2E/DX2                !
 ! D84   D(7,14,15,18)         -55.3165         estimate D2E/DX2                !
 ! D85   D(7,14,15,19)        -171.9944         estimate D2E/DX2                !
 ! D86   D(8,26,38,40)        -179.4317         estimate D2E/DX2                !
 ! D87   D(39,26,38,40)         -0.4236         estimate D2E/DX2                !
 ! D88   D(26,38,40,41)        164.1175         estimate D2E/DX2                !
 ! D89   D(26,38,40,42)        -74.593          estimate D2E/DX2                !
 ! D90   D(26,38,40,43)         42.0694         estimate D2E/DX2                !
 ! D91   D(38,40,41,44)        179.788          estimate D2E/DX2                !
 ! D92   D(38,40,41,45)        -60.762          estimate D2E/DX2                !
 ! D93   D(38,40,41,46)         59.9405         estimate D2E/DX2                !
 ! D94   D(42,40,41,44)         61.4581         estimate D2E/DX2                !
 ! D95   D(42,40,41,45)       -179.0919         estimate D2E/DX2                !
 ! D96   D(42,40,41,46)        -58.3894         estimate D2E/DX2                !
 ! D97   D(43,40,41,44)        -61.0407         estimate D2E/DX2                !
 ! D98   D(43,40,41,45)         58.4093         estimate D2E/DX2                !
 ! D99   D(43,40,41,46)        179.1118         estimate D2E/DX2                !
 --------------------------------------------------------------------------------
 Trust Radius=3.00D-01 FncErr=1.00D-07 GrdErr=1.00D-06 EigMax=2.50D+02 EigMin=1.00D-04
 Number of steps in this run=    237 maximum allowed number of steps=    276.
 GradGradGradGradGradGradGradGradGradGradGradGradGradGradGradGradGradGrad

 Leave Link  103 at Sat Jun 19 21:34:57 2021, MaxMem=  2147483648 cpu:               0.3 elap:               0.1
 (Enter /SFS/product/gaussian/g16.a03/x86_64/avx/g16/l202.exe)
                          Input orientation:                          
 ---------------------------------------------------------------------
 Center     Atomic      Atomic             Coordinates (Angstroms)
 Number     Number       Type             X           Y           Z
 ---------------------------------------------------------------------
      1          6           0        3.204654   -0.109935    0.529890
      2          6           0        1.852763   -0.453974    0.727900
      3          6           0        1.406858   -0.707687    2.038653
      4          6           0        2.285709   -0.626977    3.116306
      5          6           0        3.623937   -0.293605    2.905525
      6          6           0        4.077868   -0.031007    1.609665
      7          6           0        0.859225   -0.526907   -0.389654
      8          6           0        1.020263    0.373370   -1.652875
      9          6           0        1.987165   -0.198912   -2.696239
     10          6           0        1.690821   -1.703014   -2.809516
     11          6           0        1.492993   -2.245881   -1.416038
     12          6           0        0.327912   -2.792069   -0.928645
     13          6           0       -0.948286   -2.843314   -1.709450
     14          8           0       -0.369921   -0.791882   -0.032943
     15         26           0       -2.051871   -0.026982    0.399169
     16         17           0       -2.897164    0.794720   -1.469814
     17          6           0        0.317120   -3.512826    0.379366
     18         17           0       -1.820674    1.435192    2.030715
     19         17           0       -3.201751   -1.782724    1.121645
     20          1           0        0.363935   -0.941498    2.207290
     21          1           0        1.918760   -0.814978    4.120926
     22          1           0        4.309466   -0.228477    3.745911
     23          1           0        5.114934    0.243029    1.439471
     24          1           0        3.577799    0.118957   -0.459579
     25          1           0        0.011643    0.416510   -2.076274
     26          6           0        1.402301    1.810677   -1.264031
     27          1           0        1.852437    0.316291   -3.652869
     28          1           0        3.023154   -0.022658   -2.397255
     29          1           0        0.801273   -1.864190   -3.425232
     30          1           0        2.517764   -2.225960   -3.304292
     31          1           0        2.400264   -2.445791   -0.852981
     32          1           0        1.250114   -3.398089    0.935517
     33          1           0       -0.531275   -3.192011    0.992632
     34          1           0        0.170502   -4.583659    0.174381
     35          1           0       -0.927544   -3.766782   -2.309295
     36          1           0       -1.817911   -2.895619   -1.051242
     37          1           0       -1.076877   -2.007744   -2.398539
     38          8           0        0.355700    2.451487   -0.738173
     39          8           0        2.502856    2.291806   -1.434452
     40          6           0        0.564257    3.835828   -0.331631
     41          6           0       -0.796746    4.475575   -0.145935
     42          1           0        1.146631    3.823976    0.595079
     43          1           0        1.159733    4.329771   -1.103707
     44          1           0       -0.666056    5.518494    0.164291
     45          1           0       -1.364948    4.460900   -1.081099
     46          1           0       -1.374090    3.951518    0.619982
 ---------------------------------------------------------------------
                    Distance matrix (angstroms):
                    1          2          3          4          5
     1  C    0.000000
     2  C    1.408964   0.000000
     3  C    2.421930   1.407578   0.000000
     4  C    2.793088   2.433486   1.392921   0.000000
     5  C    2.419333   2.811552   2.416272   1.395141   0.000000
     6  C    1.390916   2.430536   2.788588   2.415985   1.397950
     7  C    2.553520   1.497119   2.495848   3.786374   4.307699
     8  C    3.125638   2.654363   3.865943   5.034594   5.291785
     9  C    3.449363   3.436255   4.797375   5.835927   5.836758
    10  C    3.997652   3.754948   4.957424   6.052034   6.195568
    11  C    3.358375   2.817239   3.782638   4.877642   5.198866
    12  C    4.194855   3.245921   3.783336   4.988208   5.639766
    13  C    5.452790   4.415370   4.914863   6.217620   6.978842
    14  O    3.682312   2.373476   2.730484   4.122782   4.983350
    15  Fe   5.258804   3.941643   3.887682   5.153390   6.210290
    16  Cl   6.484551   5.380612   5.752493   7.065118   7.927976
    17  C    4.465443   3.440385   3.436505   4.437827   5.261169
    18  Cl   5.467524   4.331329   3.874139   4.721592   5.779085
    19  Cl   6.647588   5.241061   4.820362   5.952028   7.210390
    20  H    3.402183   2.154735   1.082033   2.149058   3.396308
    21  H    3.878937   3.412815   2.146955   1.085936   2.157929
    22  H    3.402566   3.898029   3.401398   2.156571   1.086481
    23  H    2.145015   3.410851   3.874624   3.401941   2.158787
    24  H    1.081979   2.171199   3.411376   3.874644   3.390614
    25  H    4.155064   3.465668   4.488103   5.763951   6.194453
    26  C    3.186751   3.049483   4.153300   5.090179   5.171931
    27  H    4.416518   4.447971   5.800043   6.848300   6.820756
    28  H    2.934065   3.364884   4.770635   5.595389   5.343578
    29  H    4.949408   4.510304   5.617675   6.820994   7.107225
    30  H    4.432869   4.454294   5.664479   6.620776   6.596927
    31  H    2.831183   2.601207   3.517017   4.367659   4.500627
    32  H    3.846650   3.012325   2.911999   3.675236   4.376504
    33  H    4.865233   3.640133   3.319998   4.361742   5.415321
    34  H    5.417257   4.493404   4.475181   5.365105   6.147351
    35  H    6.205527   5.284823   5.806216   7.044183   7.744242
    36  H    5.957027   4.754032   4.973292   6.273348   7.213889
    37  H    5.523485   4.557588   5.248596   6.605075   7.291709
    38  O    4.035518   3.582216   4.335444   5.297064   5.611901
    39  O    3.181119   3.554954   4.718117   5.410716   5.174608
    40  C    4.825242   4.602744   5.193433   5.896465   6.073964
    41  C    6.123303   5.664269   6.041068   6.795571   7.183239
    42  H    4.440199   4.337870   4.763150   5.240712   5.331949
    43  H    5.153769   5.169071   5.942346   6.606488   6.597109
    44  H    6.840707   6.506341   6.824627   7.429275   7.726506
    45  H    6.661012   6.146717   6.643045   7.538700   7.961624
    46  H    6.121145   5.461921   5.608430   6.370901   6.944426
                    6          7          8          9         10
     6  C    0.000000
     7  C    3.821368   0.000000
     8  C    4.489614   1.559538   0.000000
     9  C    4.789576   2.588467   1.533302   0.000000
    10  C    5.293653   2.816116   2.469582   1.537197   0.000000
    11  C    4.554352   2.099999   2.672086   2.464387   1.508516
    12  C    5.303645   2.388255   3.320220   3.549926   2.565392
    13  C    6.647392   3.220978   3.771663   4.072283   3.078200
    14  O    4.802074   1.307002   2.431996   3.605636   3.575776
    15  Fe   6.248121   3.057229   3.716070   5.091652   5.206965
    16  Cl   7.669165   4.126003   3.944272   5.133039   5.392873
    17  C    5.270666   3.130652   4.441501   4.819795   3.915539
    18  Cl   6.092604   4.109730   4.771501   6.286018   6.753278
    19  Cl   7.503301   4.511389   5.492914   6.633969   6.276754
    20  H    3.870329   2.676064   4.130438   5.218324   5.244890
    21  H    3.403350   4.642298   5.962906   6.845287   6.990822
    22  H    2.157818   5.394082   6.350430   6.848011   7.211462
    23  H    1.086079   4.695696   5.132828   5.204070   5.793576
    24  H    2.134087   2.795116   2.833668   2.762934   3.521714
    25  H    5.506415   2.110241   1.094734   2.160044   2.801725
    26  C    4.336887   2.554166   1.537207   2.536086   3.849389
    27  H    5.724284   3.513691   2.166967   1.094864   2.194301
    28  H    4.143416   2.994548   2.173134   1.092580   2.183728
    29  H    6.280671   3.317592   2.862845   2.170466   1.093791
    30  H    5.603456   3.759341   3.424355   2.181785   1.096408
    31  H    3.835383   2.504314   3.239121   2.935424   2.209764
    32  H    4.448360   3.186308   4.580012   4.895675   4.134341
    33  H    5.622889   3.308623   4.702969   5.376704   4.648780
    34  H    6.168808   4.153277   5.350990   5.546777   4.417366
    35  H    7.373494   4.168256   4.622304   4.623305   3.371230
    36  H    7.074365   3.635320   4.370753   4.945386   4.101833
    37  H    6.822359   3.158637   3.259404   3.570553   2.814590
    38  O    5.052688   3.040696   2.365776   3.676998   4.830413
    39  O    4.140383   3.426116   2.434376   2.839317   4.302184
    40  C    5.573734   4.373080   3.733931   4.888268   6.171534
    41  C    6.866824   5.275080   4.732914   6.008747   7.173396
    42  H    4.947972   4.470177   4.120188   5.265254   6.514217
    43  H    5.907138   4.918079   3.996767   4.871321   6.291767
    44  H    7.442505   6.259410   5.711223   6.921773   8.157731
    45  H    7.552595   5.504840   4.766976   5.963152   7.093588
    46  H    6.823769   5.105228   4.868465   6.286607   7.288955
                   11         12         13         14         15
    11  C    0.000000
    12  C    1.375968   0.000000
    13  C    2.530387   1.496985   0.000000
    14  O    2.738159   2.300000   2.711744   0.000000
    15  Fe   4.559008   3.882288   3.687262   1.897564   0.000000
    16  Cl   5.340564   4.853765   4.134107   3.311927   2.209709
    17  C    2.492248   1.493486   2.532321   2.836470   4.214691
    18  Cl   6.034136   5.589630   5.749392   3.365000   2.203031
    19  Cl   5.356769   4.204877   3.770684   3.214670   2.219645
    20  H    4.013065   3.641428   4.547492   2.362112   3.153056
    21  H    5.734695   5.651359   6.806422   4.742702   5.498938
    22  H    6.216764   6.654040   8.015129   6.041012   7.190820
    23  H    5.240903   6.142912   7.496923   5.772580   7.246946
    24  H    3.294494   4.388150   5.551817   4.073836   5.696660
    25  H    3.117473   3.422288   3.417964   2.404372   3.253090
    26  C    4.060418   4.738361   5.232905   3.380778   4.251415
    27  H    3.420137   4.405392   4.648014   4.389850   5.637417
    28  H    2.871742   4.134100   4.919503   4.206499   5.794470
    29  H    2.158941   2.705176   2.638854   3.745553   5.112906
    30  H    2.148501   3.280187   3.864990   4.593150   6.279545
    31  H    1.086342   2.102445   3.479131   3.328934   5.219198
    32  H    2.629902   2.166291   3.483761   3.217879   4.749225
    33  H    3.285501   2.142303   2.756217   2.615045   3.561154
    34  H    3.121477   2.109796   2.798090   3.835702   5.074719
    35  H    2.995004   2.105334   1.101380   3.787183   4.752472
    36  H    3.393718   2.151815   1.091889   2.749421   3.222966
    37  H    2.761566   2.179263   1.090668   2.752118   3.563875
    38  O    4.880390   5.247088   5.538833   3.397546   3.637685
    39  O    4.648738   5.552658   6.193179   4.441419   5.429961
    40  C    6.247053   6.658927   6.985493   4.730497   4.722234
    41  C    7.213462   7.395684   7.485565   5.285929   4.705900
    42  H    6.403727   6.838427   7.358824   4.899029   5.009858
    43  H    6.591495   7.172390   7.500921   5.451395   5.617324
    44  H    8.212457   8.440849   8.573820   6.320399   5.720835
    45  H    7.298008   7.449468   7.343022   5.447975   4.775368
    46  H    7.125538   7.125379   7.195645   4.892291   4.041857
                   16         17         18         19         20
    16  Cl   0.000000
    17  C    5.683840   0.000000
    18  Cl   3.717894   5.637375   0.000000
    19  Cl   3.667649   3.990825   3.617840   0.000000
    20  H    5.212515   3.155190   3.233010   3.821047   0.000000
    21  H    7.552524   4.882920   4.838968   6.012641   2.468905
    22  H    8.954677   6.169230   6.579385   8.106839   4.294528
    23  H    8.541781   6.184601   7.062116   8.565742   4.956273
    24  H    6.588048   4.952343   6.089134   7.216575   4.308791
    25  H    2.995329   4.643616   4.611123   5.038771   4.507462
    26  C    4.422659   5.676095   4.624274   6.308825   4.550026
    27  H    5.249127   5.768731   6.859068   7.262690   6.175689
    28  H    6.048009   5.216658   6.722716   7.364097   5.396068
    29  H    4.957005   4.174610   6.894047   6.058459   5.724328
    30  H    6.466163   4.479754   7.790275   7.245566   6.055275
    31  H    6.240524   2.645134   6.418259   5.976736   3.971749
    32  H    6.369080   1.092221   5.830077   4.739531   2.904748
    33  H    5.249295   1.094893   4.914384   3.022280   2.709539
    34  H    6.406318   1.100090   6.605855   4.484934   4.175580
    35  H    5.038991   2.973648   6.833294   4.569448   5.481760
    36  H    3.867634   2.643093   5.315486   2.806241   4.381446
    37  H    3.468397   3.453296   5.659093   4.117939   4.942315
    38  O    3.723077   6.068230   3.665542   5.834631   4.493124
    39  O    5.603814   6.462285   5.606611   7.461767   5.318978
    40  C    4.746076   7.387104   4.126939   6.918306   5.413787
    41  C    4.439944   8.082771   3.876875   6.823277   6.019097
    42  H    5.458246   7.386696   4.070901   7.114828   5.091324
    43  H    5.393425   8.025947   5.204423   7.831815   6.275530
    44  H    5.473772   9.087224   4.635735   7.788072   6.853191
    45  H    3.992451   8.279047   4.364170   6.870864   6.556557
    46  H    4.080732   7.657318   2.919161   6.039333   5.429722
                   21         22         23         24         25
    21  H    0.000000
    22  H    2.489999   0.000000
    23  H    4.304080   2.488124   0.000000
    24  H    4.960410   4.282779   2.446338   0.000000
    25  H    6.599920   7.265337   6.199527   3.926794   0.000000
    26  C    6.013198   6.140788   4.852843   2.870862   2.130110
    27  H    7.855957   7.815095   6.048238   3.634957   2.425741
    28  H    6.658389   6.279765   4.377968   2.020464   3.060244
    29  H    7.700268   8.149127   6.834719   4.520737   2.764922
    30  H    7.581790   7.543573   5.945123   3.835975   3.843347
    31  H    5.256534   5.450811   4.455841   2.849436   3.923611
    32  H    4.155283   5.225360   5.333718   4.442299   5.015562
    33  H    4.630246   6.308395   6.624111   5.473200   4.768057
    34  H    5.730147   6.989597   7.024584   5.841761   5.485652
    35  H    7.626424   8.752794   8.163539   6.230452   4.293752
    36  H    6.711416   8.226243   8.007440   6.208979   3.920224
    37  H    7.273236   8.362580   7.624620   5.472516   2.676890
    38  O    6.060016   6.551449   5.680645   3.987510   2.459679
    39  O    6.391831   6.037535   4.390885   2.612882   3.183522
    40  C    6.579509   6.868152   6.062480   4.786746   3.878260
    41  C    7.319155   7.959144   7.441500   6.181839   4.566805
    42  H    5.877727   6.029398   5.411433   4.555222   4.476064
    43  H    7.371659   7.363236   6.229994   4.898255   4.192566
    44  H    7.902474   8.403065   7.929468   6.895978   5.613346
    45  H    8.104239   8.802798   8.132194   6.608291   4.386624
    46  H    6.768970   7.716644   7.518769   6.354147   4.656859
                   26         27         28         29         30
    26  C    0.000000
    27  H    2.853482   0.000000
    28  H    2.696753   1.749866   0.000000
    29  H    4.305424   2.431309   3.063451   0.000000
    30  H    4.658472   2.650888   2.435708   1.758364   0.000000
    31  H    4.391174   3.970968   2.940127   3.084073   2.463952
    32  H    5.656184   5.934029   5.064047   4.644398   4.577860
    33  H    5.818774   6.290544   5.845519   4.801699   5.356627
    34  H    6.668875   6.440983   5.962689   4.555282   4.813476
    35  H    6.134232   5.119079   5.443732   2.802495   3.903114
    36  H    5.706511   5.527774   5.788054   3.682363   4.931811
    37  H    4.691884   3.944029   4.555307   2.145263   3.713415
    38  O    1.335117   3.910849   3.998657   5.103321   5.756561
    39  O    1.213157   3.040901   2.560165   4.912320   4.889451
    40  C    2.381790   5.007711   5.020049   6.489742   7.028384
    41  C    3.631477   6.051149   6.316184   7.314374   8.116142
    42  H    2.752277   5.554015   5.222260   6.974052   7.327129
    43  H    2.535819   4.804798   4.908079   6.624434   7.047300
    44  H    4.479521   6.926502   7.132752   8.339170   9.063352
    45  H    3.835989   5.843231   6.410148   7.084789   8.045628
    46  H    3.980082   6.471677   6.650831   7.410696   8.289010
                   31         32         33         34         35
    31  H    0.000000
    32  H    2.329902   0.000000
    33  H    3.543593   1.794179   0.000000
    34  H    3.255425   1.774955   1.760315   0.000000
    35  H    3.865252   3.925167   3.374924   2.835778   0.000000
    36  H    4.246723   3.689507   2.433249   2.881912   1.770417
    37  H    3.830293   4.296961   3.633209   3.848533   1.767620
    38  O    5.308178   6.149695   5.969211   7.096501   6.540796
    39  O    4.774250   6.289755   6.720784   7.436413   7.017085
    40  C    6.565171   7.376016   7.234942   8.443865   7.996018
    41  C    7.656768   8.206934   7.756203   9.116353   8.522540
    42  H    6.555795   7.230825   7.224783   8.474558   8.387920
    43  H    6.892751   7.992898   7.989452   9.058770   8.447742
    44  H    8.594591   9.152702   8.750841  10.136736   9.612666
    45  H    7.869640   8.524611   7.972604   9.259475   8.330338
    46  H    7.572379   7.810425   7.202723   8.685250   8.267540
                   36         37         38         39         40
    36  H    0.000000
    37  H    1.775574   0.000000
    38  O    5.780496   4.969289   0.000000
    39  O    6.762045   5.677154   2.262870   0.000000
    40  C    7.176694   6.411924   1.457797   2.712634   0.000000
    41  C    7.496456   6.869216   2.403291   4.161309   1.515285
    42  H    7.526742   6.922044   2.070473   2.881994   1.094574
    43  H    7.815074   6.844203   2.075581   2.463062   1.093011
    44  H    8.579137   7.961227   3.356331   4.796822   2.142656
    45  H    7.370511   6.607722   2.667577   4.448565   2.162001
    46  H    7.062100   6.686749   2.662114   4.691061   2.162439
                   41         42         43         44         45
    41  C    0.000000
    42  H    2.179541   0.000000
    43  H    2.183208   1.772533   0.000000
    44  H    1.095901   2.518492   2.520791   0.000000
    45  H    1.094349   3.085980   2.528185   1.777063   0.000000
    46  H    1.092973   2.524068   3.087789   1.778870   1.775734
                   46
    46  H    0.000000
 Stoichiometry    C17H22Cl3FeO3(6)
 Framework group  C1[X(C17H22Cl3FeO3)]
 Deg. of freedom   132
 Full point group                 C1      NOp   1
 Largest Abelian subgroup         C1      NOp   1
 Largest concise Abelian subgroup C1      NOp   1
                         Standard orientation:                         
 ---------------------------------------------------------------------
 Center     Atomic      Atomic             Coordinates (Angstroms)
 Number     Number       Type             X           Y           Z
 ---------------------------------------------------------------------
      1          6           0        3.204654   -0.109936    0.529890
      2          6           0        1.852763   -0.453975    0.727900
      3          6           0        1.406858   -0.707687    2.038653
      4          6           0        2.285709   -0.626978    3.116306
      5          6           0        3.623937   -0.293606    2.905525
      6          6           0        4.077868   -0.031008    1.609665
      7          6           0        0.859225   -0.526907   -0.389654
      8          6           0        1.020263    0.373370   -1.652875
      9          6           0        1.987165   -0.198913   -2.696239
     10          6           0        1.690820   -1.703015   -2.809516
     11          6           0        1.492992   -2.245881   -1.416038
     12          6           0        0.327911   -2.792069   -0.928645
     13          6           0       -0.948287   -2.843314   -1.709450
     14          8           0       -0.369921   -0.791882   -0.032943
     15         26           0       -2.051871   -0.026981    0.399169
     16         17           0       -2.897164    0.794721   -1.469814
     17          6           0        0.317119   -3.512826    0.379366
     18         17           0       -1.820674    1.435193    2.030715
     19         17           0       -3.201752   -1.782723    1.121645
     20          1           0        0.363935   -0.941498    2.207290
     21          1           0        1.918760   -0.814979    4.120926
     22          1           0        4.309466   -0.228478    3.745911
     23          1           0        5.114934    0.243027    1.439471
     24          1           0        3.577799    0.118956   -0.459579
     25          1           0        0.011643    0.416510   -2.076274
     26          6           0        1.402302    1.810677   -1.264031
     27          1           0        1.852437    0.316290   -3.652869
     28          1           0        3.023154   -0.022659   -2.397255
     29          1           0        0.801272   -1.864190   -3.425232
     30          1           0        2.517763   -2.225961   -3.304292
     31          1           0        2.400263   -2.445792   -0.852981
     32          1           0        1.250113   -3.398089    0.935517
     33          1           0       -0.531276   -3.192011    0.992632
     34          1           0        0.170501   -4.583659    0.174381
     35          1           0       -0.927545   -3.766782   -2.309295
     36          1           0       -1.817912   -2.895618   -1.051242
     37          1           0       -1.076878   -2.007744   -2.398539
     38          8           0        0.355701    2.451487   -0.738173
     39          8           0        2.502857    2.291805   -1.434452
     40          6           0        0.564258    3.835828   -0.331631
     41          6           0       -0.796745    4.475575   -0.145935
     42          1           0        1.146632    3.823976    0.595079
     43          1           0        1.159734    4.329771   -1.103707
     44          1           0       -0.666054    5.518494    0.164291
     45          1           0       -1.364947    4.460900   -1.081099
     46          1           0       -1.374089    3.951518    0.619982
 ---------------------------------------------------------------------
 Rotational constants (GHZ):           0.2001204           0.1670024           0.1450209
 Leave Link  202 at Sat Jun 19 21:34:57 2021, MaxMem=  2147483648 cpu:               0.2 elap:               0.1
 (Enter /SFS/product/gaussian/g16.a03/x86_64/avx/g16/l301.exe)
 Standard basis: Jul-CC-pVDZ (5D, 7F)
 Ernie: Thresh=  0.10000D-02 Tol=  0.10000D-05 Strict=F.
 Ernie:  134 primitive shells out of 958 were deleted.
 There are   766 symmetry adapted cartesian basis functions of A   symmetry.
 There are   710 symmetry adapted basis functions of A   symmetry.
   710 basis functions,  1571 primitive gaussians,   766 cartesian basis functions
   115 alpha electrons      110 beta electrons
       nuclear repulsion energy      3368.6976889697 Hartrees.
 IExCor=  402 DFT=T Ex+Corr=B3LYP ExCW=0 ScaHFX=  0.200000
 ScaDFX=  0.800000  0.720000  1.000000  0.810000 ScalE2=  1.000000  1.000000
 IRadAn=      5 IRanWt=     -1 IRanGd=            0 ICorTp=0 IEmpDi=  4
 NAtoms=   46 NActive=   46 NUniq=   46 SFac= 1.00D+00 NAtFMM=   60 NAOKFM=F Big=F
 Integral buffers will be    131072 words long.
 Raffenetti 2 integral format.
 Two-electron integral symmetry is turned on.
 Leave Link  301 at Sat Jun 19 21:34:57 2021, MaxMem=  2147483648 cpu:               1.1 elap:               0.1
 (Enter /SFS/product/gaussian/g16.a03/x86_64/avx/g16/l302.exe)
 NPDir=0 NMtPBC=     1 NCelOv=     1 NCel=       1 NClECP=     1 NCelD=      1
         NCelK=      1 NCelE2=     1 NClLst=     1 CellRange=     0.0.
 One-electron integrals computed using PRISM.
 One-electron integral symmetry used in STVInt
 NBasis=   710 RedAO= T EigKep=  1.72D-06  NBF=   710
 NBsUse=   710 1.00D-06 EigRej= -1.00D+00 NBFU=   710
 Precomputing XC quadrature grid using
 IXCGrd= 4 IRadAn=           5 IRanWt=          -1 IRanGd=           0 AccXCQ= 0.00D+00.
 Generated NRdTot=       0 NPtTot=           0 NUsed=           0 NTot=          32
 NSgBfM=   764   764   764   764   764 MxSgAt=    46 MxSgA2=    46.
 Leave Link  302 at Sat Jun 19 21:34:58 2021, MaxMem=  2147483648 cpu:              15.9 elap:               1.1
 (Enter /SFS/product/gaussian/g16.a03/x86_64/avx/g16/l303.exe)
 DipDrv:  MaxL=1.
 Leave Link  303 at Sat Jun 19 21:34:59 2021, MaxMem=  2147483648 cpu:               2.5 elap:               0.2
 (Enter /SFS/product/gaussian/g16.a03/x86_64/avx/g16/l401.exe)
 ExpMin= 1.40D-02 ExpMax= 4.32D+06 ExpMxC= 4.91D+03 IAcc=3 IRadAn=         5 AccDes= 0.00D+00
 Harris functional with IExCor=  402 and IRadAn=       5 diagonalized for initial guess.
 HarFok:  IExCor=  402 AccDes= 0.00D+00 IRadAn=         5 IDoV= 1 UseB2=F ITyADJ=14
 ICtDFT=  3500011 ScaDFX=  1.000000  1.000000  1.000000  1.000000
 FoFCou: FMM=F IPFlag=           0 FMFlag=      100000 FMFlg1=           0
         NFxFlg=           0 DoJE=T BraDBF=F KetDBF=T FulRan=T
         wScrn=  0.000000 ICntrl=       500 IOpCl=  0 I1Cent=   200000004 NGrid=           0
         NMat0=    1 NMatS0=      1 NMatT0=    0 NMatD0=    1 NMtDS0=    0 NMtDT0=    0
 Petite list used in FoFCou.
 Harris En= -3531.09034342134    
 JPrj=0 DoOrth=F DoCkMO=F.
 Initial guess <Sx>= 0.0000 <Sy>= 0.0000 <Sz>= 2.5000 <S**2>= 8.7500 S= 2.5000
 Leave Link  401 at Sat Jun 19 21:35:05 2021, MaxMem=  2147483648 cpu:             101.7 elap:               6.4
 (Enter /SFS/product/gaussian/g16.a03/x86_64/avx/g16/l502.exe)
 Integral symmetry usage will be decided dynamically.
 UHF open shell SCF:
 Using DIIS extrapolation, IDIIS=  1040.
 NGot=  2147483648 LenX=  2146290678 LenY=  2145703156
 Requested convergence on RMS density matrix=1.00D-08 within 128 cycles.
 Requested convergence on MAX density matrix=1.00D-06.
 Requested convergence on             energy=1.00D-06.
 No special actions if energy rises.
 Fock matrices will be formed incrementally for  20 cycles.

 Cycle   1  Pass 1  IDiag  1:
 FoFJK:  IHMeth= 1 ICntrl=       0 DoSepK=F KAlg= 0 I1Cent=           0 FoldK=F
 IRaf= 920000000 NMat=       1 IRICut=       1 DoRegI=T DoRafI=F ISym2E= 0 IDoP0=0 IntGTp=1.
 FoFCou: FMM=F IPFlag=           0 FMFlag=      100000 FMFlg1=           0
         NFxFlg=           0 DoJE=F BraDBF=F KetDBF=F FulRan=T
         wScrn=  0.000000 ICntrl=         0 IOpCl=  1 I1Cent=           0 NGrid=           0
         NMat0=    1 NMatS0=      1 NMatT0=    0 NMatD0=    1 NMtDS0=    0 NMtDT0=    0
 Symmetry not used in FoFCou.
 E= -3530.30940758173    
 DIIS: error= 2.02D-02 at cycle   1 NSaved=   1.
 NSaved= 1 IEnMin= 1 EnMin= -3530.30940758173     IErMin= 1 ErrMin= 2.02D-02
 ErrMax= 2.02D-02  0.00D+00 EMaxC= 1.00D-01 BMatC= 4.62D+00 BMatP= 4.62D+00
 IDIUse=3 WtCom= 7.98D-01 WtEn= 2.02D-01
 Coeff-Com:  0.100D+01
 Coeff-En:   0.100D+01
 Coeff:      0.100D+01
 Gap=     0.122 Goal=   None    Shift=    0.000
 Gap=    -0.130 Goal=   None    Shift=    0.000
 GapD=   -0.130 DampG=0.250 DampE=0.250 DampFc=0.1250 IDamp=-1.
 Damping current iteration by 1.25D-01
 RMSDP=3.74D-02 MaxDP=9.60D+00              OVMax= 9.21D-01

 Cycle   2  Pass 1  IDiag  1:
 RMSU=  2.73D-03    CP:  9.53D-01
 E= -3530.62163638236     Delta-E=       -0.312228800630 Rises=F Damp=T
 DIIS: error= 9.82D-03 at cycle   2 NSaved=   2.
 NSaved= 2 IEnMin= 2 EnMin= -3530.62163638236     IErMin= 2 ErrMin= 9.82D-03
 ErrMax= 9.82D-03  0.00D+00 EMaxC= 1.00D-01 BMatC= 1.24D+00 BMatP= 4.62D+00
 IDIUse=3 WtCom= 9.02D-01 WtEn= 9.82D-02
 Coeff-Com: -0.392D+00 0.139D+01
 Coeff-En:   0.410D-01 0.959D+00
 Coeff:     -0.349D+00 0.135D+01
 Gap=     0.019 Goal=   None    Shift=    0.000
 Gap=    -0.016 Goal=   None    Shift=    0.000
 RMSDP=2.95D-02 MaxDP=9.37D+00 DE=-3.12D-01 OVMax= 9.52D-01

 Cycle   3  Pass 1  IDiag  1:
 RMSU=  8.25D-03    CP:  6.05D-01  2.16D+00
 E= -3529.99324460718     Delta-E=        0.628391775185 Rises=F Damp=F
 DIIS: error= 3.43D-02 at cycle   3 NSaved=   3.
 NSaved= 3 IEnMin= 2 EnMin= -3530.62163638236     IErMin= 2 ErrMin= 9.82D-03
 ErrMax= 3.43D-02  0.00D+00 EMaxC= 1.00D-01 BMatC= 6.08D+00 BMatP= 1.24D+00
 IDIUse=2 WtCom= 0.00D+00 WtEn= 1.00D+00
 Coeff-En:   0.000D+00 0.729D+00 0.271D+00
 Coeff:      0.000D+00 0.729D+00 0.271D+00
 Gap=    -0.202 Goal=   None    Shift=    0.000
 Gap=     0.197 Goal=   None    Shift=    0.000
 RMSDP=7.99D-03 MaxDP=1.43D+00 DE= 6.28D-01 OVMax= 7.90D-01

 Cycle   4  Pass 1  IDiag  1:
 RMSU=  5.65D-03    CP:  6.25D-01  3.00D+00  4.96D-01
 E= -3521.51012403329     Delta-E=        8.483120573888 Rises=F Damp=F
 DIIS: error= 9.56D-02 at cycle   4 NSaved=   4.
 NSaved= 4 IEnMin= 2 EnMin= -3530.62163638236     IErMin= 2 ErrMin= 9.82D-03
 ErrMax= 9.56D-02  0.00D+00 EMaxC= 1.00D-01 BMatC= 4.77D+01 BMatP= 1.24D+00
 IDIUse=2 WtCom= 0.00D+00 WtEn= 1.00D+00
 EnCoef did   100 forward-backward iterations
 Coeff-En:   0.372D+00 0.565D-02 0.432D+00 0.191D+00
 Coeff:      0.372D+00 0.565D-02 0.432D+00 0.191D+00
 Gap=     0.115 Goal=   None    Shift=    0.000
 Gap=     0.037 Goal=   None    Shift=    0.000
 RMSDP=5.73D-03 MaxDP=7.03D-01 DE= 8.48D+00 OVMax= 9.71D-01

 Cycle   5  Pass 1  IDiag  1:
 RMSU=  3.47D-03    CP:  6.34D-01  2.15D+00  6.46D-01  5.50D-01
 E= -3530.71896297384     Delta-E=       -9.208838940554 Rises=F Damp=F
 DIIS: error= 4.26D-02 at cycle   5 NSaved=   5.
 NSaved= 5 IEnMin= 5 EnMin= -3530.71896297384     IErMin= 2 ErrMin= 9.82D-03
 ErrMax= 4.26D-02  0.00D+00 EMaxC= 1.00D-01 BMatC= 4.28D+00 BMatP= 1.24D+00
 IDIUse=2 WtCom= 0.00D+00 WtEn= 1.00D+00
 Coeff-En:   0.000D+00 0.000D+00 0.382D+00 0.000D+00 0.618D+00
 Coeff:      0.000D+00 0.000D+00 0.382D+00 0.000D+00 0.618D+00
 Gap=     0.121 Goal=   None    Shift=    0.000
 Gap=     0.130 Goal=   None    Shift=    0.000
 RMSDP=4.60D-03 MaxDP=8.29D-01 DE=-9.21D+00 OVMax= 3.93D-01

 Cycle   6  Pass 1  IDiag  1:
 RMSU=  2.83D-03    CP:  6.65D-01  1.56D+00  6.55D-01  3.18D-01  5.24D-01
 E= -3531.17321085255     Delta-E=       -0.454247878711 Rises=F Damp=F
 DIIS: error= 1.36D-02 at cycle   6 NSaved=   6.
 NSaved= 6 IEnMin= 6 EnMin= -3531.17321085255     IErMin= 2 ErrMin= 9.82D-03
 ErrMax= 1.36D-02  0.00D+00 EMaxC= 1.00D-01 BMatC= 1.21D+00 BMatP= 1.24D+00
 IDIUse=3 WtCom= 8.64D-01 WtEn= 1.36D-01
 Coeff-Com: -0.353D+00 0.647D+00 0.222D+00-0.437D-03 0.183D+00 0.301D+00
 Coeff-En:   0.000D+00 0.000D+00 0.000D+00 0.000D+00 0.319D+00 0.681D+00
 Coeff:     -0.305D+00 0.559D+00 0.192D+00-0.377D-03 0.202D+00 0.352D+00
 Gap=     0.121 Goal=   None    Shift=    0.000
 Gap=     0.193 Goal=   None    Shift=    0.000
 RMSDP=3.56D-03 MaxDP=7.77D-01 DE=-4.54D-01 OVMax= 1.73D-01

 Cycle   7  Pass 1  IDiag  1:
 RMSU=  1.49D-03    CP:  6.41D-01  1.91D+00  6.85D-01  4.04D-01  7.22D-01
                    CP:  1.91D-01
 E= -3531.36665828015     Delta-E=       -0.193447427595 Rises=F Damp=F
 DIIS: error= 5.70D-03 at cycle   7 NSaved=   7.
 NSaved= 7 IEnMin= 7 EnMin= -3531.36665828015     IErMin= 7 ErrMin= 5.70D-03
 ErrMax= 5.70D-03  0.00D+00 EMaxC= 1.00D-01 BMatC= 1.87D-01 BMatP= 1.21D+00
 IDIUse=3 WtCom= 9.43D-01 WtEn= 5.70D-02
 Coeff-Com: -0.138D+00 0.199D+00 0.362D-01 0.751D-02-0.278D-01 0.274D+00
 Coeff-Com:  0.649D+00
 Coeff-En:   0.000D+00 0.000D+00 0.000D+00 0.000D+00 0.000D+00 0.198D+00
 Coeff-En:   0.802D+00
 Coeff:     -0.130D+00 0.187D+00 0.342D-01 0.708D-02-0.262D-01 0.270D+00
 Coeff:      0.658D+00
 Gap=     0.129 Goal=   None    Shift=    0.000
 Gap=     0.149 Goal=   None    Shift=    0.000
 RMSDP=1.22D-03 MaxDP=1.45D-01 DE=-1.93D-01 OVMax= 7.93D-02

 Cycle   8  Pass 1  IDiag  1:
 RMSU=  8.97D-04    CP:  6.44D-01  1.85D+00  6.89D-01  4.08D-01  7.01D-01
                    CP:  4.21D-01  6.93D-01
 E= -3531.39878926449     Delta-E=       -0.032130984338 Rises=F Damp=F
 DIIS: error= 2.70D-03 at cycle   8 NSaved=   8.
 NSaved= 8 IEnMin= 8 EnMin= -3531.39878926449     IErMin= 8 ErrMin= 2.70D-03
 ErrMax= 2.70D-03  0.00D+00 EMaxC= 1.00D-01 BMatC= 6.56D-02 BMatP= 1.87D-01
 IDIUse=3 WtCom= 9.73D-01 WtEn= 2.70D-02
 Coeff-Com: -0.751D-01 0.102D+00 0.287D-02 0.742D-02-0.424D-01 0.122D+00
 Coeff-Com:  0.463D+00 0.420D+00
 Coeff-En:   0.000D+00 0.000D+00 0.000D+00 0.000D+00 0.000D+00 0.000D+00
 Coeff-En:   0.224D+00 0.776D+00
 Coeff:     -0.731D-01 0.997D-01 0.279D-02 0.722D-02-0.412D-01 0.119D+00
 Coeff:      0.457D+00 0.429D+00
 Gap=     0.138 Goal=   None    Shift=    0.000
 Gap=     0.140 Goal=   None    Shift=    0.000
 RMSDP=5.60D-04 MaxDP=5.37D-02 DE=-3.21D-02 OVMax= 2.95D-02

 Cycle   9  Pass 1  IDiag  1:
 RMSU=  3.60D-04    CP:  6.46D-01  1.83D+00  6.80D-01  4.07D-01  6.65D-01
                    CP:  4.53D-01  8.22D-01  6.65D-01
 E= -3531.40790235024     Delta-E=       -0.009113085750 Rises=F Damp=F
 DIIS: error= 1.79D-03 at cycle   9 NSaved=   9.
 NSaved= 9 IEnMin= 9 EnMin= -3531.40790235024     IErMin= 9 ErrMin= 1.79D-03
 ErrMax= 1.79D-03  0.00D+00 EMaxC= 1.00D-01 BMatC= 1.87D-02 BMatP= 6.56D-02
 IDIUse=3 WtCom= 9.82D-01 WtEn= 1.79D-02
 Coeff-Com: -0.267D-01 0.422D-01-0.508D-02 0.146D-02 0.125D-01-0.591D-01
 Coeff-Com:  0.976D-02 0.155D+00 0.870D+00
 Coeff-En:   0.000D+00 0.000D+00 0.000D+00 0.000D+00 0.000D+00 0.000D+00
 Coeff-En:   0.395D-02 0.000D+00 0.996D+00
 Coeff:     -0.262D-01 0.414D-01-0.499D-02 0.143D-02 0.123D-01-0.580D-01
 Coeff:      0.965D-02 0.153D+00 0.872D+00
 Gap=     0.144 Goal=   None    Shift=    0.000
 Gap=     0.138 Goal=   None    Shift=    0.000
 RMSDP=3.39D-04 MaxDP=5.14D-02 DE=-9.11D-03 OVMax= 1.68D-02

 Cycle  10  Pass 1  IDiag  1:
 RMSU=  2.57D-04    CP:  6.47D-01  1.84D+00  6.68D-01  4.22D-01  6.87D-01
                    CP:  4.43D-01  8.81D-01  7.23D-01  1.11D+00
 E= -3531.41087496049     Delta-E=       -0.002972610253 Rises=F Damp=F
 DIIS: error= 4.37D-04 at cycle  10 NSaved=  10.
 NSaved=10 IEnMin=10 EnMin= -3531.41087496049     IErMin=10 ErrMin= 4.37D-04
 ErrMax= 4.37D-04  0.00D+00 EMaxC= 1.00D-01 BMatC= 2.96D-03 BMatP= 1.87D-02
 IDIUse=3 WtCom= 9.96D-01 WtEn= 4.37D-03
 Coeff-Com: -0.246D-02 0.613D-02-0.545D-02 0.307D-04 0.206D-01-0.629D-01
 Coeff-Com: -0.724D-01 0.201D-01 0.595D+00 0.501D+00
 Coeff-En:   0.000D+00 0.000D+00 0.000D+00 0.000D+00 0.000D+00 0.000D+00
 Coeff-En:   0.000D+00 0.000D+00 0.000D+00 0.100D+01
 Coeff:     -0.245D-02 0.610D-02-0.543D-02 0.306D-04 0.205D-01-0.627D-01
 Coeff:     -0.721D-01 0.200D-01 0.593D+00 0.503D+00
 Gap=     0.144 Goal=   None    Shift=    0.000
 Gap=     0.135 Goal=   None    Shift=    0.000
 RMSDP=1.65D-04 MaxDP=1.37D-02 DE=-2.97D-03 OVMax= 9.79D-03

 Cycle  11  Pass 1  IDiag  1:
 RMSU=  1.25D-04    CP:  6.47D-01  1.85D+00  6.68D-01  4.25D-01  6.87D-01
                    CP:  4.41D-01  8.45D-01  7.97D-01  1.18D+00  8.19D-01
 E= -3531.41146699791     Delta-E=       -0.000592037426 Rises=F Damp=F
 DIIS: error= 1.46D-04 at cycle  11 NSaved=  11.
 NSaved=11 IEnMin=11 EnMin= -3531.41146699791     IErMin=11 ErrMin= 1.46D-04
 ErrMax= 1.46D-04  0.00D+00 EMaxC= 1.00D-01 BMatC= 3.14D-04 BMatP= 2.96D-03
 IDIUse=3 WtCom= 9.99D-01 WtEn= 1.46D-03
 Coeff-Com:  0.817D-03 0.741D-03-0.167D-02-0.176D-03 0.619D-02-0.207D-01
 Coeff-Com: -0.218D-01-0.119D-01 0.118D+00 0.261D+00 0.670D+00
 Coeff-En:   0.000D+00 0.000D+00 0.000D+00 0.000D+00 0.000D+00 0.000D+00
 Coeff-En:   0.000D+00 0.000D+00 0.000D+00 0.336D-02 0.997D+00
 Coeff:      0.816D-03 0.740D-03-0.167D-02-0.176D-03 0.618D-02-0.207D-01
 Coeff:     -0.218D-01-0.119D-01 0.117D+00 0.261D+00 0.670D+00
 Gap=     0.144 Goal=   None    Shift=    0.000
 Gap=     0.135 Goal=   None    Shift=    0.000
 RMSDP=5.65D-05 MaxDP=7.06D-03 DE=-5.92D-04 OVMax= 2.85D-03

 Cycle  12  Pass 1  IDiag  1:
 RMSU=  4.19D-05    CP:  6.47D-01  1.85D+00  6.67D-01  4.25D-01  6.87D-01
                    CP:  4.39D-01  8.58D-01  7.89D-01  1.23D+00  8.68D-01
                    CP:  8.32D-01
 E= -3531.41153410212     Delta-E=       -0.000067104201 Rises=F Damp=F
 DIIS: error= 7.38D-05 at cycle  12 NSaved=  12.
 NSaved=12 IEnMin=12 EnMin= -3531.41153410212     IErMin=12 ErrMin= 7.38D-05
 ErrMax= 7.38D-05  0.00D+00 EMaxC= 1.00D-01 BMatC= 5.21D-05 BMatP= 3.14D-04
 IDIUse=1 WtCom= 1.00D+00 WtEn= 0.00D+00
 Coeff-Com:  0.103D-02-0.657D-03-0.280D-03-0.176D-04-0.239D-03-0.135D-02
 Coeff-Com:  0.446D-02-0.454D-02-0.214D-01 0.739D-01 0.382D+00 0.567D+00
 Coeff:      0.103D-02-0.657D-03-0.280D-03-0.176D-04-0.239D-03-0.135D-02
 Coeff:      0.446D-02-0.454D-02-0.214D-01 0.739D-01 0.382D+00 0.567D+00
 Gap=     0.144 Goal=   None    Shift=    0.000
 Gap=     0.135 Goal=   None    Shift=    0.000
 RMSDP=2.52D-05 MaxDP=2.93D-03 DE=-6.71D-05 OVMax= 1.99D-03

 Cycle  13  Pass 1  IDiag  1:
 RMSU=  1.98D-05    CP:  6.47D-01  1.85D+00  6.67D-01  4.25D-01  6.88D-01
                    CP:  4.37D-01  8.59D-01  7.85D-01  1.21D+00  8.78D-01
                    CP:  9.02D-01  7.84D-01
 E= -3531.41154875759     Delta-E=       -0.000014655474 Rises=F Damp=F
 DIIS: error= 2.36D-05 at cycle  13 NSaved=  13.
 NSaved=13 IEnMin=13 EnMin= -3531.41154875759     IErMin=13 ErrMin= 2.36D-05
 ErrMax= 2.36D-05  0.00D+00 EMaxC= 1.00D-01 BMatC= 4.70D-06 BMatP= 5.21D-05
 IDIUse=1 WtCom= 1.00D+00 WtEn= 0.00D+00
 Coeff-Com:  0.680D-03-0.713D-03-0.877D-04-0.346D-05-0.465D-03 0.607D-03
 Coeff-Com:  0.303D-02-0.107D-02-0.166D-01 0.147D-01 0.104D+00 0.270D+00
 Coeff-Com:  0.627D+00
 Coeff:      0.680D-03-0.713D-03-0.877D-04-0.346D-05-0.465D-03 0.607D-03
 Coeff:      0.303D-02-0.107D-02-0.166D-01 0.147D-01 0.104D+00 0.270D+00
 Coeff:      0.627D+00
 Gap=     0.144 Goal=   None    Shift=    0.000
 Gap=     0.135 Goal=   None    Shift=    0.000
 RMSDP=1.01D-05 MaxDP=1.33D-03 DE=-1.47D-05 OVMax= 8.86D-04

 Cycle  14  Pass 1  IDiag  1:
 RMSU=  9.30D-06    CP:  6.47D-01  1.85D+00  6.67D-01  4.25D-01  6.88D-01
                    CP:  4.37D-01  8.60D-01  7.87D-01  1.22D+00  8.83D-01
                    CP:  9.02D-01  8.49D-01  1.02D+00
 E= -3531.41155053243     Delta-E=       -0.000001774838 Rises=F Damp=F
 DIIS: error= 1.19D-05 at cycle  14 NSaved=  14.
 NSaved=14 IEnMin=14 EnMin= -3531.41155053243     IErMin=14 ErrMin= 1.19D-05
 ErrMax= 1.19D-05  0.00D+00 EMaxC= 1.00D-01 BMatC= 1.27D-06 BMatP= 4.70D-06
 IDIUse=1 WtCom= 1.00D+00 WtEn= 0.00D+00
 Coeff-Com: -0.819D-04 0.553D-04 0.111D-03-0.674D-05-0.144D-03 0.626D-03
 Coeff-Com: -0.406D-03 0.708D-03-0.177D-04-0.179D-01-0.865D-01-0.578D-01
 Coeff-Com:  0.336D+00 0.825D+00
 Coeff:     -0.819D-04 0.553D-04 0.111D-03-0.674D-05-0.144D-03 0.626D-03
 Coeff:     -0.406D-03 0.708D-03-0.177D-04-0.179D-01-0.865D-01-0.578D-01
 Coeff:      0.336D+00 0.825D+00
 Gap=     0.144 Goal=   None    Shift=    0.000
 Gap=     0.135 Goal=   None    Shift=    0.000
 RMSDP=8.73D-06 MaxDP=7.52D-04 DE=-1.77D-06 OVMax= 8.76D-04

 Cycle  15  Pass 1  IDiag  1:
 RMSU=  5.61D-06    CP:  6.47D-01  1.85D+00  6.67D-01  4.25D-01  6.88D-01
                    CP:  4.37D-01  8.60D-01  7.87D-01  1.22D+00  8.87D-01
                    CP:  9.04D-01  9.16D-01  1.25D+00  1.24D+00
 E= -3531.41155130311     Delta-E=       -0.000000770687 Rises=F Damp=F
 DIIS: error= 5.79D-06 at cycle  15 NSaved=  15.
 NSaved=15 IEnMin=15 EnMin= -3531.41155130311     IErMin=15 ErrMin= 5.79D-06
 ErrMax= 5.79D-06  0.00D+00 EMaxC= 1.00D-01 BMatC= 4.69D-07 BMatP= 1.27D-06
 IDIUse=1 WtCom= 1.00D+00 WtEn= 0.00D+00
 Coeff-Com: -0.117D-03 0.698D-04 0.728D-04-0.358D-05 0.249D-04 0.158D-03
 Coeff-Com: -0.101D-02 0.776D-03 0.459D-02-0.120D-01-0.654D-01-0.927D-01
 Coeff-Com:  0.334D-01 0.424D+00 0.708D+00
 Coeff:     -0.117D-03 0.698D-04 0.728D-04-0.358D-05 0.249D-04 0.158D-03
 Coeff:     -0.101D-02 0.776D-03 0.459D-02-0.120D-01-0.654D-01-0.927D-01
 Coeff:      0.334D-01 0.424D+00 0.708D+00
 Gap=     0.144 Goal=   None    Shift=    0.000
 Gap=     0.135 Goal=   None    Shift=    0.000
 RMSDP=4.35D-06 MaxDP=5.04D-04 DE=-7.71D-07 OVMax= 3.69D-04

 Cycle  16  Pass 1  IDiag  1:
 RMSU=  2.56D-06    CP:  6.47D-01  1.85D+00  6.67D-01  4.25D-01  6.88D-01
                    CP:  4.37D-01  8.60D-01  7.88D-01  1.22D+00  8.87D-01
                    CP:  9.06D-01  9.52D-01  1.35D+00  1.48D+00  1.10D+00
 E= -3531.41155150807     Delta-E=       -0.000000204956 Rises=F Damp=F
 DIIS: error= 3.13D-06 at cycle  16 NSaved=  16.
 NSaved=16 IEnMin=16 EnMin= -3531.41155150807     IErMin=16 ErrMin= 3.13D-06
 ErrMax= 3.13D-06  0.00D+00 EMaxC= 1.00D-01 BMatC= 1.30D-07 BMatP= 4.69D-07
 IDIUse=1 WtCom= 1.00D+00 WtEn= 0.00D+00
 Coeff-Com: -0.126D-03 0.167D-03 0.490D-04-0.947D-06 0.171D-04-0.103D-03
 Coeff-Com: -0.552D-03 0.351D-03 0.299D-02-0.223D-02-0.143D-01-0.409D-01
 Coeff-Com: -0.697D-01 0.362D-01 0.408D+00 0.680D+00
 Coeff:     -0.126D-03 0.167D-03 0.490D-04-0.947D-06 0.171D-04-0.103D-03
 Coeff:     -0.552D-03 0.351D-03 0.299D-02-0.223D-02-0.143D-01-0.409D-01
 Coeff:     -0.697D-01 0.362D-01 0.408D+00 0.680D+00
 Gap=     0.144 Goal=   None    Shift=    0.000
 Gap=     0.135 Goal=   None    Shift=    0.000
 RMSDP=2.37D-06 MaxDP=3.32D-04 DE=-2.05D-07 OVMax= 1.91D-04

 Cycle  17  Pass 1  IDiag  1:
 RMSU=  1.02D-06    CP:  6.47D-01  1.85D+00  6.67D-01  4.25D-01  6.88D-01
                    CP:  4.37D-01  8.60D-01  7.88D-01  1.22D+00  8.86D-01
                    CP:  9.08D-01  9.63D-01  1.41D+00  1.59D+00  1.28D+00
                    CP:  1.17D+00
 E= -3531.41155156852     Delta-E=       -0.000000060454 Rises=F Damp=F
 DIIS: error= 1.43D-06 at cycle  17 NSaved=  17.
 NSaved=17 IEnMin=17 EnMin= -3531.41155156852     IErMin=17 ErrMin= 1.43D-06
 ErrMax= 1.43D-06  0.00D+00 EMaxC= 1.00D-01 BMatC= 2.30D-08 BMatP= 1.30D-07
 IDIUse=1 WtCom= 1.00D+00 WtEn= 0.00D+00
 Coeff-Com: -0.223D-04 0.481D-04 0.631D-05-0.291D-06 0.306D-05-0.894D-04
 Coeff-Com: -0.699D-04 0.263D-04 0.308D-03 0.179D-02 0.826D-02 0.141D-02
 Coeff-Com: -0.466D-01-0.846D-01 0.402D-01 0.371D+00 0.709D+00
 Coeff:     -0.223D-04 0.481D-04 0.631D-05-0.291D-06 0.306D-05-0.894D-04
 Coeff:     -0.699D-04 0.263D-04 0.308D-03 0.179D-02 0.826D-02 0.141D-02
 Coeff:     -0.466D-01-0.846D-01 0.402D-01 0.371D+00 0.709D+00
 Gap=     0.144 Goal=   None    Shift=    0.000
 Gap=     0.135 Goal=   None    Shift=    0.000
 RMSDP=1.35D-06 MaxDP=1.91D-04 DE=-6.05D-08 OVMax= 9.16D-05

 Cycle  18  Pass 1  IDiag  1:
 RMSU=  5.94D-07    CP:  6.47D-01  1.85D+00  6.67D-01  4.25D-01  6.88D-01
                    CP:  4.37D-01  8.60D-01  7.88D-01  1.22D+00  8.87D-01
                    CP:  9.08D-01  9.73D-01  1.43D+00  1.65D+00  1.39D+00
                    CP:  1.39D+00  1.30D+00
 E= -3531.41155158300     Delta-E=       -0.000000014475 Rises=F Damp=F
 DIIS: error= 9.20D-07 at cycle  18 NSaved=  18.
 NSaved=18 IEnMin=18 EnMin= -3531.41155158300     IErMin=18 ErrMin= 9.20D-07
 ErrMax= 9.20D-07  0.00D+00 EMaxC= 1.00D-01 BMatC= 8.45D-09 BMatP= 2.30D-08
 IDIUse=1 WtCom= 1.00D+00 WtEn= 0.00D+00
 Coeff-Com:  0.165D-04-0.120D-04-0.922D-05-0.634D-08 0.568D-05-0.266D-04
 Coeff-Com:  0.640D-04-0.124D-03-0.665D-03 0.141D-02 0.750D-02 0.111D-01
 Coeff-Com: -0.631D-02-0.517D-01-0.881D-01 0.161D-01 0.393D+00 0.717D+00
 Coeff:      0.165D-04-0.120D-04-0.922D-05-0.634D-08 0.568D-05-0.266D-04
 Coeff:      0.640D-04-0.124D-03-0.665D-03 0.141D-02 0.750D-02 0.111D-01
 Coeff:     -0.631D-02-0.517D-01-0.881D-01 0.161D-01 0.393D+00 0.717D+00
 Gap=     0.144 Goal=   None    Shift=    0.000
 Gap=     0.135 Goal=   None    Shift=    0.000
 RMSDP=7.73D-07 MaxDP=1.20D-04 DE=-1.45D-08 OVMax= 5.37D-05

 Cycle  19  Pass 1  IDiag  1:
 RMSU=  3.25D-07    CP:  6.47D-01  1.85D+00  6.67D-01  4.25D-01  6.88D-01
                    CP:  4.37D-01  8.60D-01  7.88D-01  1.22D+00  8.88D-01
                    CP:  9.09D-01  9.75D-01  1.44D+00  1.68D+00  1.44D+00
                    CP:  1.53D+00  1.56D+00  1.21D+00
 E= -3531.41155158784     Delta-E=       -0.000000004842 Rises=F Damp=F
 DIIS: error= 4.74D-07 at cycle  19 NSaved=  19.
 NSaved=19 IEnMin=19 EnMin= -3531.41155158784     IErMin=19 ErrMin= 4.74D-07
 ErrMax= 4.74D-07  0.00D+00 EMaxC= 1.00D-01 BMatC= 1.36D-09 BMatP= 8.45D-09
 IDIUse=1 WtCom= 1.00D+00 WtEn= 0.00D+00
 Coeff-Com:  0.139D-04-0.188D-04-0.621D-05-0.485D-07 0.129D-05 0.162D-04
 Coeff-Com:  0.656D-04-0.757D-04-0.441D-03 0.148D-04 0.930D-03 0.464D-02
 Coeff-Com:  0.120D-01 0.219D-02-0.489D-01-0.110D+00-0.457D-01 0.269D+00
 Coeff-Com:  0.917D+00
 Coeff:      0.139D-04-0.188D-04-0.621D-05-0.485D-07 0.129D-05 0.162D-04
 Coeff:      0.656D-04-0.757D-04-0.441D-03 0.148D-04 0.930D-03 0.464D-02
 Coeff:      0.120D-01 0.219D-02-0.489D-01-0.110D+00-0.457D-01 0.269D+00
 Coeff:      0.917D+00
 Gap=     0.144 Goal=   None    Shift=    0.000
 Gap=     0.135 Goal=   None    Shift=    0.000
 RMSDP=5.03D-07 MaxDP=6.78D-05 DE=-4.84D-09 OVMax= 2.94D-05

 Cycle  20  Pass 1  IDiag  1:
 RMSU=  1.56D-07    CP:  6.47D-01  1.85D+00  6.67D-01  4.25D-01  6.88D-01
                    CP:  4.37D-01  8.60D-01  7.88D-01  1.22D+00  8.88D-01
                    CP:  9.09D-01  9.78D-01  1.45D+00  1.69D+00  1.47D+00
                    CP:  1.62D+00  1.79D+00  1.48D+00  1.26D+00
 E= -3531.41155158906     Delta-E=       -0.000000001223 Rises=F Damp=F
 DIIS: error= 2.31D-07 at cycle  20 NSaved=  20.
 NSaved=20 IEnMin=20 EnMin= -3531.41155158906     IErMin=20 ErrMin= 2.31D-07
 ErrMax= 2.31D-07  0.00D+00 EMaxC= 1.00D-01 BMatC= 3.18D-10 BMatP= 1.36D-09
 IDIUse=1 WtCom= 1.00D+00 WtEn= 0.00D+00
 Coeff-Com:  0.202D-05-0.461D-05-0.786D-06 0.537D-07-0.184D-05 0.126D-04
 Coeff-Com:  0.244D-04-0.105D-04-0.616D-04-0.217D-03-0.700D-03 0.165D-03
 Coeff-Com:  0.644D-02 0.907D-02-0.626D-02-0.536D-01-0.843D-01-0.136D-01
 Coeff-Com:  0.404D+00 0.739D+00
 Coeff:      0.202D-05-0.461D-05-0.786D-06 0.537D-07-0.184D-05 0.126D-04
 Coeff:      0.244D-04-0.105D-04-0.616D-04-0.217D-03-0.700D-03 0.165D-03
 Coeff:      0.644D-02 0.907D-02-0.626D-02-0.536D-01-0.843D-01-0.136D-01
 Coeff:      0.404D+00 0.739D+00
 Gap=     0.144 Goal=   None    Shift=    0.000
 Gap=     0.135 Goal=   None    Shift=    0.000
 RMSDP=1.78D-07 MaxDP=2.55D-05 DE=-1.22D-09 OVMax= 9.63D-06

 Cycle  21  Pass 1  IDiag  1:
 Restarting incremental Fock formation.
 E= -3531.41155158929     Delta-E=       -0.000000000227 Rises=F Damp=F
 DIIS: error= 1.37D-07 at cycle  21 NSaved=  20.
 NSaved=20 IEnMin=20 EnMin= -3531.41155158929     IErMin=20 ErrMin= 1.37D-07
 ErrMax= 1.37D-07  0.00D+00 EMaxC= 1.00D-01 BMatC= 7.84D-11 BMatP= 3.18D-10
 IDIUse=1 WtCom= 1.00D+00 WtEn= 0.00D+00
 Coeff-Com: -0.167D-05 0.108D-05 0.803D-06-0.127D-05 0.339D-05-0.117D-05
 Coeff-Com:  0.986D-05 0.634D-04-0.942D-04-0.483D-03-0.776D-03 0.823D-03
 Coeff-Com:  0.392D-02 0.574D-02-0.504D-02-0.302D-01-0.551D-01 0.806D-02
 Coeff-Com:  0.346D+00 0.728D+00
 Coeff:     -0.167D-05 0.108D-05 0.803D-06-0.127D-05 0.339D-05-0.117D-05
 Coeff:      0.986D-05 0.634D-04-0.942D-04-0.483D-03-0.776D-03 0.823D-03
 Coeff:      0.392D-02 0.574D-02-0.504D-02-0.302D-01-0.551D-01 0.806D-02
 Coeff:      0.346D+00 0.728D+00
 Gap=     0.144 Goal=   None    Shift=    0.000
 Gap=     0.135 Goal=   None    Shift=    0.000
[...]
    13   Atom       -0.009016      0.009796     -0.000780
    14   Atom       -0.051260     -0.007952      0.059211
    15   Atom        0.081164      0.039150     -0.120313
    16   Atom       -0.096654     -0.091970      0.188624
    17   Atom       -0.000320      0.009652     -0.009332
    18   Atom       -0.159513      0.059171      0.100342
    19   Atom       -0.069927      0.158312     -0.088384
    20   Atom        0.014974     -0.017272      0.002298
    21   Atom        0.002427     -0.003913      0.001485
    22   Atom        0.002613     -0.001908     -0.000705
    23   Atom        0.003722     -0.001860     -0.001861
    24   Atom        0.007596     -0.003866     -0.003729
    25   Atom        0.004353     -0.017949      0.013596
    26   Atom        0.008069     -0.002586     -0.005483
    27   Atom        0.001379     -0.003785      0.002406
    28   Atom        0.004864     -0.003608     -0.001256
    29   Atom       -0.000788     -0.003964      0.004752
    30   Atom        0.001610     -0.002387      0.000777
    31   Atom        0.008214     -0.002936     -0.005278
    32   Atom        0.002892      0.002844     -0.005736
    33   Atom       -0.004471      0.018069     -0.013598
    34   Atom       -0.002183      0.007644     -0.005462
    35   Atom       -0.005087      0.005367     -0.000280
    36   Atom       -0.018563      0.026376     -0.007813
    37   Atom       -0.010873     -0.001700      0.012573
    38   Atom        0.002894      0.005718     -0.008612
    39   Atom        0.003633     -0.001743     -0.001890
    40   Atom       -0.000631      0.006270     -0.005639
    41   Atom       -0.005156      0.010798     -0.005642
    42   Atom        0.001189      0.004181     -0.005370
    43   Atom       -0.000093      0.003094     -0.003001
    44   Atom       -0.003101      0.006641     -0.003540
    45   Atom       -0.005602      0.009639     -0.004037
    46   Atom       -0.009890      0.018976     -0.009086
 --------------------------------------------------------
                        XY            XZ            YZ
 --------------------------------------------------------
     1   Atom        0.000779      0.000565     -0.000361
     2   Atom       -0.002149      0.009947      0.001920
     3   Atom       -0.004119      0.013336     -0.001474
     4   Atom       -0.001822      0.006510     -0.000535
     5   Atom        0.000428      0.003257     -0.000454
     6   Atom       -0.000403      0.002026      0.000317
     7   Atom        0.013171     -0.022342     -0.009166
     8   Atom        0.006837     -0.020102     -0.010053
     9   Atom        0.000200     -0.007963      0.000638
    10   Atom       -0.003370     -0.007289      0.003243
    11   Atom       -0.021901     -0.015420      0.031127
    12   Atom       -0.020749     -0.011208      0.021100
    13   Atom       -0.008598     -0.006484      0.018078
    14   Atom       -0.227140      0.063757      0.035198
    15   Atom       -0.052210     -0.074718     -0.011525
    16   Atom       -0.057682      0.161947     -0.140996
    17   Atom       -0.012743     -0.000581     -0.000204
    18   Atom        0.032720      0.051928      0.226242
    19   Atom        0.187224     -0.049249     -0.124431
    20   Atom       -0.012523      0.027670     -0.008256
    21   Atom       -0.001283      0.006061     -0.001044
    22   Atom       -0.000135      0.002144     -0.000075
    23   Atom        0.000219      0.000727      0.000061
    24   Atom        0.000551     -0.001702      0.000063
    25   Atom        0.005362     -0.026499     -0.009367
    26   Atom        0.009618     -0.008093     -0.004474
    27   Atom        0.000675     -0.005880     -0.001149
    28   Atom        0.000583     -0.004775     -0.000296
    29   Atom       -0.003180     -0.006538      0.003877
    30   Atom       -0.002080     -0.004344      0.001620
    31   Atom       -0.006764     -0.001253      0.002438
    32   Atom       -0.009479      0.001437     -0.001838
    33   Atom       -0.016860      0.002291     -0.007012
    34   Atom       -0.006279     -0.000704      0.000437
    35   Atom       -0.003326     -0.002426      0.009004
    36   Atom       -0.004371     -0.003404      0.024039
    37   Atom       -0.006905     -0.008392      0.019025
    38   Atom        0.017514     -0.008241     -0.008763
    39   Atom        0.005009     -0.003158     -0.001656
    40   Atom        0.008465     -0.001740     -0.002458
    41   Atom        0.005179     -0.000914     -0.002646
    42   Atom        0.008092      0.000137      0.000390
    43   Atom        0.005059     -0.001695     -0.002271
    44   Atom        0.002656     -0.000132     -0.000536
    45   Atom        0.002698     -0.000682     -0.004947
    46   Atom        0.005001     -0.000010     -0.000243
 --------------------------------------------------------


 ---------------------------------------------------------------------------------
              Anisotropic Spin Dipole Couplings in Principal Axis System
 ---------------------------------------------------------------------------------

       Atom             a.u.   MegaHertz   Gauss  10(-4) cm-1        Axes

              Baa    -0.0087    -1.167    -0.416    -0.389 -0.0381  0.9955  0.0864
     1 C(13)  Bbb    -0.0043    -0.573    -0.205    -0.191 -0.0288 -0.0875  0.9958
              Bcc     0.0130     1.740     0.621     0.580  0.9989  0.0355  0.0320
 
              Baa    -0.0157    -2.102    -0.750    -0.701 -0.2243 -0.6177  0.7537
     2 C(13)  Bbb    -0.0107    -1.438    -0.513    -0.480 -0.1262  0.7854  0.6060
              Bcc     0.0264     3.540     1.263     1.181  0.9663 -0.0408  0.2541
 
              Baa    -0.0139    -1.859    -0.663    -0.620  0.1671  0.9835 -0.0698
     3 C(13)  Bbb    -0.0096    -1.284    -0.458    -0.428 -0.4409  0.1379  0.8869
              Bcc     0.0234     3.143     1.122     1.048  0.8819 -0.1174  0.4566
 
              Baa    -0.0056    -0.749    -0.267    -0.250 -0.5333 -0.2922  0.7939
     4 C(13)  Bbb    -0.0038    -0.511    -0.182    -0.171 -0.0409  0.9462  0.3209
              Bcc     0.0094     1.260     0.450     0.420  0.8450 -0.1387  0.5165
 
              Baa    -0.0055    -0.734    -0.262    -0.245 -0.0774  0.9882  0.1324
     5 C(13)  Bbb    -0.0016    -0.209    -0.075    -0.070 -0.4035 -0.1525  0.9022
              Bcc     0.0070     0.944     0.337     0.315  0.9117  0.0164  0.4106
 
              Baa    -0.0038    -0.513    -0.183    -0.171 -0.2280 -0.1874  0.9555
     6 C(13)  Bbb    -0.0017    -0.222    -0.079    -0.074  0.0008  0.9813  0.1926
              Bcc     0.0055     0.735     0.262     0.245  0.9737 -0.0447  0.2236
 
              Baa    -0.0439    -5.887    -2.101    -1.964 -0.0028  0.8675  0.4974
     7 C(13)  Bbb    -0.0297    -3.985    -1.422    -1.329  0.2601 -0.4797  0.8380
              Bcc     0.0736     9.872     3.523     3.293  0.9656  0.1317 -0.2243
 
              Baa    -0.0178    -2.391    -0.853    -0.797  0.3134  0.6906  0.6518
     8 C(13)  Bbb    -0.0116    -1.562    -0.557    -0.521 -0.6217  0.6680 -0.4089
              Bcc     0.0295     3.953     1.410     1.318  0.7178  0.2771 -0.6387
 
              Baa    -0.0069    -0.930    -0.332    -0.310  0.6419 -0.1354  0.7548
     9 C(13)  Bbb    -0.0023    -0.315    -0.112    -0.105  0.1049  0.9905  0.0884
              Bcc     0.0093     1.245     0.444     0.415  0.7596 -0.0225 -0.6500
 
              Baa    -0.0057    -0.768    -0.274    -0.256  0.7075  0.0370  0.7057
    10 C(13)  Bbb    -0.0047    -0.637    -0.227    -0.212  0.2049  0.9450 -0.2549
              Bcc     0.0105     1.405     0.501     0.469  0.6763 -0.3250 -0.6611
 
              Baa    -0.0303    -4.072    -1.453    -1.358  0.2494 -0.4076  0.8785
    11 C(13)  Bbb    -0.0223    -2.993    -1.068    -0.998  0.8895  0.4550 -0.0414
              Bcc     0.0526     7.065     2.521     2.357 -0.3828  0.7917  0.4760
 
              Baa    -0.0231    -3.103    -1.107    -1.035  0.1450 -0.3808  0.9132
    12 C(13)  Bbb    -0.0184    -2.464    -0.879    -0.822  0.8877  0.4578  0.0499
              Bcc     0.0415     5.567     1.986     1.857 -0.4370  0.8034  0.4044
 
              Baa    -0.0143    -1.923    -0.686    -0.641  0.0145 -0.5963  0.8026
    13 C(13)  Bbb    -0.0123    -1.647    -0.588    -0.549  0.9571  0.2407  0.1614
              Bcc     0.0266     3.569     1.274     1.191 -0.2894  0.7658  0.5742
 
              Baa    -0.2729    19.748     7.047     6.587  0.7286  0.6523 -0.2090
    14 O(17)  Bbb     0.0722    -5.223    -1.864    -1.742  0.0671  0.2357  0.9695
              Bcc     0.2007   -14.525    -5.183    -4.845 -0.6817  0.7204 -0.1279
 
              Baa    -0.1491    -2.582    -0.921    -0.861  0.3357  0.1500  0.9299
    15 Fe(57) Bbb     0.0193     0.334     0.119     0.111  0.3950  0.8738 -0.2835
              Bcc     0.1299     2.248     0.802     0.750  0.8552 -0.4625 -0.2341
 
              Baa    -0.1710    -8.950    -3.194    -2.985  0.8581 -0.2099 -0.4687
    16 Cl(35) Bbb    -0.1473    -7.709    -2.751    -2.571  0.3427  0.9137  0.2183
              Bcc     0.3183    16.659     5.944     5.557  0.3824 -0.3479  0.8560
 
              Baa    -0.0098    -1.314    -0.469    -0.438  0.5062  0.3401  0.7925
    17 C(13)  Bbb    -0.0086    -1.149    -0.410    -0.383  0.6526  0.4498 -0.6098
              Bcc     0.0184     2.462     0.879     0.821 -0.5639  0.8259  0.0057
 
              Baa    -0.1719    -8.999    -3.211    -3.002  0.9084  0.2197 -0.3558
    18 Cl(35) Bbb    -0.1427    -7.468    -2.665    -2.491 -0.3985  0.7122 -0.5778
              Bcc     0.3146    16.467     5.876     5.493  0.1265  0.6667  0.7345
 
              Baa    -0.1812    -9.481    -3.383    -3.163  0.7757 -0.5447 -0.3188
    19 Cl(35) Bbb    -0.1268    -6.634    -2.367    -2.213  0.4385  0.1018  0.8930
              Bcc     0.3079    16.115     5.750     5.375  0.4539  0.8324 -0.3178
 
              Baa    -0.0219   -11.686    -4.170    -3.898  0.4876  0.8287 -0.2748
    20 H(1)   Bbb    -0.0190   -10.117    -3.610    -3.375 -0.4282  0.5012  0.7519
              Bcc     0.0409    21.803     7.780     7.273  0.7609 -0.2490  0.5992
 
              Baa    -0.0042    -2.259    -0.806    -0.754  0.5355  0.7236 -0.4355
    21 H(1)   Bbb    -0.0040    -2.148    -0.766    -0.716 -0.4279  0.6770  0.5988
              Bcc     0.0083     4.407     1.572     1.470  0.7281 -0.1344  0.6722
 
              Baa    -0.0019    -1.020    -0.364    -0.340  0.0040  0.9985  0.0546
    22 H(1)   Bbb    -0.0018    -0.937    -0.334    -0.313 -0.4412 -0.0473  0.8962
              Bcc     0.0037     1.958     0.699     0.653  0.8974 -0.0277  0.4404
 
              Baa    -0.0020    -1.049    -0.374    -0.350 -0.1080 -0.3198  0.9413
    23 H(1)   Bbb    -0.0019    -0.991    -0.354    -0.331 -0.0778  0.9467  0.3127
              Bcc     0.0038     2.040     0.728     0.680  0.9911  0.0395  0.1271
 
              Baa    -0.0041    -2.179    -0.778    -0.727  0.1434 -0.5924  0.7928
    24 H(1)   Bbb    -0.0038    -2.020    -0.721    -0.674  0.0496  0.8044  0.5921
              Bcc     0.0079     4.199     1.498     1.401  0.9884  0.0456 -0.1447
 
              Baa    -0.0211   -11.255    -4.016    -3.754  0.2907  0.8443  0.4501
    25 H(1)   Bbb    -0.0168    -8.964    -3.199    -2.990  0.7226 -0.5021  0.4752
              Bcc     0.0379    20.219     7.215     6.744 -0.6272 -0.1870  0.7561
 
              Baa    -0.0093    -1.243    -0.444    -0.415  0.4285 -0.0119  0.9035
    26 C(13)  Bbb    -0.0082    -1.100    -0.393    -0.367 -0.4181  0.8838  0.2100
              Bcc     0.0175     2.343     0.836     0.782  0.8010  0.4677 -0.3737
 
              Baa    -0.0043    -2.268    -0.809    -0.756  0.5098  0.6507  0.5627
    27 H(1)   Bbb    -0.0037    -1.969    -0.703    -0.657 -0.5401  0.7513 -0.3793
              Bcc     0.0079     4.237     1.512     1.413 -0.6696 -0.1105  0.7345
 
              Baa    -0.0039    -2.064    -0.737    -0.689  0.4824 -0.0887  0.8714
    28 H(1)   Bbb    -0.0036    -1.945    -0.694    -0.649 -0.0087  0.9943  0.1060
              Bcc     0.0075     4.009     1.431     1.337  0.8759  0.0587 -0.4789
 
              Baa    -0.0059    -3.168    -1.130    -1.057  0.5741  0.8170  0.0548
    29 H(1)   Bbb    -0.0048    -2.580    -0.921    -0.861  0.6228 -0.4791  0.6185
              Bcc     0.0108     5.748     2.051     1.917 -0.5316  0.3209  0.7839
 
              Baa    -0.0034    -1.796    -0.641    -0.599  0.6202  0.6849  0.3825
    30 H(1)   Bbb    -0.0030    -1.591    -0.568    -0.531 -0.3277  0.6692 -0.6669
              Bcc     0.0063     3.387     1.209     1.130  0.7127 -0.2883 -0.6395
 
              Baa    -0.0075    -4.015    -1.433    -1.339  0.2598  0.7231 -0.6400
    31 H(1)   Bbb    -0.0042    -2.220    -0.792    -0.741  0.3705  0.5374  0.7576
              Bcc     0.0117     6.235     2.225     2.080  0.8918 -0.4339 -0.1283
 
              Baa    -0.0067    -3.589    -1.281    -1.197  0.6221  0.6880  0.3738
    32 H(1)   Bbb    -0.0059    -3.155    -1.126    -1.052 -0.3484 -0.1843  0.9190
              Bcc     0.0126     6.743     2.406     2.249 -0.7011  0.7020 -0.1250
 
              Baa    -0.0156    -8.328    -2.972    -2.778  0.3829  0.3681  0.8473
    33 H(1)   Bbb    -0.0127    -6.792    -2.424    -2.266  0.8012  0.3241 -0.5029
              Bcc     0.0283    15.120     5.395     5.043 -0.4597  0.8715 -0.1708
 
              Baa    -0.0058    -3.108    -1.109    -1.037  0.5569  0.2337  0.7971
    34 H(1)   Bbb    -0.0049    -2.619    -0.935    -0.874  0.7053  0.3738 -0.6023
              Bcc     0.0107     5.727     2.044     1.910 -0.4387  0.8976  0.0433
 
              Baa    -0.0069    -3.678    -1.312    -1.227 -0.0151 -0.5945  0.8039
    35 H(1)   Bbb    -0.0060    -3.216    -1.148    -1.073  0.9747  0.1704  0.1444
              Bcc     0.0129     6.894     2.460     2.300 -0.2228  0.7858  0.5769
 
              Baa    -0.0208   -11.104    -3.962    -3.704  0.5031 -0.3548  0.7880
    36 H(1)   Bbb    -0.0185    -9.860    -3.518    -3.289  0.8591  0.3043 -0.4115
              Bcc     0.0393    20.964     7.480     6.993 -0.0937  0.8840  0.4579
 
              Baa    -0.0154    -8.201    -2.926    -2.736  0.4745  0.7874 -0.3936
    37 H(1)   Bbb    -0.0133    -7.122    -2.541    -2.376  0.8398 -0.2708  0.4706
              Bcc     0.0287    15.323     5.468     5.111 -0.2640  0.5538  0.7897
 
              Baa    -0.0133     0.961     0.343     0.321  0.7648 -0.6125  0.1999
    38 O(17)  Bbb    -0.0128     0.924     0.330     0.308  0.0621  0.3789  0.9233
              Bcc     0.0261    -1.885    -0.673    -0.629  0.6413  0.6937 -0.3278
 
              Baa    -0.0048     0.345     0.123     0.115 -0.5401  0.8340 -0.1130
    39 O(17)  Bbb    -0.0032     0.229     0.082     0.076  0.2306  0.2757  0.9332
              Bcc     0.0079    -0.573    -0.205    -0.191  0.8094  0.4779 -0.3412
 
              Baa    -0.0063    -0.852    -0.304    -0.284  0.8136 -0.4828  0.3239
    40 C(13)  Bbb    -0.0061    -0.821    -0.293    -0.274 -0.1859  0.3119  0.9317
              Bcc     0.0125     1.672     0.597     0.558  0.5509  0.8183 -0.1641
 
              Baa    -0.0067    -0.901    -0.321    -0.300  0.9495 -0.2527  0.1860
    41 C(13)  Bbb    -0.0060    -0.811    -0.289    -0.271 -0.1383  0.1951  0.9710
              Bcc     0.0128     1.712     0.611     0.571  0.2816  0.9477 -0.1503
 
              Baa    -0.0056    -3.002    -1.071    -1.002  0.6579 -0.5626  0.5007
    42 H(1)   Bbb    -0.0053    -2.825    -1.008    -0.942 -0.3982  0.3044  0.8653
              Bcc     0.0109     5.828     2.080     1.944  0.6393  0.7686  0.0238
 
              Baa    -0.0038    -2.035    -0.726    -0.679  0.7993 -0.4573  0.3898
    43 H(1)   Bbb    -0.0038    -2.001    -0.714    -0.668 -0.1850  0.4299  0.8837
              Bcc     0.0076     4.036     1.440     1.346  0.5717  0.7785 -0.2590
 
              Baa    -0.0038    -2.016    -0.719    -0.672  0.9685 -0.2480 -0.0211
    44 H(1)   Bbb    -0.0036    -1.904    -0.679    -0.635  0.0330  0.0439  0.9985
              Bcc     0.0073     3.920     1.399     1.307  0.2467  0.9678 -0.0507
 
              Baa    -0.0061    -3.263    -1.164    -1.089  0.9236 -0.2496 -0.2910
    45 H(1)   Bbb    -0.0056    -2.972    -1.061    -0.991  0.3490  0.2333  0.9076
              Bcc     0.0117     6.236     2.225     2.080  0.1586  0.9398 -0.3026
 
              Baa    -0.0107    -5.726    -2.043    -1.910  0.9859 -0.1661 -0.0186
    46 H(1)   Bbb    -0.0091    -4.849    -1.730    -1.617  0.0197  0.0051  0.9998
              Bcc     0.0198    10.575     3.773     3.527  0.1660  0.9861 -0.0084
 

 ---------------------------------------------------------------------------------

 No NMR shielding tensors so no spin-rotation constants.
 Leave Link  601 at Sun Jun 20 07:55:49 2021, MaxMem=  2147483648 cpu:              76.5 elap:               4.9
 (Enter /SFS/product/gaussian/g16.a03/x86_64/avx/g16/l9999.exe)
 1\1\GINC-KTCHPCPX233\SP\UB3LYP\Jul-CC-pVDZ\C17H22Cl3Fe1O3(6)\KWANEU\20
 -Jun-2021\0\\#p ub3lyp jul-cc-pvdz pop=cm5 scrf=(pcm,solvent=water) gu
 ess=read geom=allcheck\\title\\0,6\C,0,3.2143651638,-0.2001316157,0.52
 87689198\C,0,1.8482645885,-0.4779918139,0.7364241055\C,0,1.392567264,-
 0.6711305684,2.0544373986\C,0,2.2771894489,-0.5961943994,3.1314567879\
 C,0,3.6309591865,-0.3303617014,2.9113305095\C,0,4.0949608336,-0.128387
 6709,1.6054743834\C,0,0.8512499726,-0.5344931313,-0.3825174197\C,0,1.0
 122855968,0.3928249108,-1.6282326903\C,0,1.9658811272,-0.1654107919,-2
 .6902449843\C,0,1.6596144786,-1.6651602635,-2.8266365396\C,0,1.4957948
 695,-2.2308664123,-1.4393408301\C,0,0.3494475337,-2.7979442977,-0.9301
 911021\C,0,-0.9372603988,-2.8712714865,-1.6853604949\O,0,-0.3730401533
 ,-0.8080939887,-0.0310196471\Fe,0,-2.100188916,-0.0548206477,0.3828396
 804\Cl,0,-2.9358950852,0.7245222121,-1.5165931399\C,0,0.3791175886,-3.
 5242399278,0.3728444778\Cl,0,-1.8794019792,1.4535738429,1.9835857499\C
 l,0,-3.2302481814,-1.8162321325,1.1397785396\H,0,0.3356995285,-0.85048
 25931,2.233790483\H,0,1.9018973643,-0.7365957777,4.1456802383\H,0,4.32
 2702596,-0.2703178042,3.7530533979\H,0,5.1473764047,0.0941491377,1.425
 9488585\H,0,3.5981922287,-0.0233984475,-0.4719167578\H,0,-0.0028633129
 ,0.4518170549,-2.0406827145\C,0,1.4042351356,1.8173888817,-1.211050784
 5\H,0,1.8218233988,0.3687618951,-3.6389306298\H,0,3.0083224551,0.00212
 15559,-2.3960640073\H,0,0.7521457928,-1.8114773208,-3.4248899181\H,0,2
 .4756970725,-2.1823673179,-3.3515181175\H,0,2.4182833705,-2.419486709,
 -0.8913460305\H,0,1.3361810413,-3.4237129605,0.8954682738\H,0,-0.44672
 40559,-3.1974438811,1.0188721761\H,0,0.2085098671,-4.5940001135,0.1643
 50812\H,0,-0.918467774,-3.8156852275,-2.2582880315\H,0,-1.7970683396,-
 2.9121129467,-1.0082456744\H,0,-1.0798140254,-2.0547003383,-2.39824249
 93\O,0,0.3393062253,2.4905274552,-0.7676452788\O,0,2.5263865758,2.2708
 122727,-1.3000685156\C,0,0.5597142351,3.868026799,-0.3357710083\C,0,-0
 .794348845,4.5311391186,-0.1951252493\H,0,1.1075820541,3.8314992232,0.
 6159079621\H,0,1.1968349522,4.3601056234,-1.0813501163\H,0,-0.65149673
 21,5.5675143276,0.1441145076\H,0,-1.3234125538,4.5502736259,-1.1577095
 394\H,0,-1.4166605978,4.0024033506,0.5374084588\\Version=ES64L-G16RevA
 .03\State=6-A\HF=-3531.4410358\S2=8.76111\S2-1=0.\S2A=8.750039\RMSD=4.
 101e-09\Dipole=4.162344,-2.0079913,-1.3762089\Quadrupole=-16.8817309,1
 2.2619355,4.6197954,-7.2864208,6.7737394,5.4963053\PG=C01 [X(C17H22Cl3
 Fe1O3)]\\@


 YOU SHOULDN'T LET PEOPLE DRIVE YOU CRAZY
 WHEN YOU KNOW IT'S WITHIN WALKING DISTANCE.
 Job cpu time:       0 days  5 hours  9 minutes 39.3 seconds.
 Elapsed time:       0 days  0 hours 19 minutes 26.1 seconds.
 File lengths (MBytes):  RWF=    659 Int=      0 D2E=      0 Chk=     57 Scr=      1
 Normal termination of Gaussian 16 at Sun Jun 20 07:55:49 2021.
