 Entering Gaussian System, Link 0=g16
 Input=prenyl-first_betaine_grid-CC_250_CO_250-b3lyp_d3bj-juldz-gas.gjf
 Output=prenyl-first_betaine_grid-CC_250_CO_250-b3lyp_d3bj-juldz-gas.out
 Initial command:
 /SFS/product/gaussian/g16.a03/x86_64/avx/g16/l1.exe "/scratch/kwaneu.2874319.bmbhpcps002/Gau-15888.inp" -scrdir="/scratch/kwaneu.2874319.bmbhpcps002/"
 Entering Link 1 = /SFS/product/gaussian/g16.a03/x86_64/avx/g16/l1.exe PID=     15889.
  
 Copyright (c) 1988,1990,1992,1993,1995,1998,2003,2009,2016,
            Gaussian, Inc.  All Rights Reserved.
  
 This is part of the Gaussian(R) 16 program.  It is based on
 the Gaussian(R) 09 system (copyright 2009, Gaussian, Inc.),
 the Gaussian(R) 03 system (copyright 2003, Gaussian, Inc.),
 the Gaussian(R) 98 system (copyright 1998, Gaussian, Inc.),
 the Gaussian(R) 94 system (copyright 1995, Gaussian, Inc.),
 the Gaussian 92(TM) system (copyright 1992, Gaussian, Inc.),
 the Gaussian 90(TM) system (copyright 1990, Gaussian, Inc.),
 the Gaussian 88(TM) system (copyright 1988, Gaussian, Inc.),
 the Gaussian 86(TM) system (copyright 1986, Carnegie Mellon
 University), and the Gaussian 82(TM) system (copyright 1983,
 Carnegie Mellon University). Gaussian is a federally registered
 trademark of Gaussian, Inc.
  
 This software contains proprietary and confidential information,
 including trade secrets, belonging to Gaussian, Inc.
  
 This software is provided under written license and may be
 used, copied, transmitted, or stored only in accord with that
 written license.
  
 The following legend is applicable only to US Government
 contracts under FAR:
  
                    RESTRICTED RIGHTS LEGEND
  
 Use, reproduction and disclosure by the US Government is
 subject to restrictions as set forth in subparagraphs (a)
 and (c) of the Commercial Computer Software - Restricted
 Rights clause in FAR 52.227-19.
  
 Gaussian, Inc.
 340 Quinnipiac St., Bldg. 40, Wallingford CT 06492
  
  
 ---------------------------------------------------------------
 Warning -- This program may not be used in any manner that
 competes with the business of Gaussian, Inc. or will provide
 assistance to any competitor of Gaussian, Inc.  The licensee
 of this program is prohibited from giving any competitor of
 Gaussian, Inc. access to this program.  By using this program,
 the user acknowledges that Gaussian, Inc. is engaged in the
 business of creating and licensing software in the field of
 computational chemistry and represents and warrants to the
 licensee that it is not a competitor of Gaussian, Inc. and that
 it will not use this program in any manner prohibited above.
 ---------------------------------------------------------------
  

 Cite this work as:
 Gaussian 16, Revision A.03,
 M. J. Frisch, G. W. Trucks, H. B. Schlegel, G. E. Scuseria, 
 M. A. Robb, J. R. Cheeseman, G. Scalmani, V. Barone, 
 G. A. Petersson, H. Nakatsuji, X. Li, M. Caricato, A. V. Marenich, 
 J. Bloino, B. G. Janesko, R. Gomperts, B. Mennucci, H. P. Hratchian, 
 J. V. Ortiz, A. F. Izmaylov, J. L. Sonnenberg, D. Williams-Young, 
 F. Ding, F. Lipparini, F. Egidi, J. Goings, B. Peng, A. Petrone, 
 T. Henderson, D. Ranasinghe, V. G. Zakrzewski, J. Gao, N. Rega, 
 G. Zheng, W. Liang, M. Hada, M. Ehara, K. Toyota, R. Fukuda, 
 J. Hasegawa, M. Ishida, T. Nakajima, Y. Honda, O. Kitao, H. Nakai, 
 T. Vreven, K. Throssell, J. A. Montgomery, Jr., J. E. Peralta, 
 F. Ogliaro, M. J. Bearpark, J. J. Heyd, E. N. Brothers, K. N. Kudin, 
 V. N. Staroverov, T. A. Keith, R. Kobayashi, J. Normand, 
 K. Raghavachari, A. P. Rendell, J. C. Burant, S. S. Iyengar, 
 J. Tomasi, M. Cossi, J. M. Millam, M. Klene, C. Adamo, R. Cammi, 
 J. W. Ochterski, R. L. Martin, K. Morokuma, O. Farkas, 
 J. B. Foresman, and D. J. Fox, Gaussian, Inc., Wallingford CT, 2016.
 
 ******************************************
 Gaussian 16:  ES64L-G16RevA.03 25-Dec-2016
                20-Jun-2021 
 ******************************************
 %chk=checkpoint.chk
 %nprocshared=16
 Will use up to   16 processors via shared memory.
 %mem=16GB
 -----------------------------------------------------------
 #p opt=modredundant freq=noraman ub3lyp jul-cc-pvdz pop=cm5
 -----------------------------------------------------------
 1/18=120,19=15,26=3,38=1/1,3;
 2/9=110,12=2,17=6,18=5,40=1/2;
 3/5=16,7=50,11=2,25=1,30=1,71=1,74=-5,116=2/1,2,3;
 4//1;
 5/5=2,38=5/2;
 6/7=2,8=2,9=2,10=2,28=1,79=1/1;
 7//1,2,3,16;
 1/18=20,19=15,26=3/3(2);
 2/9=110/2;
 99//99;
 2/9=110/2;
 3/5=16,7=50,11=2,25=1,30=1,71=1,74=-5,116=2/1,2,3;
 4/5=5,16=3,69=1/1;
 5/5=2,38=5/2;
 7//1,2,3,16;
 1/18=20,19=15,26=3/3(-5);
 2/9=110/2;
 6/7=2,8=2,9=2,10=2,19=2,28=1,79=1/1;
 99/9=1/99;
 Leave Link    1 at Sun Jun 20 08:19:50 2021, MaxMem=  2147483648 cpu:               1.6 elap:               0.1
 (Enter /SFS/product/gaussian/g16.a03/x86_64/avx/g16/l101.exe)
 -----
 title
 -----
 Symbolic Z-matrix:
 Charge =  0 Multiplicity = 6
 6                     3.12338   0.36127   0.6987 
 6                     1.8703   -0.28213   0.78289 
 6                     1.52358  -0.93977   1.9827 
 6                     2.40951  -0.97395   3.0525 
 6                     3.65396  -0.34621   2.94995 
 6                     4.00289   0.32623   1.77593 
 6                     0.87685  -0.24746  -0.30813 
 6                     1.04546   0.62481  -1.56393 
 6                     2.15209   0.18091  -2.53896 
 6                     1.94497  -1.29227  -2.92677 
 6                     1.77982  -2.12697  -1.6873 
 6                     0.65195  -2.74192  -1.26816 
 6                    -0.64203  -2.76222  -2.03671 
 8                    -0.27136  -0.74133  -0.087 
 26                   -2.07754  -0.2536    0.41604 
 17                   -3.03469   0.6449   -1.34539 
 6                     0.66075  -3.60169  -0.03567 
 17                   -1.89445   1.09548   2.14126 
 17                   -3.00529  -2.1574    1.01255 
 1                     0.55148  -1.40804   2.06741 
 1                     2.12547  -1.47988   3.97021 
 1                     4.3453   -0.37005   3.78779 
 1                     4.96065   0.83234   1.70087 
 1                     3.40181   0.92103  -0.18409 
 1                     0.07699   0.55389  -2.07011 
 6                     1.21591   2.10531  -1.16744 
 1                     2.12111   0.83278  -3.41846 
 1                     3.13887   0.31934  -2.09129 
 1                     1.07569  -1.38302  -3.58521 
 1                     2.81199  -1.63761  -3.50482 
 1                     2.68249  -2.26595  -1.0935 
 1                     1.62262  -3.5794    0.48424 
 1                    -0.1343   -3.29985   0.65658 
 1                     0.44562  -4.64393  -0.3102 
 1                    -0.69862  -3.69976  -2.60896 
 1                    -1.502    -2.75827  -1.36131 
 1                    -0.7549   -1.93736  -2.74234 
 8                     0.08396   2.58392  -0.64707 
 8                     2.23484   2.74295  -1.32827 
 6                     0.0865    3.98648  -0.24599 
 6                    -1.34141   4.37838   0.07408 
 1                     0.75006   4.08471   0.61887 
 1                     0.50919   4.57132  -1.06743 
 1                    -1.36733   5.43156   0.37549 
 1                    -1.98596   4.25174  -0.80097 
 1                    -1.74143   3.77023   0.88963 
 
 The following ModRedundant input section has been read:
 B       7      11 F                                                           
 B      12      14 F                                                           
 
 ITRead=  0  0  0  0  0  0  0  0  0  0  0  0  0  0  0  0  0  0  0  0
 ITRead=  0  0  0  0  0  0  0  0  0  0  0  0  0  0  0  0  0  0  0  0
 ITRead=  0  0  0  0  0  0
 MicOpt= -1 -1 -1 -1 -1 -1 -1 -1 -1 -1 -1 -1 -1 -1 -1 -1 -1 -1 -1 -1
 MicOpt= -1 -1 -1 -1 -1 -1 -1 -1 -1 -1 -1 -1 -1 -1 -1 -1 -1 -1 -1 -1
 MicOpt= -1 -1 -1 -1 -1 -1
 NAtoms=     46 NQM=       46 NQMF=       0 NMMI=      0 NMMIF=      0
                NMic=       0 NMicF=      0.
                    Isotopes and Nuclear Properties:
 (Nuclear quadrupole moments (NQMom) in fm**2, nuclear magnetic moments (NMagM)
  in nuclear magnetons)

  Atom         1           2           3           4           5           6           7           8           9          10
 IAtWgt=          12          12          12          12          12          12          12          12          12          12
 AtmWgt=  12.0000000  12.0000000  12.0000000  12.0000000  12.0000000  12.0000000  12.0000000  12.0000000  12.0000000  12.0000000
 NucSpn=           0           0           0           0           0           0           0           0           0           0
 AtZEff=  -0.0000000  -0.0000000  -0.0000000  -0.0000000  -0.0000000  -0.0000000  -0.0000000  -0.0000000  -0.0000000  -0.0000000
 NQMom=    0.0000000   0.0000000   0.0000000   0.0000000   0.0000000   0.0000000   0.0000000   0.0000000   0.0000000   0.0000000
 NMagM=    0.0000000   0.0000000   0.0000000   0.0000000   0.0000000   0.0000000   0.0000000   0.0000000   0.0000000   0.0000000
 AtZNuc=   6.0000000   6.0000000   6.0000000   6.0000000   6.0000000   6.0000000   6.0000000   6.0000000   6.0000000   6.0000000

  Atom        11          12          13          14          15          16          17          18          19          20
 IAtWgt=          12          12          12          16          56          35          12          35          35           1
 AtmWgt=  12.0000000  12.0000000  12.0000000  15.9949146  55.9349393  34.9688527  12.0000000  34.9688527  34.9688527   1.0078250
 NucSpn=           0           0           0           0           0           3           0           3           3           1
 AtZEff=  -0.0000000  -0.0000000  -0.0000000  -0.0000000  -0.0000000  -0.0000000  -0.0000000  -0.0000000  -0.0000000  -0.0000000
 NQMom=    0.0000000   0.0000000   0.0000000   0.0000000   0.0000000  -8.1650000   0.0000000  -8.1650000  -8.1650000   0.0000000
 NMagM=    0.0000000   0.0000000   0.0000000   0.0000000   0.0000000   0.8218740   0.0000000   0.8218740   0.8218740   2.7928460
 AtZNuc=   6.0000000   6.0000000   6.0000000   8.0000000  26.0000000  17.0000000   6.0000000  17.0000000  17.0000000   1.0000000

  Atom        21          22          23          24          25          26          27          28          29          30
 IAtWgt=           1           1           1           1           1          12           1           1           1           1
 AtmWgt=   1.0078250   1.0078250   1.0078250   1.0078250   1.0078250  12.0000000   1.0078250   1.0078250   1.0078250   1.0078250
 NucSpn=           1           1           1           1           1           0           1           1           1           1
 AtZEff=  -0.0000000  -0.0000000  -0.0000000  -0.0000000  -0.0000000  -0.0000000  -0.0000000  -0.0000000  -0.0000000  -0.0000000
 NQMom=    0.0000000   0.0000000   0.0000000   0.0000000   0.0000000   0.0000000   0.0000000   0.0000000   0.0000000   0.0000000
 NMagM=    2.7928460   2.7928460   2.7928460   2.7928460   2.7928460   0.0000000   2.7928460   2.7928460   2.7928460   2.7928460
 AtZNuc=   1.0000000   1.0000000   1.0000000   1.0000000   1.0000000   6.0000000   1.0000000   1.0000000   1.0000000   1.0000000

  Atom        31          32          33          34          35          36          37          38          39          40
 IAtWgt=           1           1           1           1           1           1           1          16          16          12
 AtmWgt=   1.0078250   1.0078250   1.0078250   1.0078250   1.0078250   1.0078250   1.0078250  15.9949146  15.9949146  12.0000000
 NucSpn=           1           1           1           1           1           1           1           0           0           0
 AtZEff=  -0.0000000  -0.0000000  -0.0000000  -0.0000000  -0.0000000  -0.0000000  -0.0000000  -0.0000000  -0.0000000  -0.0000000
 NQMom=    0.0000000   0.0000000   0.0000000   0.0000000   0.0000000   0.0000000   0.0000000   0.0000000   0.0000000   0.0000000
 NMagM=    2.7928460   2.7928460   2.7928460   2.7928460   2.7928460   2.7928460   2.7928460   0.0000000   0.0000000   0.0000000
 AtZNuc=   1.0000000   1.0000000   1.0000000   1.0000000   1.0000000   1.0000000   1.0000000   8.0000000   8.0000000   6.0000000

  Atom        41          42          43          44          45          46
 IAtWgt=          12           1           1           1           1           1
 AtmWgt=  12.0000000   1.0078250   1.0078250   1.0078250   1.0078250   1.0078250
 NucSpn=           0           1           1           1           1           1
 AtZEff=  -0.0000000  -0.0000000  -0.0000000  -0.0000000  -0.0000000  -0.0000000
 NQMom=    0.0000000   0.0000000   0.0000000   0.0000000   0.0000000   0.0000000
 NMagM=    0.0000000   2.7928460   2.7928460   2.7928460   2.7928460   2.7928460
 AtZNuc=   6.0000000   1.0000000   1.0000000   1.0000000   1.0000000   1.0000000
 Leave Link  101 at Sun Jun 20 08:19:50 2021, MaxMem=  2147483648 cpu:               5.5 elap:               0.4
 (Enter /SFS/product/gaussian/g16.a03/x86_64/avx/g16/l103.exe)

 GradGradGradGradGradGradGradGradGradGradGradGradGradGradGradGradGradGrad
 Berny optimization.
 Initialization pass.
                           ----------------------------
                           !    Initial Parameters    !
                           ! (Angstroms and Degrees)  !
 --------------------------                            --------------------------
 ! Name  Definition              Value          Derivative Info.                !
 --------------------------------------------------------------------------------
 ! R1    R(1,2)                  1.4111         estimate D2E/DX2                !
 ! R2    R(1,6)                  1.3911         estimate D2E/DX2                !
 ! R3    R(1,24)                 1.0817         estimate D2E/DX2                !
 ! R4    R(2,3)                  1.4115         estimate D2E/DX2                !
 ! R5    R(2,7)                  1.476          estimate D2E/DX2                !
 ! R6    R(3,4)                  1.3894         estimate D2E/DX2                !
 ! R7    R(3,20)                 1.0823         estimate D2E/DX2                !
 ! R8    R(4,5)                  1.3976         estimate D2E/DX2                !
 ! R9    R(4,21)                 1.0857         estimate D2E/DX2                !
 ! R10   R(5,6)                  1.3972         estimate D2E/DX2                !
 ! R11   R(5,22)                 1.0865         estimate D2E/DX2                !
 ! R12   R(6,23)                 1.0859         estimate D2E/DX2                !
 ! R13   R(7,8)                  1.5383         estimate D2E/DX2                !
 ! R14   R(7,11)                 2.5            Frozen                          !
 ! R15   R(7,14)                 1.2693         estimate D2E/DX2                !
 ! R16   R(8,9)                  1.5402         estimate D2E/DX2                !
 ! R17   R(8,25)                 1.0951         estimate D2E/DX2                !
 ! R18   R(8,26)                 1.5421         estimate D2E/DX2                !
 ! R19   R(9,10)                 1.5374         estimate D2E/DX2                !
 ! R20   R(9,27)                 1.0952         estimate D2E/DX2                !
 ! R21   R(9,28)                 1.0924         estimate D2E/DX2                !
 ! R22   R(10,11)                1.5034         estimate D2E/DX2                !
 ! R23   R(10,29)                1.0943         estimate D2E/DX2                !
 ! R24   R(10,30)                1.0978         estimate D2E/DX2                !
 ! R25   R(11,12)                1.3513         estimate D2E/DX2                !
 ! R26   R(11,31)                1.0894         estimate D2E/DX2                !
 ! R27   R(12,13)                1.5051         estimate D2E/DX2                !
 ! R28   R(12,14)                2.5            Frozen                          !
 ! R29   R(12,17)                1.5028         estimate D2E/DX2                !
 ! R30   R(13,35)                1.0999         estimate D2E/DX2                !
 ! R31   R(13,36)                1.0935         estimate D2E/DX2                !
 ! R32   R(13,37)                1.0914         estimate D2E/DX2                !
 ! R33   R(14,15)                1.9373         estimate D2E/DX2                !
 ! R34   R(15,16)                2.1968         estimate D2E/DX2                !
 ! R35   R(15,18)                2.1977         estimate D2E/DX2                !
 ! R36   R(15,19)                2.2002         estimate D2E/DX2                !
 ! R37   R(17,32)                1.0936         estimate D2E/DX2                !
 ! R38   R(17,33)                1.0966         estimate D2E/DX2                !
 ! R39   R(17,34)                1.099          estimate D2E/DX2                !
 ! R40   R(26,38)                1.3346         estimate D2E/DX2                !
 ! R41   R(26,39)                1.2127         estimate D2E/DX2                !
 ! R42   R(38,40)                1.4588         estimate D2E/DX2                !
 ! R43   R(40,41)                1.5149         estimate D2E/DX2                !
 ! R44   R(40,42)                1.0945         estimate D2E/DX2                !
 ! R45   R(40,43)                1.0934         estimate D2E/DX2                !
 ! R46   R(41,44)                1.0958         estimate D2E/DX2                !
 ! R47   R(41,45)                1.0942         estimate D2E/DX2                !
 ! R48   R(41,46)                1.0932         estimate D2E/DX2                !
 ! A1    A(2,1,6)              120.2481         estimate D2E/DX2                !
 ! A2    A(2,1,24)             120.876          estimate D2E/DX2                !
 ! A3    A(6,1,24)             118.8325         estimate D2E/DX2                !
 ! A4    A(1,2,3)              118.7692         estimate D2E/DX2                !
 ! A5    A(1,2,7)              122.8813         estimate D2E/DX2                !
 ! A6    A(3,2,7)              118.2906         estimate D2E/DX2                !
 ! A7    A(2,3,4)              120.6192         estimate D2E/DX2                !
 ! A8    A(2,3,20)             119.2577         estimate D2E/DX2                !
 ! A9    A(4,3,20)             120.1179         estimate D2E/DX2                !
 ! A10   A(3,4,5)              120.0142         estimate D2E/DX2                !
 ! A11   A(3,4,21)             119.6993         estimate D2E/DX2                !
 ! A12   A(5,4,21)             120.2827         estimate D2E/DX2                !
 ! A13   A(4,5,6)              120.0119         estimate D2E/DX2                !
 ! A14   A(4,5,22)             120.0096         estimate D2E/DX2                !
 ! A15   A(6,5,22)             119.9738         estimate D2E/DX2                !
 ! A16   A(1,6,5)              120.3249         estimate D2E/DX2                !
 ! A17   A(1,6,23)             119.4972         estimate D2E/DX2                !
 ! A18   A(5,6,23)             120.1762         estimate D2E/DX2                !
 ! A19   A(2,7,8)              122.8871         estimate D2E/DX2                !
 ! A20   A(2,7,14)             118.0964         estimate D2E/DX2                !
 ! A21   A(8,7,14)             117.5157         estimate D2E/DX2                !
 ! A22   A(7,8,9)              115.6019         estimate D2E/DX2                !
 ! A23   A(7,8,25)             104.1046         estimate D2E/DX2                !
 ! A24   A(7,8,26)             110.2801         estimate D2E/DX2                !
 ! A25   A(9,8,25)             108.9131         estimate D2E/DX2                !
 ! A26   A(9,8,26)             111.1019         estimate D2E/DX2                !
 ! A27   A(25,8,26)            106.1868         estimate D2E/DX2                !
 ! A28   A(8,9,10)             109.8192         estimate D2E/DX2                !
 ! A29   A(8,9,27)             108.4516         estimate D2E/DX2                !
 ! A30   A(8,9,28)             110.6751         estimate D2E/DX2                !
 ! A31   A(10,9,27)            111.3445         estimate D2E/DX2                !
 ! A32   A(10,9,28)            110.2739         estimate D2E/DX2                !
 ! A33   A(27,9,28)            106.2141         estimate D2E/DX2                !
 ! A34   A(9,10,11)            109.8064         estimate D2E/DX2                !
 ! A35   A(9,10,29)            109.772          estimate D2E/DX2                !
 ! A36   A(9,10,30)            109.1387         estimate D2E/DX2                !
 ! A37   A(11,10,29)           111.2706         estimate D2E/DX2                !
 ! A38   A(11,10,30)           110.2564         estimate D2E/DX2                !
 ! A39   A(29,10,30)           106.5275         estimate D2E/DX2                !
 ! A40   A(10,11,12)           126.8754         estimate D2E/DX2                !
 ! A41   A(10,11,31)           115.4164         estimate D2E/DX2                !
 ! A42   A(12,11,31)           117.6772         estimate D2E/DX2                !
 ! A43   A(11,12,13)           124.4251         estimate D2E/DX2                !
 ! A44   A(11,12,17)           120.6556         estimate D2E/DX2                !
 ! A45   A(13,12,17)           114.5882         estimate D2E/DX2                !
 ! A46   A(12,13,35)           108.7473         estimate D2E/DX2                !
 ! A47   A(12,13,36)           111.1418         estimate D2E/DX2                !
 ! A48   A(12,13,37)           114.1334         estimate D2E/DX2                !
 ! A49   A(35,13,36)           106.498          estimate D2E/DX2                !
 ! A50   A(35,13,37)           107.6108         estimate D2E/DX2                !
 ! A51   A(36,13,37)           108.3787         estimate D2E/DX2                !
 ! A52   A(7,14,15)            142.2445         estimate D2E/DX2                !
 ! A53   A(14,15,16)           107.5164         estimate D2E/DX2                !
 ! A54   A(14,15,18)           106.3022         estimate D2E/DX2                !
 ! A55   A(14,15,19)           104.2218         estimate D2E/DX2                !
 ! A56   A(16,15,18)           114.4976         estimate D2E/DX2                !
 ! A57   A(16,15,19)           112.8028         estimate D2E/DX2                !
 ! A58   A(18,15,19)           110.6986         estimate D2E/DX2                !
 ! A59   A(12,17,32)           112.5439         estimate D2E/DX2                !
 ! A60   A(12,17,33)           110.8561         estimate D2E/DX2                !
 ! A61   A(12,17,34)           109.6664         estimate D2E/DX2                !
 ! A62   A(32,17,33)           109.3883         estimate D2E/DX2                !
 ! A63   A(32,17,34)           108.0737         estimate D2E/DX2                !
 ! A64   A(33,17,34)           106.0697         estimate D2E/DX2                !
 ! A65   A(8,26,38)            110.5354         estimate D2E/DX2                !
 ! A66   A(8,26,39)            124.3024         estimate D2E/DX2                !
 ! A67   A(38,26,39)           125.154          estimate D2E/DX2                !
 ! A68   A(26,38,40)           116.7773         estimate D2E/DX2                !
 ! A69   A(38,40,41)           107.7689         estimate D2E/DX2                !
 ! A70   A(38,40,42)           107.7343         estimate D2E/DX2                !
 ! A71   A(38,40,43)           107.9623         estimate D2E/DX2                !
 ! A72   A(41,40,42)           112.4128         estimate D2E/DX2                !
 ! A73   A(41,40,43)           112.6284         estimate D2E/DX2                !
 ! A74   A(42,40,43)           108.1352         estimate D2E/DX2                !
 ! A75   A(40,41,44)           109.2117         estimate D2E/DX2                !
 ! A76   A(40,41,45)           110.8757         estimate D2E/DX2                !
 ! A77   A(40,41,46)           111.0162         estimate D2E/DX2                !
 ! A78   A(44,41,45)           108.4986         estimate D2E/DX2                !
 ! A79   A(44,41,46)           108.7128         estimate D2E/DX2                !
 ! A80   A(45,41,46)           108.4632         estimate D2E/DX2                !
 ! D1    D(6,1,2,3)              0.9422         estimate D2E/DX2                !
 ! D2    D(6,1,2,7)            178.0998         estimate D2E/DX2                !
 ! D3    D(24,1,2,3)          -176.6344         estimate D2E/DX2                !
 ! D4    D(24,1,2,7)             0.5232         estimate D2E/DX2                !
 ! D5    D(2,1,6,5)              0.0214         estimate D2E/DX2                !
 ! D6    D(2,1,6,23)          -179.503          estimate D2E/DX2                !
 ! D7    D(24,1,6,5)           177.6472         estimate D2E/DX2                !
 ! D8    D(24,1,6,23)           -1.8773         estimate D2E/DX2                !
 ! D9    D(1,2,3,4)             -1.1609         estimate D2E/DX2                !
 ! D10   D(1,2,3,20)           178.0133         estimate D2E/DX2                !
 ! D11   D(7,2,3,4)           -178.4501         estimate D2E/DX2                !
 ! D12   D(7,2,3,20)             0.724          estimate D2E/DX2                !
 ! D13   D(1,2,7,8)             -7.3835         estimate D2E/DX2                !
 ! D14   D(1,2,7,14)          -173.0467         estimate D2E/DX2                !
 ! D15   D(3,2,7,8)            169.787          estimate D2E/DX2                !
 ! D16   D(3,2,7,14)             4.1238         estimate D2E/DX2                !
 ! D17   D(2,3,4,5)              0.4109         estimate D2E/DX2                !
 ! D18   D(2,3,4,21)           179.701          estimate D2E/DX2                !
 ! D19   D(20,3,4,5)          -178.7562         estimate D2E/DX2                !
 ! D20   D(20,3,4,21)            0.5339         estimate D2E/DX2                !
 ! D21   D(3,4,5,6)              0.5733         estimate D2E/DX2                !
 ! D22   D(3,4,5,22)           179.7888         estimate D2E/DX2                !
 ! D23   D(21,4,5,6)          -178.7126         estimate D2E/DX2                !
 ! D24   D(21,4,5,22)            0.5029         estimate D2E/DX2                !
 ! D25   D(4,5,6,1)             -0.7903         estimate D2E/DX2                !
 ! D26   D(4,5,6,23)           178.7309         estimate D2E/DX2                !
 ! D27   D(22,5,6,1)           179.9939         estimate D2E/DX2                !
 ! D28   D(22,5,6,23)           -0.4849         estimate D2E/DX2                !
 ! D29   D(2,7,8,9)             70.1563         estimate D2E/DX2                !
 ! D30   D(2,7,8,25)          -170.4378         estimate D2E/DX2                !
 ! D31   D(2,7,8,26)           -56.9047         estimate D2E/DX2                !
 ! D32   D(14,7,8,9)          -124.1024         estimate D2E/DX2                !
 ! D33   D(14,7,8,25)           -4.6965         estimate D2E/DX2                !
 ! D34   D(14,7,8,26)          108.8365         estimate D2E/DX2                !
 ! D35   D(2,7,14,15)           97.3557         estimate D2E/DX2                !
 ! D36   D(8,7,14,15)          -69.0846         estimate D2E/DX2                !
 ! D37   D(7,8,9,10)            53.9974         estimate D2E/DX2                !
 ! D38   D(7,8,9,27)           175.8751         estimate D2E/DX2                !
 ! D39   D(7,8,9,28)           -67.9868         estimate D2E/DX2                !
 ! D40   D(25,8,9,10)          -62.7349         estimate D2E/DX2                !
 ! D41   D(25,8,9,27)           59.1429         estimate D2E/DX2                !
 ! D42   D(25,8,9,28)          175.2809         estimate D2E/DX2                !
 ! D43   D(26,8,9,10)         -179.3557         estimate D2E/DX2                !
 ! D44   D(26,8,9,27)          -57.4779         estimate D2E/DX2                !
 ! D45   D(26,8,9,28)           58.6602         estimate D2E/DX2                !
 ! D46   D(7,8,26,38)          -67.9685         estimate D2E/DX2                !
 ! D47   D(7,8,26,39)          113.0331         estimate D2E/DX2                !
 ! D48   D(9,8,26,38)          162.5088         estimate D2E/DX2                !
 ! D49   D(9,8,26,39)          -16.4896         estimate D2E/DX2                !
 ! D50   D(25,8,26,38)          44.228          estimate D2E/DX2                !
 ! D51   D(25,8,26,39)        -134.7704         estimate D2E/DX2                !
 ! D52   D(8,9,10,11)          -51.1101         estimate D2E/DX2                !
 ! D53   D(8,9,10,29)           71.5192         estimate D2E/DX2                !
 ! D54   D(8,9,10,30)         -172.0745         estimate D2E/DX2                !
 ! D55   D(27,9,10,11)        -171.2454         estimate D2E/DX2                !
 ! D56   D(27,9,10,29)         -48.6162         estimate D2E/DX2                !
 ! D57   D(27,9,10,30)          67.7902         estimate D2E/DX2                !
 ! D58   D(28,9,10,11)          71.1128         estimate D2E/DX2                !
 ! D59   D(28,9,10,29)        -166.2579         estimate D2E/DX2                !
 ! D60   D(28,9,10,30)         -49.8516         estimate D2E/DX2                !
 ! D61   D(9,10,11,12)         110.7757         estimate D2E/DX2                !
 ! D62   D(9,10,11,31)         -71.31           estimate D2E/DX2                !
 ! D63   D(29,10,11,12)        -10.9622         estimate D2E/DX2                !
 ! D64   D(29,10,11,31)        166.952          estimate D2E/DX2                !
 ! D65   D(30,10,11,12)       -128.9358         estimate D2E/DX2                !
 ! D66   D(30,10,11,31)         48.9785         estimate D2E/DX2                !
 ! D67   D(10,11,12,13)          3.9459         estimate D2E/DX2                !
 ! D68   D(10,11,12,17)        176.9737         estimate D2E/DX2                !
 ! D69   D(31,11,12,13)       -173.9268         estimate D2E/DX2                !
 ! D70   D(31,11,12,17)         -0.899          estimate D2E/DX2                !
 ! D71   D(11,12,13,35)         96.4539         estimate D2E/DX2                !
 ! D72   D(11,12,13,36)       -146.6237         estimate D2E/DX2                !
 ! D73   D(11,12,13,37)        -23.6892         estimate D2E/DX2                !
 ! D74   D(17,12,13,35)        -76.9519         estimate D2E/DX2                !
 ! D75   D(17,12,13,36)         39.9706         estimate D2E/DX2                !
 ! D76   D(17,12,13,37)        162.905          estimate D2E/DX2                !
 ! D77   D(11,12,17,32)          5.0607         estimate D2E/DX2                !
 ! D78   D(11,12,17,33)        127.9343         estimate D2E/DX2                !
 ! D79   D(11,12,17,34)       -115.2754         estimate D2E/DX2                !
 ! D80   D(13,12,17,32)        178.7389         estimate D2E/DX2                !
 ! D81   D(13,12,17,33)        -58.3875         estimate D2E/DX2                !
 ! D82   D(13,12,17,34)         58.4027         estimate D2E/DX2                !
 ! D83   D(7,14,15,16)          75.8592         estimate D2E/DX2                !
 ! D84   D(7,14,15,18)         -47.1884         estimate D2E/DX2                !
 ! D85   D(7,14,15,19)        -164.1906         estimate D2E/DX2                !
 ! D86   D(8,26,38,40)        -178.915          estimate D2E/DX2                !
 ! D87   D(39,26,38,40)          0.073          estimate D2E/DX2                !
 ! D88   D(26,38,40,41)        169.9414         estimate D2E/DX2                !
 ! D89   D(26,38,40,42)        -68.5358         estimate D2E/DX2                !
 ! D90   D(26,38,40,43)         48.0291         estimate D2E/DX2                !
 ! D91   D(38,40,41,44)       -179.799          estimate D2E/DX2                !
 ! D92   D(38,40,41,45)        -60.2942         estimate D2E/DX2                !
 ! D93   D(38,40,41,46)         60.3443         estimate D2E/DX2                !
 ! D94   D(42,40,41,44)         61.6351         estimate D2E/DX2                !
 ! D95   D(42,40,41,45)       -178.8601         estimate D2E/DX2                !
 ! D96   D(42,40,41,46)        -58.2216         estimate D2E/DX2                !
 ! D97   D(43,40,41,44)        -60.8237         estimate D2E/DX2                !
 ! D98   D(43,40,41,45)         58.681          estimate D2E/DX2                !
 ! D99   D(43,40,41,46)        179.3195         estimate D2E/DX2                !
 --------------------------------------------------------------------------------
 Trust Radius=3.00D-01 FncErr=1.00D-07 GrdErr=1.00D-06 EigMax=2.50D+02 EigMin=1.00D-04
 Number of steps in this run=    237 maximum allowed number of steps=    276.
 GradGradGradGradGradGradGradGradGradGradGradGradGradGradGradGradGradGrad

 Leave Link  103 at Sun Jun 20 08:19:51 2021, MaxMem=  2147483648 cpu:               0.3 elap:               0.1
 (Enter /SFS/product/gaussian/g16.a03/x86_64/avx/g16/l202.exe)
                          Input orientation:                          
 ---------------------------------------------------------------------
 Center     Atomic      Atomic             Coordinates (Angstroms)
 Number     Number       Type             X           Y           Z
 ---------------------------------------------------------------------
      1          6           0        3.123381    0.361268    0.698701
      2          6           0        1.870304   -0.282128    0.782885
      3          6           0        1.523583   -0.939770    1.982701
      4          6           0        2.409511   -0.973949    3.052500
      5          6           0        3.653964   -0.346207    2.949954
      6          6           0        4.002887    0.326226    1.775926
      7          6           0        0.876850   -0.247463   -0.308127
      8          6           0        1.045461    0.624811   -1.563925
      9          6           0        2.152090    0.180910   -2.538957
     10          6           0        1.944965   -1.292274   -2.926769
     11          6           0        1.779816   -2.126968   -1.687299
     12          6           0        0.651953   -2.741920   -1.268163
     13          6           0       -0.642034   -2.762215   -2.036707
     14          8           0       -0.271357   -0.741330   -0.087003
     15         26           0       -2.077539   -0.253599    0.416035
     16         17           0       -3.034693    0.644899   -1.345387
     17          6           0        0.660751   -3.601693   -0.035670
     18         17           0       -1.894447    1.095481    2.141262
     19         17           0       -3.005286   -2.157397    1.012554
     20          1           0        0.551480   -1.408041    2.067409
     21          1           0        2.125466   -1.479877    3.970207
     22          1           0        4.345303   -0.370046    3.787787
     23          1           0        4.960645    0.832342    1.700866
     24          1           0        3.401810    0.921029   -0.184093
     25          1           0        0.076987    0.553892   -2.070110
     26          6           0        1.215913    2.105308   -1.167440
     27          1           0        2.121112    0.832782   -3.418456
     28          1           0        3.138867    0.319342   -2.091285
     29          1           0        1.075690   -1.383024   -3.585214
     30          1           0        2.811992   -1.637607   -3.504817
     31          1           0        2.682488   -2.265952   -1.093503
     32          1           0        1.622618   -3.579403    0.484243
     33          1           0       -0.134301   -3.299848    0.656577
     34          1           0        0.445622   -4.643932   -0.310199
     35          1           0       -0.698620   -3.699764   -2.608960
     36          1           0       -1.501995   -2.758268   -1.361307
     37          1           0       -0.754900   -1.937357   -2.742339
     38          8           0        0.083962    2.583919   -0.647073
     39          8           0        2.234842    2.742950   -1.328271
     40          6           0        0.086496    3.986475   -0.245992
     41          6           0       -1.341407    4.378375    0.074080
     42          1           0        0.750058    4.084712    0.618867
     43          1           0        0.509194    4.571318   -1.067431
     44          1           0       -1.367334    5.431562    0.375493
     45          1           0       -1.985962    4.251742   -0.800968
     46          1           0       -1.741434    3.770231    0.889631
 ---------------------------------------------------------------------
                    Distance matrix (angstroms):
                    1          2          3          4          5
     1  C    0.000000
     2  C    1.411116   0.000000
     3  C    2.429138   1.411477   0.000000
     4  C    2.798711   2.433210   1.389427   0.000000
     5  C    2.418714   2.807443   2.413798   1.397583   0.000000
     6  C    1.391105   2.429843   2.791496   2.420525   1.397231
     7  C    2.535973   1.475961   2.479001   3.764392   4.282196
     8  C    3.083291   2.647720   3.905774   5.072282   5.303043
     9  C    3.385021   3.365775   4.700674   5.715274   5.715035
    10  C    4.155346   3.845452   4.940113   6.005730   6.192866
    11  C    3.699930   3.084385   3.865746   4.918502   5.309205
    12  C    4.427899   3.426624   3.817800   4.988272   5.704737
    13  C    5.605083   4.518050   4.915978   6.197568   7.011382
    14  O    3.654764   2.356753   2.746791   4.134930   4.978692
    15  Fe   5.244762   3.964954   3.986647   5.253900   6.267332
    16  Cl   6.494661   5.426593   5.862186   7.183414   8.010642
    17  C    4.723231   3.626646   3.450237   4.415880   5.335866
    18  Cl   5.272442   4.232770   3.981246   4.861785   5.789414
    19  Cl   6.633456   5.228839   4.788993   5.906095   7.167952
    20  H    3.408591   2.158003   1.082330   2.147352   3.395848
    21  H    3.884379   3.414489   2.145730   1.085740   2.159266
    22  H    3.401524   3.893942   3.397797   2.156997   1.086500
    23  H    2.145177   3.411003   3.877268   3.405567   2.157919
    24  H    1.081749   2.174430   3.418378   3.879579   3.389944
    25  H    4.121157   3.471958   4.555101   5.832332   6.229445
    26  C    3.187882   3.151483   4.392101   5.358581   5.376519
    27  H    4.263549   4.353986   5.715897   6.724635   6.655546
    28  H    2.790344   3.198730   4.559810   5.353792   5.111005
    29  H    5.058411   4.574240   5.603460   6.782748   7.101472
    30  H    4.664979   4.594397   5.679774   6.603093   6.636317
    31  H    3.210711   2.848865   3.544693   4.351222   4.580254
    32  H    4.222223   3.320024   3.036914   3.742130   4.545289
    33  H    4.900820   3.625056   3.174453   4.197765   5.323018
    34  H    5.765440   4.716978   4.487784   5.351017   6.276344
    35  H    6.483849   5.457492   5.799923   7.010184   7.816192
    36  H    5.947204   4.701194   4.862453   6.161604   7.140653
    37  H    5.671463   4.696667   5.339725   6.672467   7.373740
    38  O    3.998669   3.667427   4.626511   5.635019   5.853986
    39  O    3.251235   3.706881   5.003084   5.747782   5.464431
    40  C    4.822576   4.739360   5.594656   6.393923   6.458563
    41  C    6.038347   5.704190   6.335114   7.182461   7.452923
    42  H    4.416228   4.511224   5.263440   5.853751   5.787891
    43  H    5.260962   5.369565   6.379999   7.164846   7.085973
    44  H    6.780772   6.579857   7.178746   7.903259   8.076131
    45  H    6.594709   6.159168   6.856932   7.840743   8.186533
    46  H    5.943392   5.429333   5.834316   6.664502   7.092271
                    6          7          8          9         10
     6  C    0.000000
     7  C    3.800592   0.000000
     8  C    4.471032   1.538285   0.000000
     9  C    4.697316   2.605061   1.540248   0.000000
    10  C    5.382372   3.014927   2.518266   1.537391   0.000000
    11  C    4.791047   2.500000   2.850752   2.488013   1.503421
    12  C    5.468890   2.682268   3.402529   3.522537   2.554276
    13  C    6.756473   3.408662   3.813543   4.089177   3.105721
    14  O    4.783236   1.269323   2.404506   3.568711   3.644159
    15  Fe   6.257562   3.041852   3.800655   5.177889   5.332328
    16  Cl   7.705302   4.143958   4.086052   5.342529   5.572289
    17  C    5.466288   3.372209   4.510754   4.774790   3.916768
    18  Cl   5.958504   3.934856   4.753209   6.254227   6.791715
    19  Cl   7.474330   4.523608   5.548646   6.684268   6.385271
    20  H    3.873610   2.663828   4.190834   5.128872   5.186233
    21  H    3.406110   4.624071   6.018533   6.717748   6.901888
    22  H    2.156300   5.368585   6.365494   6.718737   7.190090
    23  H    1.085858   4.677544   5.102019   5.127226   5.918051
    24  H    2.134657   2.784992   2.746646   2.766760   3.813578
    25  H    5.500592   2.094406   1.095077   2.159858   2.762523
    26  C    4.426710   2.527630   1.542117   2.541809   3.894909
    27  H    5.547908   3.519839   2.153964   1.095178   2.188298
    28  H    3.962562   2.935582   2.180314   1.092384   2.172727
    29  H    6.342857   3.473951   2.849197   2.167759   1.094269
    30  H    5.758569   3.986992   3.465001   2.162258   1.097784
    31  H    4.086131   2.819830   3.355244   2.890985   2.202919
    32  H    4.752690   3.505117   4.712061   4.853868   4.119450
    33  H    5.614061   3.357102   4.661053   5.249257   4.603702
    34  H    6.458214   4.417567   5.448971   5.581980   4.508667
    35  H    7.585512   4.437828   4.778689   4.815712   3.589645
    36  H    7.046989   3.615554   4.239789   4.835076   4.059722
    37  H    6.940826   3.382859   3.345843   3.602639   2.781981
    38  O    5.130894   2.959777   2.367108   3.691995   4.866746
    39  O    4.313070   3.439100   2.440630   2.834900   4.349972
    40  C    5.729197   4.307523   3.735953   4.899662   6.205293
    41  C    6.919369   5.144426   4.740194   6.054023   7.208439
    42  H    5.103518   4.432058   4.101556   5.213177   6.550673
    43  H    6.189618   4.892072   4.013603   4.913266   6.316667
    44  H    7.540885   6.144512   5.717323   6.960583   8.190618
    45  H    7.610281   5.355505   4.788137   6.059353   7.120908
    46  H    6.756028   4.942864   4.866250   6.308563   7.333717
                   11         12         13         14         15
    11  C    0.000000
    12  C    1.351265   0.000000
    13  C    2.528039   1.505149   0.000000
    14  O    2.947584   2.500000   2.832441   0.000000
    15  Fe   4.776266   4.059358   3.790748   1.937323   0.000000
    16  Cl   5.565936   5.006782   4.220328   3.337842   2.196827
    17  C    2.480927   1.502773   2.531032   3.008843   4.348793
    18  Cl   6.208242   5.730094   5.822867   3.312621   2.197714
    19  Cl   5.494300   4.349567   3.904966   3.269348   2.200226
    20  H    4.015408   3.593796   4.483529   2.400636   3.312327
    21  H    5.704873   5.586100   6.736948   4.769818   5.639251
    22  H    6.296433   6.695465   8.032480   6.038659   7.255010
    23  H    5.509524   6.336822   7.634154   5.748631   7.236442
    24  H    3.765737   4.706816   5.775045   4.032991   5.635882
    25  H    3.198934   3.440361   3.393328   2.394088   3.387468
    26  C    4.301209   4.880965   5.282080   3.388608   4.349559
    27  H    3.445796   4.422746   4.740064   4.393212   5.788974
    28  H    2.827482   4.029094   4.877928   4.095339   5.815996
    29  H    2.156694   2.719352   2.692697   3.803129   5.218088
    30  H    2.146680   3.299681   3.917957   4.689542   6.418417
    31  H    1.089370   2.092875   3.491183   3.473142   5.383877
    32  H    2.617226   2.171289   3.485919   3.459497   4.975619
    33  H    3.245496   2.152697   2.792959   2.667904   3.621280
    34  H    3.164109   2.139607   2.775731   3.974189   5.115543
    35  H    3.076653   2.130551   1.099852   3.910902   4.788326
    36  H    3.357841   2.156023   1.093487   2.684466   3.124670
    37  H    2.752062   2.190834   1.091351   2.952135   3.815723
    38  O    5.113751   5.391932   5.571293   3.390754   3.722068
    39  O    4.904289   5.709024   6.251811   4.467884   5.533402
    40  C    6.505297   6.829046   7.020131   4.743994   4.806200
    41  C    7.427246   7.514899   7.478808   5.232813   4.702553
    42  H    6.705503   7.083319   7.474651   4.983194   5.182411
    43  H    6.845857   7.317385   7.486356   5.458455   5.672009
    44  H    8.443402   8.578166   8.572208   6.286467   5.729493
    45  H    7.460202   7.489204   7.247675   5.327324   4.667717
    46  H    7.335988   7.265844   7.241891   4.844494   4.065522
                   16         17         18         19         20
    16  Cl   0.000000
    17  C    5.779724   0.000000
    18  Cl   3.695931   5.773345   0.000000
    19  Cl   3.662460   4.077327   3.617894   0.000000
    20  H    5.359326   3.040886   3.500805   3.784817   0.000000
    21  H    7.706974   4.763879   5.112456   5.960819   2.470472
    22  H    9.046763   6.215970   6.617650   8.057773   4.293044
    23  H    8.558050   6.416020   6.874262   8.536297   4.959275
    24  H    6.546253   5.290600   5.786886   7.208297   4.314882
    25  H    3.196257   4.663541   4.681402   5.133645   4.603628
    26  C    4.498012   5.844567   4.652053   6.382911   4.821757
    27  H    5.560148   5.765454   6.863249   7.406415   6.130232
    28  H    6.226973   5.073571   6.622016   7.315645   5.193569
    29  H    5.101426   4.206415   6.910660   6.196248   5.676933
    30  H    6.637522   4.529951   7.842101   7.383600   6.017667
    31  H    6.420487   2.643981   6.535386   6.066138   3.907502
    32  H    6.548497   1.093615   6.080296   4.870186   2.892847
    33  H    5.289722   1.096551   4.961988   3.110381   2.457575
    34  H    6.415290   1.099049   6.665317   4.454357   4.016866
    35  H    5.092146   2.911929   6.854851   4.562342   5.355667
    36  H    3.732420   2.673228   5.222393   2.873351   4.218527
    37  H    3.717119   3.478525   5.860566   4.383135   5.012034
    38  O    3.738108   6.242459   3.728855   5.897278   4.850024
    39  O    5.671870   6.663563   5.639401   7.546642   5.620950
    40  C    4.702831   7.612772   4.240397   6.992154   5.888025
    41  C    4.338312   8.228133   3.918735   6.809225   6.406168
    42  H    5.478590   7.714740   4.271603   7.295308   5.684016
    43  H    5.296523   8.239272   5.306095   7.871055   6.751425
    44  H    5.352911   9.267248   4.711410   7.789803   7.302369
    45  H    3.795464   8.322693   4.315910   6.738319   6.833692
    46  H    4.054075   7.808453   2.957073   6.062112   5.784386
                   21         22         23         24         25
    21  H    0.000000
    22  H    2.488509   0.000000
    23  H    4.305172   2.485885   0.000000
    24  H    4.965039   4.281692   2.447632   0.000000
    25  H    6.694618   7.306650   6.176399   3.840091   0.000000
    26  C    6.330581   6.361976   4.885759   2.673506   2.125760
    27  H    7.742141   7.636999   5.854093   3.479810   2.464602
    28  H    6.403581   6.041046   4.238213   2.017064   3.070924
    29  H    7.628617   8.128815   6.924115   4.720923   2.654165
    30  H    7.508141   7.559089   6.149512   4.233404   3.786991
    31  H    5.154546   5.494216   4.753727   3.391356   3.961555
    32  H    4.100343   5.350363   5.664458   4.885293   5.098806
    33  H    4.404428   6.201215   6.642590   5.570153   4.725545
    34  H    5.581666   7.089930   7.376950   6.302677   5.500050
    35  H    7.495919   8.800372   8.434564   6.636658   4.357237
    36  H    6.574025   8.149090   8.002193   6.242625   3.737110
    37  H    7.318748   8.432739   7.751178   5.656256   2.711134
    38  O    6.480853   6.822970   5.688838   3.740009   2.479131
    39  O    6.776290   6.349712   4.500677   2.447520   3.162062
    40  C    7.198245   7.306715   6.123409   4.515761   3.887174
    41  C    7.843349   8.287207   7.411926   5.875202   4.608260
    42  H    6.639870   6.543142   5.429335   4.205404   4.488910
    43  H    8.037854   7.918709   6.438853   4.740477   4.163157
    44  H    8.537541   8.828172   7.934277   6.588079   5.644351
    45  H    8.515833   9.083089   8.136757   6.364139   4.420472
    46  H    7.211553   7.911357   7.362551   5.976939   4.734085
                   26         27         28         29         30
    26  C    0.000000
    27  H    2.739668   0.000000
    28  H    2.782250   1.749522   0.000000
    29  H    4.246617   2.455710   3.063751   0.000000
    30  H    4.692570   2.566631   2.436097   1.756707   0.000000
    31  H    4.611315   3.914422   2.808486   3.093539   2.495200
    32  H    5.933751   5.911593   4.912491   4.656575   4.593232
    33  H    5.862237   6.226669   5.600260   4.809478   5.362918
    34  H    6.846930   6.516358   5.921142   4.664357   4.984303
    35  H    6.280309   5.399087   5.580995   3.077098   4.168866
    36  H    5.574852   5.500401   5.616240   3.671719   4.945806
    37  H    4.765244   4.049969   4.547305   2.090163   3.659773
    38  O    1.334602   3.859666   4.067739   5.035160   5.781879
    39  O    1.212712   2.833822   2.696911   4.843665   4.925417
    40  C    2.379798   4.914262   5.115656   6.400033   7.048302
    41  C    3.639793   6.062844   6.421636   7.240615   8.139488
    42  H    2.706650   5.362352   5.218174   6.904815   7.348556
    43  H    2.567228   4.701303   5.103210   6.489556   7.056520
    44  H    4.485284   6.907393   7.247457   8.251918   9.082771
    45  H    3.872142   5.950512   6.587303   6.991161   8.063225
    46  H    3.968553   6.489028   6.679209   7.383526   8.324036
                   31         32         33         34         35
    31  H    0.000000
    32  H    2.310359   0.000000
    33  H    3.473618   1.787348   0.000000
    34  H    3.357369   1.774734   1.754289   0.000000
    35  H    3.972948   3.869178   3.337982   2.735881   0.000000
    36  H    4.221847   3.720689   2.497149   2.907537   1.757403
    37  H    3.826522   4.331251   3.714048   3.831724   1.768343
    38  O    5.520225   6.452432   6.030411   7.244730   6.629186
    39  O    5.034342   6.605465   6.787331   7.668364   7.194020
    40  C    6.822777   7.754703   7.345331   8.638114   8.079498
    41  C    7.855066   8.501759   7.794326   9.205605   8.536288
    42  H    6.855467   7.714800   7.437422   8.783227   8.550766
    43  H    7.174409   8.371479   8.083412   9.246528   8.499760
    44  H    8.821039   9.494690   8.822522  10.260242   9.629914
    45  H    8.022489   8.717824   7.910727   9.235067   8.255455
    46  H    7.742055   8.093102   7.254186   8.776158   8.314351
                   36         37         38         39         40
    36  H    0.000000
    37  H    1.771806   0.000000
    38  O    5.618216   5.053293   0.000000
    39  O    6.650447   5.730918   2.261771   0.000000
    40  C    7.018461   6.483169   1.458779   2.707965   0.000000
    41  C    7.281332   6.940078   2.402459   4.175016   1.514905
    42  H    7.471225   7.058889   2.073323   2.792177   1.094507
    43  H    7.606187   6.838574   2.075398   2.527613   1.093379
    44  H    8.373047   8.024769   3.355737   4.806986   2.141995
    45  H    7.049003   6.602225   2.662687   4.513279   2.161816
    46  H    6.909801   6.836740   2.664745   4.667458   2.162806
                   41         42         43         44         45
    41  C    0.000000
    42  H    2.181114   0.000000
    43  H    2.182888   1.771554   0.000000
    44  H    1.095776   2.521227   2.518612   0.000000
    45  H    1.094165   3.087011   2.529612   1.777283   0.000000
    46  H    1.093153   2.525815   3.088229   1.778851   1.774760
                   46
    46  H    0.000000
 Stoichiometry    C17H22Cl3FeO3(6)
 Framework group  C1[X(C17H22Cl3FeO3)]
 Deg. of freedom   132
 Full point group                 C1      NOp   1
 Largest Abelian subgroup         C1      NOp   1
 Largest concise Abelian subgroup C1      NOp   1
                         Standard orientation:                         
 ---------------------------------------------------------------------
 Center     Atomic      Atomic             Coordinates (Angstroms)
 Number     Number       Type             X           Y           Z
 ---------------------------------------------------------------------
      1          6           0        3.123381    0.361269    0.698701
      2          6           0        1.870304   -0.282128    0.782885
      3          6           0        1.523583   -0.939770    1.982701
      4          6           0        2.409511   -0.973948    3.052500
      5          6           0        3.653964   -0.346206    2.949954
      6          6           0        4.002887    0.326227    1.775926
      7          6           0        0.876850   -0.247463   -0.308127
      8          6           0        1.045461    0.624811   -1.563925
      9          6           0        2.152090    0.180911   -2.538957
     10          6           0        1.944965   -1.292273   -2.926769
     11          6           0        1.779817   -2.126968   -1.687299
     12          6           0        0.651954   -2.741920   -1.268163
     13          6           0       -0.642033   -2.762215   -2.036707
     14          8           0       -0.271357   -0.741330   -0.087003
     15         26           0       -2.077539   -0.253600    0.416035
     16         17           0       -3.034693    0.644898   -1.345387
     17          6           0        0.660752   -3.601693   -0.035670
     18         17           0       -1.894447    1.095481    2.141262
     19         17           0       -3.005285   -2.157398    1.012554
     20          1           0        0.551480   -1.408041    2.067409
     21          1           0        2.125466   -1.479876    3.970207
     22          1           0        4.345303   -0.370045    3.787787
     23          1           0        4.960645    0.832343    1.700866
     24          1           0        3.401810    0.921030   -0.184093
     25          1           0        0.076987    0.553892   -2.070110
     26          6           0        1.215912    2.105308   -1.167440
     27          1           0        2.121112    0.832783   -3.418456
     28          1           0        3.138867    0.319343   -2.091285
     29          1           0        1.075690   -1.383024   -3.585214
     30          1           0        2.811992   -1.637606   -3.504817
     31          1           0        2.682489   -2.265951   -1.093503
     32          1           0        1.622619   -3.579403    0.484243
     33          1           0       -0.134300   -3.299848    0.656577
     34          1           0        0.445623   -4.643932   -0.310199
     35          1           0       -0.698619   -3.699764   -2.608960
     36          1           0       -1.501994   -2.758268   -1.361307
     37          1           0       -0.754900   -1.937357   -2.742339
     38          8           0        0.083961    2.583919   -0.647073
     39          8           0        2.234841    2.742951   -1.328271
     40          6           0        0.086495    3.986475   -0.245992
     41          6           0       -1.341408    4.378375    0.074080
     42          1           0        0.750057    4.084712    0.618867
     43          1           0        0.509193    4.571318   -1.067431
     44          1           0       -1.367335    5.431562    0.375493
     45          1           0       -1.985963    4.251741   -0.800968
     46          1           0       -1.741435    3.770231    0.889631
 ---------------------------------------------------------------------
 Rotational constants (GHZ):           0.1930794           0.1646013           0.1411295
 Leave Link  202 at Sun Jun 20 08:19:51 2021, MaxMem=  2147483648 cpu:               0.2 elap:               0.1
 (Enter /SFS/product/gaussian/g16.a03/x86_64/avx/g16/l301.exe)
 Standard basis: Jul-CC-pVDZ (5D, 7F)
 Ernie: Thresh=  0.10000D-02 Tol=  0.10000D-05 Strict=F.
 Ernie:  134 primitive shells out of 958 were deleted.
 There are   766 symmetry adapted cartesian basis functions of A   symmetry.
 There are   710 symmetry adapted basis functions of A   symmetry.
   710 basis functions,  1571 primitive gaussians,   766 cartesian basis functions
   115 alpha electrons      110 beta electrons
       nuclear repulsion energy      3335.6444232715 Hartrees.
 IExCor=  402 DFT=T Ex+Corr=B3LYP ExCW=0 ScaHFX=  0.200000
 ScaDFX=  0.800000  0.720000  1.000000  0.810000 ScalE2=  1.000000  1.000000
 IRadAn=      5 IRanWt=     -1 IRanGd=            0 ICorTp=0 IEmpDi=  4
 NAtoms=   46 NActive=   46 NUniq=   46 SFac= 1.00D+00 NAtFMM=   60 NAOKFM=F Big=F
 Integral buffers will be    131072 words long.
 Raffenetti 2 integral format.
 Two-electron integral symmetry is turned on.
 Leave Link  301 at Sun Jun 20 08:19:51 2021, MaxMem=  2147483648 cpu:               1.2 elap:               0.1
 (Enter /SFS/product/gaussian/g16.a03/x86_64/avx/g16/l302.exe)
 NPDir=0 NMtPBC=     1 NCelOv=     1 NCel=       1 NClECP=     1 NCelD=      1
         NCelK=      1 NCelE2=     1 NClLst=     1 CellRange=     0.0.
 One-electron integrals computed using PRISM.
 One-electron integral symmetry used in STVInt
 NBasis=   710 RedAO= T EigKep=  1.54D-06  NBF=   710
 NBsUse=   710 1.00D-06 EigRej= -1.00D+00 NBFU=   710
 Precomputing XC quadrature grid using
 IXCGrd= 4 IRadAn=           5 IRanWt=          -1 IRanGd=           0 AccXCQ= 0.00D+00.
 Generated NRdTot=       0 NPtTot=           0 NUsed=           0 NTot=          32
 NSgBfM=   764   764   764   764   764 MxSgAt=    46 MxSgA2=    46.
 Leave Link  302 at Sun Jun 20 08:19:52 2021, MaxMem=  2147483648 cpu:              15.9 elap:               1.1
 (Enter /SFS/product/gaussian/g16.a03/x86_64/avx/g16/l303.exe)
 DipDrv:  MaxL=1.
 Leave Link  303 at Sun Jun 20 08:19:52 2021, MaxMem=  2147483648 cpu:               2.5 elap:               0.2
 (Enter /SFS/product/gaussian/g16.a03/x86_64/avx/g16/l401.exe)
 ExpMin= 1.40D-02 ExpMax= 4.32D+06 ExpMxC= 4.91D+03 IAcc=3 IRadAn=         5 AccDes= 0.00D+00
 Harris functional with IExCor=  402 and IRadAn=       5 diagonalized for initial guess.
 HarFok:  IExCor=  402 AccDes= 0.00D+00 IRadAn=         5 IDoV= 1 UseB2=F ITyADJ=14
 ICtDFT=  3500011 ScaDFX=  1.000000  1.000000  1.000000  1.000000
 FoFCou: FMM=F IPFlag=           0 FMFlag=      100000 FMFlg1=           0
         NFxFlg=           0 DoJE=T BraDBF=F KetDBF=T FulRan=T
         wScrn=  0.000000 ICntrl=       500 IOpCl=  0 I1Cent=   200000004 NGrid=           0
         NMat0=    1 NMatS0=      1 NMatT0=    0 NMatD0=    1 NMtDS0=    0 NMtDT0=    0
 Petite list used in FoFCou.
 Harris En= -3531.12237537544    
 JPrj=0 DoOrth=F DoCkMO=F.
 Initial guess <Sx>= 0.0000 <Sy>= 0.0000 <Sz>= 2.5000 <S**2>= 8.7500 S= 2.5000
 Leave Link  401 at Sun Jun 20 08:19:59 2021, MaxMem=  2147483648 cpu:              95.0 elap:               6.0
 (Enter /SFS/product/gaussian/g16.a03/x86_64/avx/g16/l502.exe)
 Integral symmetry usage will be decided dynamically.
 UHF open shell SCF:
 Using DIIS extrapolation, IDIIS=  1040.
 NGot=  2147483648 LenX=  2146290678 LenY=  2145703156
 Requested convergence on RMS density matrix=1.00D-08 within 128 cycles.
 Requested convergence on MAX density matrix=1.00D-06.
 Requested convergence on             energy=1.00D-06.
 No special actions if energy rises.
 Fock matrices will be formed incrementally for  20 cycles.

 Cycle   1  Pass 1  IDiag  1:
 FoFJK:  IHMeth= 1 ICntrl=       0 DoSepK=F KAlg= 0 I1Cent=           0 FoldK=F
 IRaf= 920000000 NMat=       1 IRICut=       1 DoRegI=T DoRafI=F ISym2E= 0 IDoP0=0 IntGTp=1.
 FoFCou: FMM=F IPFlag=           0 FMFlag=      100000 FMFlg1=           0
         NFxFlg=           0 DoJE=F BraDBF=F KetDBF=F FulRan=T
         wScrn=  0.000000 ICntrl=         0 IOpCl=  1 I1Cent=           0 NGrid=           0
         NMat0=    1 NMatS0=      1 NMatT0=    0 NMatD0=    1 NMtDS0=    0 NMtDT0=    0
 Symmetry not used in FoFCou.
 E= -3530.38688482702    
 DIIS: error= 2.42D-02 at cycle   1 NSaved=   1.
 NSaved= 1 IEnMin= 1 EnMin= -3530.38688482702     IErMin= 1 ErrMin= 2.42D-02
 ErrMax= 2.42D-02  0.00D+00 EMaxC= 1.00D-01 BMatC= 4.46D+00 BMatP= 4.46D+00
 IDIUse=3 WtCom= 7.58D-01 WtEn= 2.42D-01
 Coeff-Com:  0.100D+01
 Coeff-En:   0.100D+01
 Coeff:      0.100D+01
 Gap=     0.184 Goal=   None    Shift=    0.000
 Gap=     0.119 Goal=   None    Shift=    0.000
 GapD=    0.119 DampG=1.000 DampE=0.250 DampFc=0.2500 IDamp=-1.
 Damping current iteration by 2.50D-01
 RMSDP=4.51D-02 MaxDP=1.18D+01              OVMax= 9.20D-01

 Cycle   2  Pass 1  IDiag  1:
 RMSU=  4.96D-03    CP:  8.97D-01
 E= -3530.30220732034     Delta-E=        0.084677506683 Rises=F Damp=T
 DIIS: error= 1.44D-02 at cycle   2 NSaved=   2.
 NSaved= 2 IEnMin= 1 EnMin= -3530.38688482702     IErMin= 2 ErrMin= 1.44D-02
 ErrMax= 1.44D-02  0.00D+00 EMaxC= 1.00D-01 BMatC= 1.52D+00 BMatP= 4.46D+00
 IDIUse=3 WtCom= 8.56D-01 WtEn= 1.44D-01
 Coeff-Com:  0.288D+00 0.712D+00
 Coeff-En:   0.532D+00 0.468D+00
 Coeff:      0.323D+00 0.677D+00
 Gap=    -0.322 Goal=   None    Shift=    0.000
 Gap=    -0.002 Goal=   None    Shift=    0.000
 RMSDP=3.23D-02 MaxDP=9.71D+00 DE= 8.47D-02 OVMax= 9.65D-01

 Cycle   3  Pass 1  IDiag  1:
 RMSU=  8.02D-03    CP:  5.79D-01  1.29D+00
 E= -3529.97783996538     Delta-E=        0.324367354962 Rises=F Damp=F
 DIIS: error= 4.24D-02 at cycle   3 NSaved=   3.
 NSaved= 3 IEnMin= 1 EnMin= -3530.38688482702     IErMin= 2 ErrMin= 1.44D-02
 ErrMax= 4.24D-02  0.00D+00 EMaxC= 1.00D-01 BMatC= 6.43D+00 BMatP= 1.52D+00
 IDIUse=2 WtCom= 0.00D+00 WtEn= 1.00D+00
 EnCoef did     4 forward-backward iterations
 Coeff-En:   0.159D+00 0.494D+00 0.347D+00
 Coeff:      0.159D+00 0.494D+00 0.347D+00
 Gap=    -0.041 Goal=   None    Shift=    0.000
 Gap=     0.214 Goal=   None    Shift=    0.000
 RMSDP=6.94D-03 MaxDP=1.19D+00 DE= 3.24D-01 OVMax= 6.31D-01

 Cycle   4  Pass 1  IDiag  1:
 RMSU=  4.98D-03    CP:  6.06D-01  1.63D+00  5.43D-01
 E= -3525.67432858994     Delta-E=        4.303511375441 Rises=F Damp=F
 DIIS: error= 8.62D-02 at cycle   4 NSaved=   4.
 NSaved= 4 IEnMin= 1 EnMin= -3530.38688482702     IErMin= 2 ErrMin= 1.44D-02
 ErrMax= 8.62D-02  0.00D+00 EMaxC= 1.00D-01 BMatC= 3.25D+01 BMatP= 1.52D+00
 IDIUse=2 WtCom= 0.00D+00 WtEn= 1.00D+00
 EnCoef did     4 forward-backward iterations
 Coeff-En:   0.272D+00 0.000D+00 0.470D+00 0.258D+00
 Coeff:      0.272D+00 0.000D+00 0.470D+00 0.258D+00
 Gap=     0.100 Goal=   None    Shift=    0.000
 Gap=    -0.025 Goal=   None    Shift=    0.000
 RMSDP=4.39D-03 MaxDP=4.78D-01 DE= 4.30D+00 OVMax= 8.67D-01

 Cycle   5  Pass 1  IDiag  1:
 RMSU=  2.87D-03    CP:  6.16D-01  1.15D+00  6.71D-01  6.38D-01
 E= -3531.33465275723     Delta-E=       -5.660324167294 Rises=F Damp=F
 DIIS: error= 7.37D-03 at cycle   5 NSaved=   5.
 NSaved= 5 IEnMin= 5 EnMin= -3531.33465275723     IErMin= 5 ErrMin= 7.37D-03
 ErrMax= 7.37D-03  0.00D+00 EMaxC= 1.00D-01 BMatC= 3.84D-01 BMatP= 1.52D+00
 IDIUse=3 WtCom= 9.26D-01 WtEn= 7.37D-02
 Coeff-Com: -0.214D-01 0.323D+00 0.217D+00-0.935D-02 0.490D+00
 Coeff-En:   0.000D+00 0.000D+00 0.566D-01 0.000D+00 0.943D+00
 Coeff:     -0.198D-01 0.299D+00 0.206D+00-0.866D-02 0.523D+00
 Gap=     0.119 Goal=   None    Shift=    0.000
 Gap=     0.144 Goal=   None    Shift=    0.000
 RMSDP=2.87D-03 MaxDP=3.45D-01 DE=-5.66D+00 OVMax= 1.74D-01

 Cycle   6  Pass 1  IDiag  1:
 RMSU=  2.09D-03    CP:  6.21D-01  1.15D+00  7.01D-01  4.96D-01  3.94D-01
 E= -3531.36191682159     Delta-E=       -0.027264064357 Rises=F Damp=F
 DIIS: error= 4.68D-03 at cycle   6 NSaved=   6.
 NSaved= 6 IEnMin= 6 EnMin= -3531.36191682159     IErMin= 6 ErrMin= 4.68D-03
 ErrMax= 4.68D-03  0.00D+00 EMaxC= 1.00D-01 BMatC= 3.03D-01 BMatP= 3.84D-01
 IDIUse=3 WtCom= 9.53D-01 WtEn= 4.68D-02
 Coeff-Com: -0.412D-01 0.134D+00 0.957D-01-0.176D-01 0.429D+00 0.399D+00
 Coeff-En:   0.000D+00 0.000D+00 0.000D+00 0.000D+00 0.424D+00 0.576D+00
 Coeff:     -0.392D-01 0.128D+00 0.912D-01-0.168D-01 0.429D+00 0.408D+00
 Gap=     0.134 Goal=   None    Shift=    0.000
 Gap=     0.135 Goal=   None    Shift=    0.000
 RMSDP=1.26D-03 MaxDP=1.12D-01 DE=-2.73D-02 OVMax= 8.18D-02

 Cycle   7  Pass 1  IDiag  1:
 RMSU=  8.97D-04    CP:  6.23D-01  1.14D+00  6.75D-01  5.17D-01  6.08D-01
                    CP:  7.38D-01
 E= -3531.42783151253     Delta-E=       -0.065914690940 Rises=F Damp=F
 DIIS: error= 2.15D-03 at cycle   7 NSaved=   7.
 NSaved= 7 IEnMin= 7 EnMin= -3531.42783151253     IErMin= 7 ErrMin= 2.15D-03
 ErrMax= 2.15D-03  0.00D+00 EMaxC= 1.00D-01 BMatC= 2.77D-02 BMatP= 3.03D-01
 IDIUse=3 WtCom= 9.79D-01 WtEn= 2.15D-02
 Coeff-Com: -0.196D-01 0.360D-01 0.104D-01-0.143D-02 0.156D+00 0.202D+00
 Coeff-Com:  0.617D+00
 Coeff-En:   0.000D+00 0.000D+00 0.000D+00 0.000D+00 0.000D+00 0.000D+00
 Coeff-En:   0.100D+01
 Coeff:     -0.192D-01 0.352D-01 0.101D-01-0.140D-02 0.152D+00 0.197D+00
 Coeff:      0.625D+00
 Gap=     0.130 Goal=   None    Shift=    0.000
 Gap=     0.112 Goal=   None    Shift=    0.000
 RMSDP=6.00D-04 MaxDP=1.29D-01 DE=-6.59D-02 OVMax= 2.32D-02

 Cycle   8  Pass 1  IDiag  1:
 RMSU=  4.97D-04    CP:  6.22D-01  1.12D+00  6.67D-01  5.42D-01  6.74D-01
                    CP:  6.63D-01  1.04D+00
 E= -3531.43165624410     Delta-E=       -0.003824731572 Rises=F Damp=F
 DIIS: error= 1.08D-03 at cycle   8 NSaved=   8.
 NSaved= 8 IEnMin= 8 EnMin= -3531.43165624410     IErMin= 8 ErrMin= 1.08D-03
 ErrMax= 1.08D-03  0.00D+00 EMaxC= 1.00D-01 BMatC= 9.18D-03 BMatP= 2.77D-02
 IDIUse=3 WtCom= 9.89D-01 WtEn= 1.08D-02
 Coeff-Com: -0.114D-01 0.165D-01-0.957D-02 0.317D-02 0.277D-01 0.527D-01
 Coeff-Com:  0.361D+00 0.560D+00
 Coeff-En:   0.000D+00 0.000D+00 0.000D+00 0.000D+00 0.000D+00 0.000D+00
 Coeff-En:   0.788D-01 0.921D+00
 Coeff:     -0.112D-01 0.163D-01-0.947D-02 0.313D-02 0.274D-01 0.521D-01
 Coeff:      0.358D+00 0.564D+00
 Gap=     0.134 Goal=   None    Shift=    0.000
 Gap=     0.117 Goal=   None    Shift=    0.000
 RMSDP=2.98D-04 MaxDP=3.61D-02 DE=-3.82D-03 OVMax= 1.51D-02

 Cycle   9  Pass 1  IDiag  1:
 RMSU=  1.93D-04    CP:  6.22D-01  1.13D+00  6.70D-01  5.41D-01  6.48D-01
                    CP:  7.42D-01  1.11D+00  7.81D-01
 E= -3531.43305763490     Delta-E=       -0.001401390801 Rises=F Damp=F
 DIIS: error= 8.54D-04 at cycle   9 NSaved=   9.
 NSaved= 9 IEnMin= 9 EnMin= -3531.43305763490     IErMin= 9 ErrMin= 8.54D-04
 ErrMax= 8.54D-04  0.00D+00 EMaxC= 1.00D-01 BMatC= 3.27D-03 BMatP= 9.18D-03
 IDIUse=3 WtCom= 9.91D-01 WtEn= 8.54D-03
 Coeff-Com: -0.999D-02 0.167D-01-0.278D-02 0.165D-02 0.845D-02 0.671D-02
 Coeff-Com: -0.191D-01 0.235D+00 0.763D+00
 Coeff-En:   0.000D+00 0.000D+00 0.000D+00 0.000D+00 0.000D+00 0.000D+00
 Coeff-En:   0.000D+00 0.000D+00 0.100D+01
 Coeff:     -0.990D-02 0.166D-01-0.276D-02 0.164D-02 0.837D-02 0.665D-02
 Coeff:     -0.189D-01 0.233D+00 0.765D+00
 Gap=     0.134 Goal=   None    Shift=    0.000
 Gap=     0.114 Goal=   None    Shift=    0.000
 RMSDP=1.30D-04 MaxDP=1.17D-02 DE=-1.40D-03 OVMax= 6.26D-03

 Cycle  10  Pass 1  IDiag  1:
 RMSU=  1.15D-04    CP:  6.22D-01  1.13D+00  6.68D-01  5.44D-01  6.51D-01
                    CP:  7.33D-01  1.14D+00  8.17D-01  9.25D-01
 E= -3531.43341250162     Delta-E=       -0.000354866720 Rises=F Damp=F
 DIIS: error= 4.94D-04 at cycle  10 NSaved=  10.
 NSaved=10 IEnMin=10 EnMin= -3531.43341250162     IErMin=10 ErrMin= 4.94D-04
 ErrMax= 4.94D-04  0.00D+00 EMaxC= 1.00D-01 BMatC= 1.43D-03 BMatP= 3.27D-03
 IDIUse=3 WtCom= 9.95D-01 WtEn= 4.94D-03
 Coeff-Com: -0.713D-02 0.108D-01 0.225D-02 0.800D-04 0.142D-01-0.362D-02
 Coeff-Com: -0.165D+00-0.743D-01 0.522D+00 0.701D+00
 Coeff-En:   0.000D+00 0.000D+00 0.000D+00 0.000D+00 0.000D+00 0.000D+00
 Coeff-En:   0.000D+00 0.000D+00 0.301D-01 0.970D+00
 Coeff:     -0.710D-02 0.108D-01 0.224D-02 0.797D-04 0.141D-01-0.360D-02
 Coeff:     -0.164D+00-0.739D-01 0.520D+00 0.702D+00
 Gap=     0.134 Goal=   None    Shift=    0.000
 Gap=     0.112 Goal=   None    Shift=    0.000
 RMSDP=1.23D-04 MaxDP=1.54D-02 DE=-3.55D-04 OVMax= 5.64D-03

 Cycle  11  Pass 1  IDiag  1:
 RMSU=  7.80D-05    CP:  6.23D-01  1.13D+00  6.64D-01  5.46D-01  6.55D-01
                    CP:  7.46D-01  1.17D+00  8.72D-01  1.03D+00  7.16D-01
 E= -3531.43369545481     Delta-E=       -0.000282953188 Rises=F Damp=F
 DIIS: error= 1.32D-04 at cycle  11 NSaved=  11.
 NSaved=11 IEnMin=11 EnMin= -3531.43369545481     IErMin=11 ErrMin= 1.32D-04
 ErrMax= 1.32D-04  0.00D+00 EMaxC= 1.00D-01 BMatC= 1.50D-04 BMatP= 1.43D-03
 IDIUse=3 WtCom= 9.99D-01 WtEn= 1.32D-03
 EnCoef did     3 forward-backward iterations
 Coeff-Com: -0.296D-02 0.335D-02 0.173D-02-0.124D-03 0.112D-01-0.387D-02
 Coeff-Com: -0.886D-01-0.715D-01 0.170D+00 0.432D+00 0.550D+00
 Coeff-En:   0.000D+00 0.000D+00 0.000D+00 0.000D+00 0.000D+00 0.000D+00
 Coeff-En:   0.000D+00 0.000D+00 0.000D+00 0.282D-02 0.997D+00
 Coeff:     -0.296D-02 0.334D-02 0.173D-02-0.124D-03 0.112D-01-0.386D-02
 Coeff:     -0.885D-01-0.715D-01 0.170D+00 0.431D+00 0.550D+00
 Gap=     0.135 Goal=   None    Shift=    0.000
 Gap=     0.112 Goal=   None    Shift=    0.000
 RMSDP=4.92D-05 MaxDP=5.42D-03 DE=-2.83D-04 OVMax= 2.52D-03

 Cycle  12  Pass 1  IDiag  1:
 RMSU=  3.66D-05    CP:  6.23D-01  1.13D+00  6.63D-01  5.48D-01  6.57D-01
                    CP:  7.38D-01  1.16D+00  8.89D-01  1.05D+00  8.98D-01
                    CP:  8.78D-01
 E= -3531.43373417318     Delta-E=       -0.000038718373 Rises=F Damp=F
 DIIS: error= 4.40D-05 at cycle  12 NSaved=  12.
 NSaved=12 IEnMin=12 EnMin= -3531.43373417318     IErMin=12 ErrMin= 4.40D-05
 ErrMax= 4.40D-05  0.00D+00 EMaxC= 1.00D-01 BMatC= 2.29D-05 BMatP= 1.50D-04
 IDIUse=1 WtCom= 1.00D+00 WtEn= 0.00D+00
 Coeff-Com: -0.355D-03 0.174D-03 0.319D-03-0.462D-04 0.227D-02-0.350D-02
 Coeff-Com: -0.140D-01-0.103D-01 0.122D-01 0.113D+00 0.284D+00 0.616D+00
 Coeff:     -0.355D-03 0.174D-03 0.319D-03-0.462D-04 0.227D-02-0.350D-02
 Coeff:     -0.140D-01-0.103D-01 0.122D-01 0.113D+00 0.284D+00 0.616D+00
 Gap=     0.134 Goal=   None    Shift=    0.000
 Gap=     0.112 Goal=   None    Shift=    0.000
 RMSDP=1.71D-05 MaxDP=3.14D-03 DE=-3.87D-05 OVMax= 1.12D-03

 Cycle  13  Pass 1  IDiag  1:
 RMSU=  1.36D-05    CP:  6.23D-01  1.13D+00  6.63D-01  5.48D-01  6.59D-01
                    CP:  7.36D-01  1.17D+00  8.88D-01  1.05D+00  9.24D-01
                    CP:  9.10D-01  8.73D-01
 E= -3531.43373917321     Delta-E=       -0.000005000024 Rises=F Damp=F
 DIIS: error= 2.00D-05 at cycle  13 NSaved=  13.
 NSaved=13 IEnMin=13 EnMin= -3531.43373917321     IErMin=13 ErrMin= 2.00D-05
 ErrMax= 2.00D-05  0.00D+00 EMaxC= 1.00D-01 BMatC= 3.64D-06 BMatP= 2.29D-05
 IDIUse=1 WtCom= 1.00D+00 WtEn= 0.00D+00
 Coeff-Com:  0.145D-03-0.183D-03-0.179D-04-0.108D-04-0.403D-03-0.165D-02
 Coeff-Com:  0.803D-03 0.388D-02 0.177D-03 0.211D-01 0.755D-01 0.269D+00
 Coeff-Com:  0.632D+00
 Coeff:      0.145D-03-0.183D-03-0.179D-04-0.108D-04-0.403D-03-0.165D-02
 Coeff:      0.803D-03 0.388D-02 0.177D-03 0.211D-01 0.755D-01 0.269D+00
 Coeff:      0.632D+00
 Gap=     0.134 Goal=   None    Shift=    0.000
 Gap=     0.112 Goal=   None    Shift=    0.000
 RMSDP=7.01D-06 MaxDP=1.04D-03 DE=-5.00D-06 OVMax= 3.36D-04

 Cycle  14  Pass 1  IDiag  1:
 RMSU=  5.96D-06    CP:  6.23D-01  1.13D+00  6.63D-01  5.47D-01  6.59D-01
                    CP:  7.37D-01  1.17D+00  8.90D-01  1.05D+00  9.09D-01
                    CP:  9.22D-01  8.85D-01  9.30D-01
 E= -3531.43374010832     Delta-E=       -0.000000935110 Rises=F Damp=F
 DIIS: error= 9.46D-06 at cycle  14 NSaved=  14.
 NSaved=14 IEnMin=14 EnMin= -3531.43374010832     IErMin=14 ErrMin= 9.46D-06
 ErrMax= 9.46D-06  0.00D+00 EMaxC= 1.00D-01 BMatC= 5.13D-07 BMatP= 3.64D-06
 IDIUse=1 WtCom= 1.00D+00 WtEn= 0.00D+00
 Coeff-Com:  0.115D-03-0.623D-04-0.239D-04-0.432D-05-0.444D-03 0.692D-04
 Coeff-Com:  0.102D-02 0.210D-02 0.396D-02-0.444D-02-0.193D-01-0.142D-01
 Coeff-Com:  0.241D+00 0.790D+00
 Coeff:      0.115D-03-0.623D-04-0.239D-04-0.432D-05-0.444D-03 0.692D-04
 Coeff:      0.102D-02 0.210D-02 0.396D-02-0.444D-02-0.193D-01-0.142D-01
 Coeff:      0.241D+00 0.790D+00
 Gap=     0.134 Goal=   None    Shift=    0.000
 Gap=     0.112 Goal=   None    Shift=    0.000
 RMSDP=4.19D-06 MaxDP=3.91D-04 DE=-9.35D-07 OVMax= 2.36D-04

 Cycle  15  Pass 1  IDiag  1:
 RMSU=  3.29D-06    CP:  6.23D-01  1.13D+00  6.63D-01  5.47D-01  6.59D-01
                    CP:  7.37D-01  1.17D+00  8.90D-01  1.05D+00  9.13D-01
                    CP:  9.26D-01  8.85D-01  1.02D+00  1.29D+00
 E= -3531.43374035963     Delta-E=       -0.000000251314 Rises=F Damp=F
 DIIS: error= 5.48D-06 at cycle  15 NSaved=  15.
 NSaved=15 IEnMin=15 EnMin= -3531.43374035963     IErMin=15 ErrMin= 5.48D-06
 ErrMax= 5.48D-06  0.00D+00 EMaxC= 1.00D-01 BMatC= 1.53D-07 BMatP= 5.13D-07
 IDIUse=1 WtCom= 1.00D+00 WtEn= 0.00D+00
 Coeff-Com:  0.105D-04 0.164D-04 0.128D-04-0.218D-05-0.574D-04 0.488D-03
 Coeff-Com: -0.442D-03-0.993D-03 0.318D-02-0.620D-02-0.304D-01-0.885D-01
 Coeff-Com: -0.910D-01 0.417D+00 0.797D+00
 Coeff:      0.105D-04 0.164D-04 0.128D-04-0.218D-05-0.574D-04 0.488D-03
 Coeff:     -0.442D-03-0.993D-03 0.318D-02-0.620D-02-0.304D-01-0.885D-01
 Coeff:     -0.910D-01 0.417D+00 0.797D+00
 Gap=     0.134 Goal=   None    Shift=    0.000
 Gap=     0.112 Goal=   None    Shift=    0.000
 RMSDP=3.73D-06 MaxDP=4.70D-04 DE=-2.51D-07 OVMax= 1.99D-04

 Cycle  16  Pass 1  IDiag  1:
 RMSU=  1.94D-06    CP:  6.23D-01  1.13D+00  6.63D-01  5.47D-01  6.59D-01
                    CP:  7.37D-01  1.17D+00  8.90D-01  1.05D+00  9.19D-01
                    CP:  9.31D-01  8.89D-01  1.08D+00  1.64D+00  1.52D+00
 E= -3531.43374047900     Delta-E=       -0.000000119368 Rises=F Damp=F
 DIIS: error= 3.19D-06 at cycle  16 NSaved=  16.
 NSaved=16 IEnMin=16 EnMin= -3531.43374047900     IErMin=16 ErrMin= 3.19D-06
 ErrMax= 3.19D-06  0.00D+00 EMaxC= 1.00D-01 BMatC= 6.19D-08 BMatP= 1.53D-07
 IDIUse=1 WtCom= 1.00D+00 WtEn= 0.00D+00
 Coeff-Com: -0.284D-04 0.343D-04 0.231D-04-0.314D-06 0.329D-04 0.197D-03
 Coeff-Com: -0.396D-03-0.112D-02 0.438D-04-0.306D-02-0.125D-01-0.481D-01
 Coeff-Com: -0.136D+00-0.188D-02 0.494D+00 0.709D+00
 Coeff:     -0.284D-04 0.343D-04 0.231D-04-0.314D-06 0.329D-04 0.197D-03
 Coeff:     -0.396D-03-0.112D-02 0.438D-04-0.306D-02-0.125D-01-0.481D-01
 Coeff:     -0.136D+00-0.188D-02 0.494D+00 0.709D+00
 Gap=     0.135 Goal=   None    Shift=    0.000
 Gap=     0.112 Goal=   None    Shift=    0.000
 RMSDP=2.42D-06 MaxDP=2.73D-04 DE=-1.19D-07 OVMax= 1.40D-04

 Cycle  17  Pass 1  IDiag  1:
 RMSU=  9.28D-07    CP:  6.23D-01  1.13D+00  6.63D-01  5.47D-01  6.58D-01
                    CP:  7.37D-01  1.17D+00  8.90D-01  1.05D+00  9.20D-01
                    CP:  9.37D-01  8.91D-01  1.12D+00  1.89D+00  1.96D+00
                    CP:  1.13D+00
 E= -3531.43374052574     Delta-E=       -0.000000046743 Rises=F Damp=F
 DIIS: error= 1.85D-06 at cycle  17 NSaved=  17.
 NSaved=17 IEnMin=17 EnMin= -3531.43374052574     IErMin=17 ErrMin= 1.85D-06
 ErrMax= 1.85D-06  0.00D+00 EMaxC= 1.00D-01 BMatC= 1.47D-08 BMatP= 6.19D-08
 IDIUse=1 WtCom= 1.00D+00 WtEn= 0.00D+00
 Coeff-Com: -0.506D-05-0.109D-04-0.289D-05 0.273D-05 0.435D-05-0.164D-04
 Coeff-Com:  0.304D-03 0.940D-05-0.160D-02-0.168D-02-0.483D-04-0.352D-02
 Coeff-Com: -0.427D-01-0.107D+00 0.408D-01 0.368D+00 0.748D+00
 Coeff:     -0.506D-05-0.109D-04-0.289D-05 0.273D-05 0.435D-05-0.164D-04
 Coeff:      0.304D-03 0.940D-05-0.160D-02-0.168D-02-0.483D-04-0.352D-02
 Coeff:     -0.427D-01-0.107D+00 0.408D-01 0.368D+00 0.748D+00
 Gap=     0.135 Goal=   None    Shift=    0.000
 Gap=     0.112 Goal=   None    Shift=    0.000
 RMSDP=1.38D-06 MaxDP=1.47D-04 DE=-4.67D-08 OVMax= 7.77D-05

 Cycle  18  Pass 1  IDiag  1:
 RMSU=  4.80D-07    CP:  6.23D-01  1.13D+00  6.63D-01  5.47D-01  6.58D-01
                    CP:  7.37D-01  1.17D+00  8.90D-01  1.05D+00  9.20D-01
                    CP:  9.40D-01  8.95D-01  1.14D+00  2.02D+00  2.19D+00
                    CP:  1.37D+00  1.29D+00
 E= -3531.43374053787     Delta-E=       -0.000000012124 Rises=F Damp=F
 DIIS: error= 1.13D-06 at cycle  18 NSaved=  18.
 NSaved=18 IEnMin=18 EnMin= -3531.43374053787     IErMin=18 ErrMin= 1.13D-06
 ErrMax= 1.13D-06  0.00D+00 EMaxC= 1.00D-01 BMatC= 9.44D-09 BMatP= 1.47D-08
 IDIUse=1 WtCom= 1.00D+00 WtEn= 0.00D+00
 Coeff-Com: -0.200D-05 0.480D-05 0.157D-06 0.158D-06 0.643D-05-0.483D-04
 Coeff-Com:  0.147D-03 0.104D-03-0.102D-02 0.846D-04 0.403D-02 0.128D-01
 Coeff-Com:  0.185D-01-0.561D-01-0.131D+00-0.134D-01 0.444D+00 0.722D+00
 Coeff:     -0.200D-05 0.480D-05 0.157D-06 0.158D-06 0.643D-05-0.483D-04
 Coeff:      0.147D-03 0.104D-03-0.102D-02 0.846D-04 0.403D-02 0.128D-01
 Coeff:      0.185D-01-0.561D-01-0.131D+00-0.134D-01 0.444D+00 0.722D+00
 Gap=     0.135 Goal=   None    Shift=    0.000
 Gap=     0.112 Goal=   None    Shift=    0.000
 RMSDP=8.03D-07 MaxDP=1.04D-04 DE=-1.21D-08 OVMax= 4.87D-05

 Cycle  19  Pass 1  IDiag  1:
 RMSU=  2.65D-07    CP:  6.23D-01  1.13D+00  6.63D-01  5.47D-01  6.58D-01
                    CP:  7.37D-01  1.17D+00  8.90D-01  1.05D+00  9.21D-01
                    CP:  9.42D-01  8.95D-01  1.16D+00  2.08D+00  2.32D+00
                    CP:  1.51D+00  1.55D+00  1.28D+00
 E= -3531.43374054241     Delta-E=       -0.000000004547 Rises=F Damp=F
 DIIS: error= 6.02D-07 at cycle  19 NSaved=  19.
 NSaved=19 IEnMin=19 EnMin= -3531.43374054241     IErMin=19 ErrMin= 6.02D-07
 ErrMax= 6.02D-07  0.00D+00 EMaxC= 1.00D-01 BMatC= 1.54D-09 BMatP= 9.44D-09
 IDIUse=1 WtCom= 1.00D+00 WtEn= 0.00D+00
 Coeff-Com:  0.490D-05-0.153D-05-0.430D-05-0.205D-06-0.930D-06-0.160D-04
 Coeff-Com:  0.981D-04 0.142D-03-0.283D-03 0.230D-03 0.213D-02 0.889D-02
 Coeff-Com:  0.261D-01-0.193D-02-0.965D-01-0.122D+00 0.461D-01 0.426D+00
 Coeff-Com:  0.711D+00
 Coeff:      0.490D-05-0.153D-05-0.430D-05-0.205D-06-0.930D-06-0.160D-04
 Coeff:      0.981D-04 0.142D-03-0.283D-03 0.230D-03 0.213D-02 0.889D-02
 Coeff:      0.261D-01-0.193D-02-0.965D-01-0.122D+00 0.461D-01 0.426D+00
 Coeff:      0.711D+00
 Gap=     0.135 Goal=   None    Shift=    0.000
 Gap=     0.112 Goal=   None    Shift=    0.000
 RMSDP=4.57D-07 MaxDP=5.38D-05 DE=-4.55D-09 OVMax= 2.60D-05

 Cycle  20  Pass 1  IDiag  1:
 RMSU=  1.47D-07    CP:  6.23D-01  1.13D+00  6.63D-01  5.47D-01  6.58D-01
                    CP:  7.37D-01  1.17D+00  8.90D-01  1.05D+00  9.22D-01
                    CP:  9.43D-01  8.97D-01  1.16D+00  2.11D+00  2.39D+00
                    CP:  1.58D+00  1.72D+00  1.57D+00  1.16D+00
 E= -3531.43374054367     Delta-E=       -0.000000001253 Rises=F Damp=F
 DIIS: error= 2.80D-07 at cycle  20 NSaved=  20.
 NSaved=20 IEnMin=20 EnMin= -3531.43374054367     IErMin=20 ErrMin= 2.80D-07
 ErrMax= 2.80D-07  0.00D+00 EMaxC= 1.00D-01 BMatC= 3.32D-10 BMatP= 1.54D-09
 IDIUse=1 WtCom= 1.00D+00 WtEn= 0.00D+00
 Coeff-Com:  0.244D-05-0.145D-05-0.189D-05-0.949D-07-0.879D-06 0.295D-05
 Coeff-Com: -0.115D-05 0.482D-04 0.168D-03 0.192D-03 0.537D-04 0.127D-02
 Coeff-Com:  0.818D-02 0.127D-01-0.147D-01-0.586D-01-0.927D-01 0.183D-01
 Coeff-Com:  0.363D+00 0.762D+00
 Coeff:      0.244D-05-0.145D-05-0.189D-05-0.949D-07-0.879D-06 0.295D-05
 Coeff:     -0.115D-05 0.482D-04 0.168D-03 0.192D-03 0.537D-04 0.127D-02
 Coeff:      0.818D-02 0.127D-01-0.147D-01-0.586D-01-0.927D-01 0.183D-01
 Coeff:      0.363D+00 0.762D+00
 Gap=     0.135 Goal=   None    Shift=    0.000
 Gap=     0.112 Goal=   None    Shift=    0.000
 RMSDP=2.19D-07 MaxDP=2.96D-05 DE=-1.25D-09 OVMax= 1.31D-05

 Cycle  21  Pass 1  IDiag  1:
 Restarting incremental Fock formation.
 E= -3531.43374054376     Delta-E=       -0.000000000098 Rises=F Damp=F
 DIIS: error= 1.09D-07 at cycle  21 NSaved=  20.
 NSaved=20 IEnMin=20 EnMin= -3531.43374054376     IErMin=20 ErrMin= 1.09D-07
 ErrMax= 1.09D-07  0.00D+00 EMaxC= 1.00D-01 BMatC= 5.90D-11 BMatP= 3.32D-10
 IDIUse=1 WtCom= 1.00D+00 WtEn= 0.00D+00
 Coeff-Com: -0.196D-06-0.462D-06 0.105D-06 0.600D-06 0.434D-05-0.331D-04
 Coeff-Com: -0.150D-04 0.159D-03 0.717D-04-0.454D-03-0.146D-02-0.240D-02
 Coeff-Com:  0.626D-02 0.161D-01 0.138D-03-0.533D-01-0.893D-01 0.430D-02
 Coeff-Com:  0.333D+00 0.787D+00
 Coeff:     -0.196D-06-0.462D-06 0.105D-06 0.600D-06 0.434D-05-0.331D-04
 Coeff:     -0.150D-04 0.159D-03 0.717D-04-0.454D-03-0.146D-02-0.240D-02
 Coeff:      0.626D-02 0.161D-01 0.138D-03-0.533D-01-0.893D-01 0.430D-02
[...]
    14   Atom        0.082812     -0.134958      0.052146
    15   Atom        0.107795     -0.013595     -0.094200
    16   Atom       -0.077876     -0.077293      0.155169
    17   Atom        0.002316      0.005541     -0.007857
    18   Atom       -0.113448      0.014556      0.098891
    19   Atom       -0.112183      0.236731     -0.124547
    20   Atom        0.016420     -0.013139     -0.003281
    21   Atom        0.002800     -0.003373      0.000573
    22   Atom        0.002550     -0.001906     -0.000644
    23   Atom        0.003459     -0.001718     -0.001741
    24   Atom        0.007007     -0.003311     -0.003697
    25   Atom        0.003503     -0.013124      0.009621
    26   Atom        0.004496      0.001420     -0.005916
    27   Atom        0.001574     -0.002926      0.001352
    28   Atom        0.004875     -0.003268     -0.001607
    29   Atom        0.000189     -0.004770      0.004581
    30   Atom        0.001934     -0.002718      0.000784
    31   Atom        0.007721     -0.003923     -0.003798
    32   Atom        0.004082      0.001111     -0.005193
    33   Atom        0.001383      0.012380     -0.013763
    34   Atom       -0.000840      0.005719     -0.004879
    35   Atom       -0.004268      0.002737      0.001531
    36   Atom       -0.017435      0.017549     -0.000114
    37   Atom       -0.007288     -0.006137      0.013425
    38   Atom       -0.001701      0.009670     -0.007969
    39   Atom        0.001533      0.002163     -0.003697
    40   Atom       -0.002720      0.008193     -0.005472
    41   Atom       -0.006154      0.011906     -0.005751
    42   Atom       -0.000904      0.005821     -0.004916
    43   Atom       -0.001450      0.004445     -0.002994
    44   Atom       -0.003589      0.007097     -0.003508
    45   Atom       -0.006175      0.010766     -0.004591
    46   Atom       -0.010466      0.019294     -0.008828
 --------------------------------------------------------
                        XY            XZ            YZ
 --------------------------------------------------------
     1   Atom        0.002301      0.000796     -0.000345
     2   Atom        0.000400      0.007962      0.003283
     3   Atom       -0.004667      0.011158     -0.001147
     4   Atom       -0.001480      0.005986     -0.000986
     5   Atom       -0.001085      0.002630      0.000969
     6   Atom        0.000470      0.001939      0.000393
     7   Atom        0.024544     -0.014092      0.000253
     8   Atom        0.010305     -0.017095     -0.010663
     9   Atom        0.000311     -0.007606      0.000591
    10   Atom       -0.001872     -0.007182      0.001679
    11   Atom       -0.015538     -0.015737      0.021694
    12   Atom       -0.016951     -0.012896      0.021102
    13   Atom       -0.009154     -0.009563      0.016004
    14   Atom       -0.145876      0.013263     -0.043803
    15   Atom       -0.064516     -0.083571      0.014590
    16   Atom       -0.049947      0.129812     -0.130704
    17   Atom       -0.011545     -0.002390      0.002170
    18   Atom        0.058927      0.062244      0.200554
    19   Atom        0.106467     -0.027483     -0.098734
    20   Atom       -0.013696      0.021627     -0.008536
    21   Atom       -0.001831      0.005403     -0.001455
    22   Atom       -0.000137      0.002331     -0.000008
    23   Atom        0.000896      0.000821      0.000132
    24   Atom        0.002651     -0.001397     -0.000279
    25   Atom        0.008854     -0.022170     -0.012310
    26   Atom        0.010609     -0.006118     -0.004291
    27   Atom        0.001768     -0.005202     -0.002015
    28   Atom        0.001641     -0.004159     -0.000689
    29   Atom       -0.001720     -0.006856      0.001752
    30   Atom       -0.000926     -0.004246      0.000654
    31   Atom       -0.004308     -0.002385      0.002050
    32   Atom       -0.007983     -0.000083     -0.000217
    33   Atom       -0.018553      0.000377     -0.002122
    34   Atom       -0.006611     -0.001605      0.001921
    35   Atom       -0.003800     -0.003622      0.008610
    36   Atom       -0.010382     -0.008845      0.028100
    37   Atom       -0.005862     -0.010391      0.012872
    38   Atom        0.015300     -0.006031     -0.007742
    39   Atom        0.005109     -0.002930     -0.000460
    40   Atom        0.006867     -0.001055     -0.002059
    41   Atom        0.002844     -0.000314     -0.001900
    42   Atom        0.006831      0.000241      0.000544
    43   Atom        0.004231     -0.001158     -0.002215
    44   Atom        0.001191      0.000018     -0.000128
    45   Atom        0.000536      0.000095     -0.004350
    46   Atom        0.001347      0.000259      0.001233
 --------------------------------------------------------


 ---------------------------------------------------------------------------------
              Anisotropic Spin Dipole Couplings in Principal Axis System
 ---------------------------------------------------------------------------------

       Atom             a.u.   MegaHertz   Gauss  10(-4) cm-1        Axes

              Baa    -0.0062    -0.833    -0.297    -0.278 -0.1336  0.8084  0.5733
     1 C(13)  Bbb    -0.0053    -0.705    -0.252    -0.235  0.0408 -0.5735  0.8182
              Bcc     0.0115     1.539     0.549     0.513  0.9902  0.1327  0.0436
 
              Baa    -0.0152    -2.034    -0.726    -0.678  0.1248  0.7728 -0.6223
     2 C(13)  Bbb    -0.0088    -1.186    -0.423    -0.396 -0.2007  0.6339  0.7470
              Bcc     0.0240     3.220     1.149     1.074  0.9717  0.0317  0.2342
 
              Baa    -0.0110    -1.471    -0.525    -0.491 -0.4156 -0.5878  0.6941
     3 C(13)  Bbb    -0.0091    -1.226    -0.438    -0.409 -0.1260  0.7929  0.5961
              Bcc     0.0201     2.698     0.963     0.900  0.9008 -0.1603  0.4036
 
              Baa    -0.0050    -0.673    -0.240    -0.224 -0.0317  0.9553  0.2940
     4 C(13)  Bbb    -0.0045    -0.610    -0.218    -0.203 -0.5066 -0.2689  0.8192
              Bcc     0.0096     1.282     0.458     0.428  0.8616 -0.1230  0.4925
 
              Baa    -0.0039    -0.517    -0.185    -0.173 -0.3430 -0.5309  0.7749
     5 C(13)  Bbb    -0.0010    -0.134    -0.048    -0.045 -0.1017  0.8411  0.5312
              Bcc     0.0049     0.651     0.232     0.217  0.9338 -0.1034  0.3425
 
              Baa    -0.0032    -0.432    -0.154    -0.144 -0.1669 -0.4942  0.8532
     6 C(13)  Bbb    -0.0026    -0.346    -0.123    -0.115 -0.1672  0.8670  0.4695
              Bcc     0.0058     0.777     0.277     0.259  0.9717  0.0643  0.2273
 
              Baa    -0.0361    -4.846    -1.729    -1.616  0.2421 -0.2885  0.9264
     7 C(13)  Bbb    -0.0215    -2.879    -1.027    -0.960 -0.2522  0.9032  0.3472
              Bcc     0.0576     7.725     2.756     2.577  0.9369  0.3177 -0.1459
 
              Baa    -0.0156    -2.089    -0.745    -0.697  0.2811  0.6036  0.7461
     8 C(13)  Bbb    -0.0119    -1.592    -0.568    -0.531 -0.6451  0.6945 -0.3187
              Bcc     0.0274     3.680     1.313     1.228  0.7105  0.3917 -0.5846
 
              Baa    -0.0066    -0.880    -0.314    -0.294  0.6258 -0.1633  0.7627
     9 C(13)  Bbb    -0.0025    -0.335    -0.119    -0.112  0.1127  0.9865  0.1187
              Bcc     0.0091     1.215     0.433     0.405  0.7718 -0.0117 -0.6358
 
              Baa    -0.0054    -0.730    -0.260    -0.243  0.6805  0.0236  0.7323
    10 C(13)  Bbb    -0.0040    -0.540    -0.193    -0.180  0.1234  0.9815 -0.1463
              Bcc     0.0095     1.270     0.453     0.423  0.7222 -0.1899 -0.6650
 
              Baa    -0.0211    -2.838    -1.013    -0.947  0.2922 -0.4929  0.8196
    11 C(13)  Bbb    -0.0149    -1.999    -0.713    -0.667  0.8215  0.5681  0.0488
              Bcc     0.0360     4.837     1.726     1.614 -0.4896  0.6591  0.5709
 
              Baa    -0.0210    -2.824    -1.008    -0.942  0.2008 -0.4604  0.8647
    12 C(13)  Bbb    -0.0152    -2.041    -0.728    -0.681  0.8629  0.5010  0.0663
              Bcc     0.0363     4.865     1.736     1.623 -0.4637  0.7329  0.4979
 
              Baa    -0.0130    -1.744    -0.622    -0.582  0.1252 -0.6698  0.7319
    13 C(13)  Bbb    -0.0117    -1.574    -0.562    -0.525  0.9101  0.3712  0.1840
              Bcc     0.0247     3.318     1.184     1.107 -0.3950  0.6431  0.6560
 
              Baa    -0.2123    15.363     5.482     5.125  0.4350  0.8916  0.1259
    14 O(17)  Bbb     0.0473    -3.425    -1.222    -1.143 -0.3025  0.0131  0.9531
              Bcc     0.1650   -11.938    -4.260    -3.982  0.8481 -0.4527  0.2754
 
              Baa    -0.1250    -2.164    -0.772    -0.722  0.3575  0.0852  0.9300
    15 Fe(57) Bbb    -0.0374    -0.648    -0.231    -0.216  0.2991  0.9329 -0.2005
              Bcc     0.1624     2.812     1.003     0.938  0.8847 -0.3498 -0.3080
 
              Baa    -0.1419    -7.426    -2.650    -2.477 -0.5967  0.6051  0.5270
    16 Cl(35) Bbb    -0.1275    -6.675    -2.382    -2.226  0.7113  0.7029 -0.0016
              Bcc     0.2694    14.100     5.031     4.703  0.3714 -0.3739  0.8498
 
              Baa    -0.0085    -1.137    -0.406    -0.379  0.4162  0.2056  0.8857
    17 C(13)  Bbb    -0.0075    -1.012    -0.361    -0.338  0.6337  0.6330 -0.4447
              Bcc     0.0160     2.149     0.767     0.717 -0.6521  0.7463  0.1331
 
              Baa    -0.1504    -7.873    -2.809    -2.626 -0.3204  0.7756 -0.5439
    18 Cl(35) Bbb    -0.1298    -6.793    -2.424    -2.266  0.9232  0.1270 -0.3627
              Bcc     0.2802    14.666     5.233     4.892  0.2122  0.6183  0.7567
 
              Baa    -0.1498    -7.839    -2.797    -2.615  0.0336  0.2387  0.9705
    19 Cl(35) Bbb    -0.1421    -7.437    -2.654    -2.481  0.9643 -0.2629  0.0312
              Bcc     0.2919    15.276     5.451     5.096  0.2626  0.9348 -0.2390
 
              Baa    -0.0185    -9.877    -3.524    -3.294  0.3494  0.9365  0.0288
    20 H(1)   Bbb    -0.0172    -9.155    -3.267    -3.054 -0.4891  0.1561  0.8582
              Bcc     0.0357    19.032     6.791     6.348  0.7992 -0.3139  0.5126
 
              Baa    -0.0039    -2.071    -0.739    -0.691  0.4368  0.8649 -0.2472
    21 H(1)   Bbb    -0.0038    -2.035    -0.726    -0.679 -0.4832  0.4574  0.7466
              Bcc     0.0077     4.107     1.465     1.370  0.7588 -0.2067  0.6177
 
              Baa    -0.0020    -1.041    -0.371    -0.347  0.2895  0.8089 -0.5117
    22 H(1)   Bbb    -0.0018    -0.977    -0.349    -0.326 -0.3658  0.5875  0.7218
              Bcc     0.0038     2.018     0.720     0.673  0.8845 -0.0219  0.4660
 
              Baa    -0.0019    -1.000    -0.357    -0.333 -0.2222  0.7192  0.6583
    23 H(1)   Bbb    -0.0019    -0.994    -0.355    -0.331 -0.0001 -0.6752  0.7376
              Bcc     0.0037     1.993     0.711     0.665  0.9750  0.1638  0.1501
 
              Baa    -0.0040    -2.125    -0.758    -0.709 -0.2631  0.8486 -0.4589
    24 H(1)   Bbb    -0.0038    -2.050    -0.732    -0.684 -0.0027  0.4750  0.8800
              Bcc     0.0078     4.175     1.490     1.393  0.9648  0.2328 -0.1227
 
              Baa    -0.0186    -9.938    -3.546    -3.315  0.1468  0.8594  0.4898
    25 H(1)   Bbb    -0.0152    -8.098    -2.889    -2.701  0.7717 -0.4092  0.4868
              Bcc     0.0338    18.036     6.436     6.016 -0.6188 -0.3065  0.7233
 
              Baa    -0.0089    -1.192    -0.425    -0.398  0.5534 -0.2373  0.7984
    26 C(13)  Bbb    -0.0073    -0.980    -0.350    -0.327 -0.4133  0.7540  0.5105
              Bcc     0.0162     2.171     0.775     0.724  0.7232  0.6125 -0.3192
 
              Baa    -0.0039    -2.073    -0.740    -0.692  0.4572  0.5776  0.6762
    27 H(1)   Bbb    -0.0035    -1.854    -0.662    -0.618 -0.5631  0.7766 -0.2826
              Bcc     0.0074     3.927     1.401     1.310  0.6884  0.2516 -0.6803
 
              Baa    -0.0037    -1.979    -0.706    -0.660  0.4436 -0.5720  0.6900
    28 H(1)   Bbb    -0.0035    -1.867    -0.666    -0.623  0.1313  0.8031  0.5813
              Bcc     0.0072     3.846     1.372     1.283  0.8866  0.1672 -0.4313
 
              Baa    -0.0054    -2.874    -1.025    -0.959  0.5034  0.8409  0.1985
    29 H(1)   Bbb    -0.0046    -2.453    -0.875    -0.818  0.6361 -0.5161  0.5736
              Bcc     0.0100     5.327     1.901     1.777 -0.5848  0.1625  0.7947
 
              Baa    -0.0030    -1.609    -0.574    -0.537  0.5787  0.6096  0.5417
    30 H(1)   Bbb    -0.0028    -1.482    -0.529    -0.494 -0.3256  0.7817 -0.5318
              Bcc     0.0058     3.091     1.103     1.031  0.7477 -0.1314 -0.6509
 
              Baa    -0.0061    -3.279    -1.170    -1.094  0.1591  0.8181 -0.5527
    31 H(1)   Bbb    -0.0036    -1.933    -0.690    -0.645  0.3505  0.4765  0.8063
              Bcc     0.0098     5.212     1.860     1.739  0.9230 -0.3220 -0.2109
 
              Baa    -0.0056    -3.006    -1.073    -1.003  0.5699  0.6889  0.4479
    32 H(1)   Bbb    -0.0051    -2.712    -0.968    -0.905 -0.2895 -0.3418  0.8941
              Bcc     0.0107     5.718     2.040     1.907  0.7690 -0.6392  0.0047
 
              Baa    -0.0144    -7.657    -2.732    -2.554  0.3407  0.3070  0.8887
    33 H(1)   Bbb    -0.0120    -6.388    -2.280    -2.131  0.7266  0.5138 -0.4561
              Bcc     0.0263    14.045     5.012     4.685 -0.5966  0.8011 -0.0480
 
              Baa    -0.0055    -2.935    -1.047    -0.979  0.5187  0.1619  0.8395
    34 H(1)   Bbb    -0.0047    -2.522    -0.900    -0.841  0.6761  0.5233 -0.5187
              Bcc     0.0102     5.457     1.947     1.820 -0.5233  0.8366  0.1620
 
              Baa    -0.0065    -3.469    -1.238    -1.157  0.0890 -0.6592  0.7467
    35 H(1)   Bbb    -0.0059    -3.156    -1.126    -1.053  0.9497  0.2821  0.1358
              Bcc     0.0124     6.625     2.364     2.210 -0.3001  0.6970  0.6512
 
              Baa    -0.0216   -11.539    -4.117    -3.849  0.6612 -0.3136  0.6815
    36 H(1)   Bbb    -0.0197   -10.509    -3.750    -3.505  0.7155  0.5368 -0.4472
              Bcc     0.0413    22.048     7.867     7.354 -0.2256  0.7833  0.5793
 
              Baa    -0.0129    -6.857    -2.447    -2.287  0.4550  0.8575 -0.2402
    37 H(1)   Bbb    -0.0115    -6.110    -2.180    -2.038  0.8176 -0.2953  0.4943
              Bcc     0.0243    12.968     4.627     4.326 -0.3529  0.4212  0.8355
 
              Baa    -0.0125     0.905     0.323     0.302  0.8296 -0.4636  0.3113
    38 O(17)  Bbb    -0.0109     0.786     0.280     0.262 -0.1048  0.4183  0.9022
              Bcc     0.0234    -1.691    -0.603    -0.564  0.5484  0.7811 -0.2985
 
              Baa    -0.0056     0.403     0.144     0.134  0.5463 -0.3146  0.7763
    39 O(17)  Bbb    -0.0019     0.137     0.049     0.046 -0.4672  0.6547  0.5942
              Bcc     0.0075    -0.541    -0.193    -0.180  0.6952  0.6873 -0.2106
 
              Baa    -0.0060    -0.811    -0.289    -0.271  0.8935 -0.4020  0.2003
    40 C(13)  Bbb    -0.0058    -0.774    -0.276    -0.258 -0.1254  0.2048  0.9707
              Bcc     0.0118     1.586     0.566     0.529  0.4312  0.8925 -0.1326
 
              Baa    -0.0066    -0.885    -0.316    -0.295  0.9883 -0.1484  0.0342
    41 C(13)  Bbb    -0.0060    -0.799    -0.285    -0.266 -0.0180  0.1086  0.9939
              Bcc     0.0125     1.683     0.601     0.562  0.1512  0.9829 -0.1047
 
              Baa    -0.0052    -2.766    -0.987    -0.923  0.7971 -0.5107  0.3221
    42 H(1)   Bbb    -0.0049    -2.620    -0.935    -0.874 -0.2934  0.1388  0.9459
              Bcc     0.0101     5.386     1.922     1.797  0.5278  0.8485  0.0392
 
              Baa    -0.0037    -1.952    -0.697    -0.651  0.8886 -0.4581  0.0213
    43 H(1)   Bbb    -0.0036    -1.922    -0.686    -0.641  0.0901  0.2199  0.9713
              Bcc     0.0073     3.875     1.383     1.293  0.4497  0.8613 -0.2367
 
              Baa    -0.0037    -1.987    -0.709    -0.663  0.9828 -0.1099 -0.1487
    44 H(1)   Bbb    -0.0035    -1.870    -0.667    -0.624  0.1491 -0.0048  0.9888
              Bcc     0.0072     3.857     1.376     1.287  0.1094  0.9939 -0.0116
 
              Baa    -0.0063    -3.353    -1.196    -1.118  0.9226 -0.1224 -0.3659
    45 H(1)   Bbb    -0.0056    -3.010    -1.074    -1.004  0.3848  0.2248  0.8952
              Bcc     0.0119     6.363     2.270     2.122  0.0273  0.9667 -0.2544
 
              Baa    -0.0106    -5.630    -2.009    -1.878  0.9919 -0.0398 -0.1209
    46 H(1)   Bbb    -0.0089    -4.726    -1.686    -1.576  0.1189 -0.0491  0.9917
              Bcc     0.0194    10.356     3.695     3.454  0.0454  0.9980  0.0440
 

 ---------------------------------------------------------------------------------

 No NMR shielding tensors so no spin-rotation constants.
 Leave Link  601 at Sun Jun 20 17:44:55 2021, MaxMem=  2147483648 cpu:              77.0 elap:               5.0
 (Enter /SFS/product/gaussian/g16.a03/x86_64/avx/g16/l9999.exe)
 1\1\GINC-KTCHPCPX221\SP\UB3LYP\Jul-CC-pVDZ\C17H22Cl3Fe1O3(6)\KWANEU\20
 -Jun-2021\0\\#p ub3lyp jul-cc-pvdz pop=cm5 scrf=(pcm,solvent=water) gu
 ess=read geom=allcheck\\title\\0,6\C,0,3.1536897429,0.2627753225,0.688
 6038566\C,0,1.8700894575,-0.3135841644,0.7962687206\C,0,1.50136213,-0.
 9278309323,2.0133428239\C,0,2.393768945,-0.9801347814,3.0802363289\C,0
 ,3.6691743616,-0.4174868862,2.9550327081\C,0,4.0423879485,0.2084909488
 ,1.7602687062\C,0,0.869748744,-0.2561824289,-0.2916512025\C,0,1.026149
 087,0.6488670262,-1.5289858625\C,0,2.1037916055,0.2222303399,-2.542489
 0827\C,0,1.8984390043,-1.2475599483,-2.9415468641\C,0,1.7878147866,-2.
 0997556761,-1.708828867\C,0,0.6844918466,-2.7428248634,-1.263824722\C,
 0,-0.6242763447,-2.7881440209,-2.0018460704\O,0,-0.269966538,-0.759695
 4837,-0.0779879152\Fe,0,-2.1224863267,-0.2847770261,0.4108429516\Cl,0,
 -3.0733931239,0.5498981825,-1.3936969117\C,0,0.7422331002,-3.605082501
 8,-0.0362271955\Cl,0,-1.9448637232,1.131864351,2.0909355984\Cl,0,-3.01
 2844882,-2.1966208423,1.0616214896\H,0,0.502437533,-1.3434556082,2.119
 7015409\H,0,2.0906016355,-1.4508478929,4.0158136193\H,0,4.3679707498,-
 0.4560200492,3.7923018884\H,0,5.0285037198,0.6639629526,1.6649867048\H
 ,0,3.4574516039,0.7780629368,-0.217240413\H,0,0.0424576356,0.599127767
 8,-2.0132353336\C,0,1.2165957992,2.1151778074,-1.0976044604\H,0,2.0329
 294907,0.8828763517,-3.4177039009\H,0,3.1066351577,0.3723791649,-2.127
 8789779\H,0,1.0042863403,-1.3408668152,-3.5708199535\H,0,2.7514205375,
 -1.5755328549,-3.5554005922\H,0,2.7099423318,-2.2206808765,-1.13456776
 57\H,0,1.7270769042,-3.5829634778,0.4456819094\H,0,-0.0287832566,-3.30
 50145769,0.6885009882\H,0,0.5142658584,-4.6483647233,-0.3090263704\H,0
 ,-0.6639521924,-3.7235179479,-2.5852425837\H,0,-1.4705540674,-2.817811
 548,-1.3048067603\H,0,-0.7746447372,-1.9560721697,-2.6963216277\O,0,0.
 0587190658,2.633712834,-0.6815788717\O,0,2.2684789989,2.7165630443,-1.
 1527969697\C,0,0.0789841544,4.0260962711,-0.2394340785\C,0,-1.35542298
 86,4.4629601822,-0.0303078952\H,0,0.6702480529,4.0718490388,0.68536043
 66\H,0,0.5945347634,4.6175273645,-1.0068599998\H,0,-1.3647693123,5.507
 2014024,0.3143193381\H,0,-1.9253526683,4.4006071337,-0.9672099297\H,0,
 -1.8506189309,3.8381396732,0.7235145678\\Version=ES64L-G16RevA.03\Stat
 e=6-A\HF=-3531.4548685\S2=8.761871\S2-1=0.\S2A=8.750044\RMSD=5.355e-09
 \Dipole=4.025961,-0.4387473,-0.6406349\Quadrupole=-10.0204123,4.640633
 7,5.3797786,-8.093528,7.8782188,1.8125977\PG=C01 [X(C17H22Cl3Fe1O3)]\\
 @


 SIC AS THE CAWSE OF EWERY THING IS, SIC WILBE THE EFFECT.
 -- PROVERBS AND REASONS OF THE YEAR 1585
           AS REPRINTED IN PAISLEY MAGAZINE 1828.
 Job cpu time:       0 days  4 hours 42 minutes 46.2 seconds.
 Elapsed time:       0 days  0 hours 17 minutes 45.1 seconds.
 File lengths (MBytes):  RWF=    667 Int=      0 D2E=      0 Chk=     57 Scr=      1
 Normal termination of Gaussian 16 at Sun Jun 20 17:44:55 2021.
