 Entering Gaussian System, Link 0=g16
 Input=prenyl-first_betaine_grid-CC_170_CO_290-b3lyp_d3bj-juldz-gas.gjf
 Output=prenyl-first_betaine_grid-CC_170_CO_290-b3lyp_d3bj-juldz-gas.out
 Initial command:
 /SFS/product/gaussian/g16.a03/x86_64/avx/g16/l1.exe "/scratch/kwaneu.2874239.bmbhpcps002/Gau-38353.inp" -scrdir="/scratch/kwaneu.2874239.bmbhpcps002/"
 Entering Link 1 = /SFS/product/gaussian/g16.a03/x86_64/avx/g16/l1.exe PID=     38354.
  
 Copyright (c) 1988,1990,1992,1993,1995,1998,2003,2009,2016,
            Gaussian, Inc.  All Rights Reserved.
  
 This is part of the Gaussian(R) 16 program.  It is based on
 the Gaussian(R) 09 system (copyright 2009, Gaussian, Inc.),
 the Gaussian(R) 03 system (copyright 2003, Gaussian, Inc.),
 the Gaussian(R) 98 system (copyright 1998, Gaussian, Inc.),
 the Gaussian(R) 94 system (copyright 1995, Gaussian, Inc.),
 the Gaussian 92(TM) system (copyright 1992, Gaussian, Inc.),
 the Gaussian 90(TM) system (copyright 1990, Gaussian, Inc.),
 the Gaussian 88(TM) system (copyright 1988, Gaussian, Inc.),
 the Gaussian 86(TM) system (copyright 1986, Carnegie Mellon
 University), and the Gaussian 82(TM) system (copyright 1983,
 Carnegie Mellon University). Gaussian is a federally registered
 trademark of Gaussian, Inc.
  
 This software contains proprietary and confidential information,
 including trade secrets, belonging to Gaussian, Inc.
  
 This software is provided under written license and may be
 used, copied, transmitted, or stored only in accord with that
 written license.
  
 The following legend is applicable only to US Government
 contracts under FAR:
  
                    RESTRICTED RIGHTS LEGEND
  
 Use, reproduction and disclosure by the US Government is
 subject to restrictions as set forth in subparagraphs (a)
 and (c) of the Commercial Computer Software - Restricted
 Rights clause in FAR 52.227-19.
  
 Gaussian, Inc.
 340 Quinnipiac St., Bldg. 40, Wallingford CT 06492
  
  
 ---------------------------------------------------------------
 Warning -- This program may not be used in any manner that
 competes with the business of Gaussian, Inc. or will provide
 assistance to any competitor of Gaussian, Inc.  The licensee
 of this program is prohibited from giving any competitor of
 Gaussian, Inc. access to this program.  By using this program,
 the user acknowledges that Gaussian, Inc. is engaged in the
 business of creating and licensing software in the field of
 computational chemistry and represents and warrants to the
 licensee that it is not a competitor of Gaussian, Inc. and that
 it will not use this program in any manner prohibited above.
 ---------------------------------------------------------------
  

 Cite this work as:
 Gaussian 16, Revision A.03,
 M. J. Frisch, G. W. Trucks, H. B. Schlegel, G. E. Scuseria, 
 M. A. Robb, J. R. Cheeseman, G. Scalmani, V. Barone, 
 G. A. Petersson, H. Nakatsuji, X. Li, M. Caricato, A. V. Marenich, 
 J. Bloino, B. G. Janesko, R. Gomperts, B. Mennucci, H. P. Hratchian, 
 J. V. Ortiz, A. F. Izmaylov, J. L. Sonnenberg, D. Williams-Young, 
 F. Ding, F. Lipparini, F. Egidi, J. Goings, B. Peng, A. Petrone, 
 T. Henderson, D. Ranasinghe, V. G. Zakrzewski, J. Gao, N. Rega, 
 G. Zheng, W. Liang, M. Hada, M. Ehara, K. Toyota, R. Fukuda, 
 J. Hasegawa, M. Ishida, T. Nakajima, Y. Honda, O. Kitao, H. Nakai, 
 T. Vreven, K. Throssell, J. A. Montgomery, Jr., J. E. Peralta, 
 F. Ogliaro, M. J. Bearpark, J. J. Heyd, E. N. Brothers, K. N. Kudin, 
 V. N. Staroverov, T. A. Keith, R. Kobayashi, J. Normand, 
 K. Raghavachari, A. P. Rendell, J. C. Burant, S. S. Iyengar, 
 J. Tomasi, M. Cossi, J. M. Millam, M. Klene, C. Adamo, R. Cammi, 
 J. W. Ochterski, R. L. Martin, K. Morokuma, O. Farkas, 
 J. B. Foresman, and D. J. Fox, Gaussian, Inc., Wallingford CT, 2016.
 
 ******************************************
 Gaussian 16:  ES64L-G16RevA.03 25-Dec-2016
                19-Jun-2021 
 ******************************************
 %chk=checkpoint.chk
 %nprocshared=16
 Will use up to   16 processors via shared memory.
 %mem=16GB
 -----------------------------------------------------------
 #p opt=modredundant freq=noraman ub3lyp jul-cc-pvdz pop=cm5
 -----------------------------------------------------------
 1/18=120,19=15,26=3,38=1/1,3;
 2/9=110,12=2,17=6,18=5,40=1/2;
 3/5=16,7=50,11=2,25=1,30=1,71=1,74=-5,116=2/1,2,3;
 4//1;
 5/5=2,38=5/2;
 6/7=2,8=2,9=2,10=2,28=1,79=1/1;
 7//1,2,3,16;
 1/18=20,19=15,26=3/3(2);
 2/9=110/2;
 99//99;
 2/9=110/2;
 3/5=16,7=50,11=2,25=1,30=1,71=1,74=-5,116=2/1,2,3;
 4/5=5,16=3,69=1/1;
 5/5=2,38=5/2;
 7//1,2,3,16;
 1/18=20,19=15,26=3/3(-5);
 2/9=110/2;
 6/7=2,8=2,9=2,10=2,19=2,28=1,79=1/1;
 99/9=1/99;
 Leave Link    1 at Sat Jun 19 21:34:38 2021, MaxMem=  2147483648 cpu:               1.3 elap:               0.1
 (Enter /SFS/product/gaussian/g16.a03/x86_64/avx/g16/l101.exe)
 -----
 title
 -----
 Symbolic Z-matrix:
 Charge =  0 Multiplicity = 6
 6                     2.27438  -1.76145   1.44719 
 6                     1.40334  -0.76155   0.98348 
 6                     1.32256   0.43304   1.71587 
 6                     2.07729   0.61645   2.87393 
 6                     2.93139  -0.38779   3.32706 
 6                     3.02847  -1.57745   2.60555 
 6                     0.59746  -0.86045  -0.32853 
 6                     1.50522  -0.62168  -1.60109 
 6                     2.272    -1.91195  -1.84232 
 6                     1.25008  -3.03208  -1.5782 
 6                     0.19937  -2.49998  -0.53705 
 6                    -1.17504  -2.74171  -0.9499 
 6                    -1.6982   -2.25292  -2.22663 
 8                    -0.44789   0.0018   -0.35456 
 26                   -1.92696   0.81318   0.36955 
 17                   -3.49081   0.64702  -1.23593 
 6                    -2.12468  -3.31159   0.01822 
 17                   -1.52816   2.90666   0.9335 
 17                   -2.58307  -0.43646   2.11105 
 1                     0.67561   1.23134   1.37543 
 1                     1.98784   1.55011   3.42186 
 1                     3.51478  -0.247     4.23257 
 1                     3.69049  -2.37015   2.94306 
 1                     2.38014  -2.70334   0.91836 
 1                     0.8034   -0.41461  -2.41662 
 6                     2.41284   0.59543  -1.45173 
 1                     2.67686  -1.96809  -2.85745 
 1                     3.12073  -1.96497  -1.15633 
 1                     0.7511   -3.31328  -2.51013 
 1                     1.71399  -3.94371  -1.18848 
 1                     0.3487   -2.95718   0.43937 
 1                    -1.67309  -4.09678   0.63327 
 1                    -2.35873  -2.48456   0.72924 
 1                    -3.06496  -3.64272  -0.42638 
 1                    -2.47841  -2.8984   -2.64137 
 1                    -2.21842  -1.29774  -1.9628 
 1                    -0.94216  -2.00893  -2.97251 
 8                     1.72157   1.73353  -1.60418 
 8                     3.60403   0.53562  -1.22984 
 6                     2.46342   2.96896  -1.42412 
 6                     1.49816   4.11526  -1.65353 
 1                     2.87979   2.9734   -0.41203 
 1                     3.29971   2.97626  -2.13037 
 1                     2.0196    5.06832  -1.51106 
 1                     1.09779   4.09139  -2.67224 
 1                     0.66084   4.06657  -0.95092 
 
 The following ModRedundant input section has been read:
 B       7      11 F                                                           
 B      12      14 F                                                           
 
 ITRead=  0  0  0  0  0  0  0  0  0  0  0  0  0  0  0  0  0  0  0  0
 ITRead=  0  0  0  0  0  0  0  0  0  0  0  0  0  0  0  0  0  0  0  0
 ITRead=  0  0  0  0  0  0
 MicOpt= -1 -1 -1 -1 -1 -1 -1 -1 -1 -1 -1 -1 -1 -1 -1 -1 -1 -1 -1 -1
 MicOpt= -1 -1 -1 -1 -1 -1 -1 -1 -1 -1 -1 -1 -1 -1 -1 -1 -1 -1 -1 -1
 MicOpt= -1 -1 -1 -1 -1 -1
 NAtoms=     46 NQM=       46 NQMF=       0 NMMI=      0 NMMIF=      0
                NMic=       0 NMicF=      0.
                    Isotopes and Nuclear Properties:
 (Nuclear quadrupole moments (NQMom) in fm**2, nuclear magnetic moments (NMagM)
  in nuclear magnetons)

  Atom         1           2           3           4           5           6           7           8           9          10
 IAtWgt=          12          12          12          12          12          12          12          12          12          12
 AtmWgt=  12.0000000  12.0000000  12.0000000  12.0000000  12.0000000  12.0000000  12.0000000  12.0000000  12.0000000  12.0000000
 NucSpn=           0           0           0           0           0           0           0           0           0           0
 AtZEff=  -0.0000000  -0.0000000  -0.0000000  -0.0000000  -0.0000000  -0.0000000  -0.0000000  -0.0000000  -0.0000000  -0.0000000
 NQMom=    0.0000000   0.0000000   0.0000000   0.0000000   0.0000000   0.0000000   0.0000000   0.0000000   0.0000000   0.0000000
 NMagM=    0.0000000   0.0000000   0.0000000   0.0000000   0.0000000   0.0000000   0.0000000   0.0000000   0.0000000   0.0000000
 AtZNuc=   6.0000000   6.0000000   6.0000000   6.0000000   6.0000000   6.0000000   6.0000000   6.0000000   6.0000000   6.0000000

  Atom        11          12          13          14          15          16          17          18          19          20
 IAtWgt=          12          12          12          16          56          35          12          35          35           1
 AtmWgt=  12.0000000  12.0000000  12.0000000  15.9949146  55.9349393  34.9688527  12.0000000  34.9688527  34.9688527   1.0078250
 NucSpn=           0           0           0           0           0           3           0           3           3           1
 AtZEff=  -0.0000000  -0.0000000  -0.0000000  -0.0000000  -0.0000000  -0.0000000  -0.0000000  -0.0000000  -0.0000000  -0.0000000
 NQMom=    0.0000000   0.0000000   0.0000000   0.0000000   0.0000000  -8.1650000   0.0000000  -8.1650000  -8.1650000   0.0000000
 NMagM=    0.0000000   0.0000000   0.0000000   0.0000000   0.0000000   0.8218740   0.0000000   0.8218740   0.8218740   2.7928460
 AtZNuc=   6.0000000   6.0000000   6.0000000   8.0000000  26.0000000  17.0000000   6.0000000  17.0000000  17.0000000   1.0000000

  Atom        21          22          23          24          25          26          27          28          29          30
 IAtWgt=           1           1           1           1           1          12           1           1           1           1
 AtmWgt=   1.0078250   1.0078250   1.0078250   1.0078250   1.0078250  12.0000000   1.0078250   1.0078250   1.0078250   1.0078250
 NucSpn=           1           1           1           1           1           0           1           1           1           1
 AtZEff=  -0.0000000  -0.0000000  -0.0000000  -0.0000000  -0.0000000  -0.0000000  -0.0000000  -0.0000000  -0.0000000  -0.0000000
 NQMom=    0.0000000   0.0000000   0.0000000   0.0000000   0.0000000   0.0000000   0.0000000   0.0000000   0.0000000   0.0000000
 NMagM=    2.7928460   2.7928460   2.7928460   2.7928460   2.7928460   0.0000000   2.7928460   2.7928460   2.7928460   2.7928460
 AtZNuc=   1.0000000   1.0000000   1.0000000   1.0000000   1.0000000   6.0000000   1.0000000   1.0000000   1.0000000   1.0000000

  Atom        31          32          33          34          35          36          37          38          39          40
 IAtWgt=           1           1           1           1           1           1           1          16          16          12
 AtmWgt=   1.0078250   1.0078250   1.0078250   1.0078250   1.0078250   1.0078250   1.0078250  15.9949146  15.9949146  12.0000000
 NucSpn=           1           1           1           1           1           1           1           0           0           0
 AtZEff=  -0.0000000  -0.0000000  -0.0000000  -0.0000000  -0.0000000  -0.0000000  -0.0000000  -0.0000000  -0.0000000  -0.0000000
 NQMom=    0.0000000   0.0000000   0.0000000   0.0000000   0.0000000   0.0000000   0.0000000   0.0000000   0.0000000   0.0000000
 NMagM=    2.7928460   2.7928460   2.7928460   2.7928460   2.7928460   2.7928460   2.7928460   0.0000000   0.0000000   0.0000000
 AtZNuc=   1.0000000   1.0000000   1.0000000   1.0000000   1.0000000   1.0000000   1.0000000   8.0000000   8.0000000   6.0000000

  Atom        41          42          43          44          45          46
 IAtWgt=          12           1           1           1           1           1
 AtmWgt=  12.0000000   1.0078250   1.0078250   1.0078250   1.0078250   1.0078250
 NucSpn=           0           1           1           1           1           1
 AtZEff=  -0.0000000  -0.0000000  -0.0000000  -0.0000000  -0.0000000  -0.0000000
 NQMom=    0.0000000   0.0000000   0.0000000   0.0000000   0.0000000   0.0000000
 NMagM=    0.0000000   2.7928460   2.7928460   2.7928460   2.7928460   2.7928460
 AtZNuc=   6.0000000   1.0000000   1.0000000   1.0000000   1.0000000   1.0000000
 Leave Link  101 at Sat Jun 19 21:34:39 2021, MaxMem=  2147483648 cpu:               5.2 elap:               0.4
 (Enter /SFS/product/gaussian/g16.a03/x86_64/avx/g16/l103.exe)

 GradGradGradGradGradGradGradGradGradGradGradGradGradGradGradGradGradGrad
 Berny optimization.
 Initialization pass.
                           ----------------------------
                           !    Initial Parameters    !
                           ! (Angstroms and Degrees)  !
 --------------------------                            --------------------------
 ! Name  Definition              Value          Derivative Info.                !
 --------------------------------------------------------------------------------
 ! R1    R(1,2)                  1.4048         estimate D2E/DX2                !
 ! R2    R(1,6)                  1.3944         estimate D2E/DX2                !
 ! R3    R(1,24)                 1.0854         estimate D2E/DX2                !
 ! R4    R(2,3)                  1.4035         estimate D2E/DX2                !
 ! R5    R(2,7)                  1.5429         estimate D2E/DX2                !
 ! R6    R(3,4)                  1.3944         estimate D2E/DX2                !
 ! R7    R(3,20)                 1.0825         estimate D2E/DX2                !
 ! R8    R(4,5)                  1.394          estimate D2E/DX2                !
 ! R9    R(4,21)                 1.0863         estimate D2E/DX2                !
 ! R10   R(5,6)                  1.3947         estimate D2E/DX2                !
 ! R11   R(5,22)                 1.0863         estimate D2E/DX2                !
 ! R12   R(6,23)                 1.0865         estimate D2E/DX2                !
 ! R13   R(7,8)                  1.5813         estimate D2E/DX2                !
 ! R14   R(7,11)                 1.7            Frozen                          !
 ! R15   R(7,14)                 1.3553         estimate D2E/DX2                !
 ! R16   R(8,9)                  1.5202         estimate D2E/DX2                !
 ! R17   R(8,25)                 1.0957         estimate D2E/DX2                !
 ! R18   R(8,26)                 1.5256         estimate D2E/DX2                !
 ! R19   R(9,10)                 1.5391         estimate D2E/DX2                !
 ! R20   R(9,27)                 1.0943         estimate D2E/DX2                !
 ! R21   R(9,28)                 1.0926         estimate D2E/DX2                !
 ! R22   R(10,11)                1.572          estimate D2E/DX2                !
 ! R23   R(10,29)                1.0939         estimate D2E/DX2                !
 ! R24   R(10,30)                1.0946         estimate D2E/DX2                !
 ! R25   R(11,12)                1.4553         estimate D2E/DX2                !
 ! R26   R(11,31)                1.0884         estimate D2E/DX2                !
 ! R27   R(12,13)                1.4638         estimate D2E/DX2                !
 ! R28   R(12,14)                2.9            Frozen                          !
 ! R29   R(12,17)                1.471          estimate D2E/DX2                !
 ! R30   R(13,35)                1.0942         estimate D2E/DX2                !
 ! R31   R(13,36)                1.1192         estimate D2E/DX2                !
 ! R32   R(13,37)                1.0897         estimate D2E/DX2                !
 ! R33   R(14,15)                1.8358         estimate D2E/DX2                !
 ! R34   R(15,16)                2.2474         estimate D2E/DX2                !
 ! R35   R(15,18)                2.2045         estimate D2E/DX2                !
 ! R36   R(15,19)                2.2416         estimate D2E/DX2                !
 ! R37   R(17,32)                1.0949         estimate D2E/DX2                !
 ! R38   R(17,33)                1.1155         estimate D2E/DX2                !
 ! R39   R(17,34)                1.0915         estimate D2E/DX2                !
 ! R40   R(26,38)                1.3403         estimate D2E/DX2                !
 ! R41   R(26,39)                1.2132         estimate D2E/DX2                !
 ! R42   R(38,40)                1.4523         estimate D2E/DX2                !
 ! R43   R(40,41)                1.516          estimate D2E/DX2                !
 ! R44   R(40,42)                1.0944         estimate D2E/DX2                !
 ! R45   R(40,43)                1.0946         estimate D2E/DX2                !
 ! R46   R(41,44)                1.0957         estimate D2E/DX2                !
 ! R47   R(41,45)                1.0948         estimate D2E/DX2                !
 ! R48   R(41,46)                1.0941         estimate D2E/DX2                !
 ! A1    A(2,1,6)              121.0383         estimate D2E/DX2                !
 ! A2    A(2,1,24)             121.149          estimate D2E/DX2                !
 ! A3    A(6,1,24)             117.8123         estimate D2E/DX2                !
 ! A4    A(1,2,3)              117.9846         estimate D2E/DX2                !
 ! A5    A(1,2,7)              123.9803         estimate D2E/DX2                !
 ! A6    A(3,2,7)              117.9186         estimate D2E/DX2                !
 ! A7    A(2,3,4)              120.9419         estimate D2E/DX2                !
 ! A8    A(2,3,20)             119.866          estimate D2E/DX2                !
 ! A9    A(4,3,20)             119.1883         estimate D2E/DX2                !
 ! A10   A(3,4,5)              120.4522         estimate D2E/DX2                !
 ! A11   A(3,4,21)             119.1706         estimate D2E/DX2                !
 ! A12   A(5,4,21)             120.3765         estimate D2E/DX2                !
 ! A13   A(4,5,6)              119.2727         estimate D2E/DX2                !
 ! A14   A(4,5,22)             120.4382         estimate D2E/DX2                !
 ! A15   A(6,5,22)             120.2891         estimate D2E/DX2                !
 ! A16   A(1,6,5)              120.3079         estimate D2E/DX2                !
 ! A17   A(1,6,23)             119.4259         estimate D2E/DX2                !
 ! A18   A(5,6,23)             120.266          estimate D2E/DX2                !
 ! A19   A(2,7,8)              112.0124         estimate D2E/DX2                !
 ! A20   A(2,7,11)             106.7637         estimate D2E/DX2                !
 ! A21   A(2,7,14)             112.2348         estimate D2E/DX2                !
 ! A22   A(8,7,11)             100.4482         estimate D2E/DX2                !
 ! A23   A(8,7,14)             109.3449         estimate D2E/DX2                !
 ! A24   A(11,7,14)            115.5053         estimate D2E/DX2                !
 ! A25   A(7,8,9)              106.8044         estimate D2E/DX2                !
 ! A26   A(7,8,25)             105.0595         estimate D2E/DX2                !
 ! A27   A(7,8,26)             112.5326         estimate D2E/DX2                !
 ! A28   A(9,8,25)             111.4306         estimate D2E/DX2                !
 ! A29   A(9,8,26)             113.1159         estimate D2E/DX2                !
 ! A30   A(25,8,26)            107.648          estimate D2E/DX2                !
 ! A31   A(8,9,10)             104.8078         estimate D2E/DX2                !
 ! A32   A(8,9,27)             112.1699         estimate D2E/DX2                !
 ! A33   A(8,9,28)             109.4738         estimate D2E/DX2                !
 ! A34   A(10,9,27)            111.5622         estimate D2E/DX2                !
 ! A35   A(10,9,28)            111.8833         estimate D2E/DX2                !
 ! A36   A(27,9,28)            107.01           estimate D2E/DX2                !
 ! A37   A(9,10,11)            108.1263         estimate D2E/DX2                !
 ! A38   A(9,10,29)            110.1063         estimate D2E/DX2                !
 ! A39   A(9,10,30)            112.6951         estimate D2E/DX2                !
 ! A40   A(11,10,29)           110.2665         estimate D2E/DX2                !
 ! A41   A(11,10,30)           109.2311         estimate D2E/DX2                !
 ! A42   A(29,10,30)           106.4132         estimate D2E/DX2                !
 ! A43   A(7,11,10)            104.5469         estimate D2E/DX2                !
 ! A44   A(7,11,12)            114.5915         estimate D2E/DX2                !
 ! A45   A(7,11,31)            105.2457         estimate D2E/DX2                !
 ! A46   A(10,11,12)           112.776          estimate D2E/DX2                !
 ! A47   A(10,11,31)           111.1162         estimate D2E/DX2                !
 ! A48   A(12,11,31)           108.3173         estimate D2E/DX2                !
 ! A49   A(11,12,13)           121.9725         estimate D2E/DX2                !
 ! A50   A(11,12,17)           119.166          estimate D2E/DX2                !
 ! A51   A(13,12,17)           118.2075         estimate D2E/DX2                !
 ! A52   A(12,13,35)           112.858          estimate D2E/DX2                !
 ! A53   A(12,13,36)           104.2122         estimate D2E/DX2                !
 ! A54   A(12,13,37)           115.0753         estimate D2E/DX2                !
 ! A55   A(35,13,36)           105.1509         estimate D2E/DX2                !
 ! A56   A(35,13,37)           111.551          estimate D2E/DX2                !
 ! A57   A(36,13,37)           107.0223         estimate D2E/DX2                !
 ! A58   A(7,14,15)            153.5084         estimate D2E/DX2                !
 ! A59   A(14,15,16)           104.251          estimate D2E/DX2                !
 ! A60   A(14,15,18)           112.016          estimate D2E/DX2                !
 ! A61   A(14,15,19)           107.2091         estimate D2E/DX2                !
 ! A62   A(16,15,18)           112.2621         estimate D2E/DX2                !
 ! A63   A(16,15,19)           108.0654         estimate D2E/DX2                !
 ! A64   A(18,15,19)           112.5573         estimate D2E/DX2                !
 ! A65   A(12,17,32)           112.4123         estimate D2E/DX2                !
 ! A66   A(12,17,33)           105.5289         estimate D2E/DX2                !
 ! A67   A(12,17,34)           113.9271         estimate D2E/DX2                !
 ! A68   A(32,17,33)           105.0805         estimate D2E/DX2                !
 ! A69   A(32,17,34)           111.5034         estimate D2E/DX2                !
 ! A70   A(33,17,34)           107.6866         estimate D2E/DX2                !
 ! A71   A(8,26,38)            111.0675         estimate D2E/DX2                !
 ! A72   A(8,26,39)            124.2447         estimate D2E/DX2                !
 ! A73   A(38,26,39)           124.6872         estimate D2E/DX2                !
 ! A74   A(26,38,40)           116.4103         estimate D2E/DX2                !
 ! A75   A(38,40,41)           107.4109         estimate D2E/DX2                !
 ! A76   A(38,40,42)           108.2074         estimate D2E/DX2                !
 ! A77   A(38,40,43)           108.4184         estimate D2E/DX2                !
 ! A78   A(41,40,42)           112.2786         estimate D2E/DX2                !
 ! A79   A(41,40,43)           112.5662         estimate D2E/DX2                !
 ! A80   A(42,40,43)           107.8169         estimate D2E/DX2                !
 ! A81   A(40,41,44)           109.5734         estimate D2E/DX2                !
 ! A82   A(40,41,45)           110.9256         estimate D2E/DX2                !
 ! A83   A(40,41,46)           110.8811         estimate D2E/DX2                !
 ! A84   A(44,41,45)           108.2997         estimate D2E/DX2                !
 ! A85   A(44,41,46)           108.6272         estimate D2E/DX2                !
 ! A86   A(45,41,46)           108.4628         estimate D2E/DX2                !
 ! D1    D(6,1,2,3)              0.4828         estimate D2E/DX2                !
 ! D2    D(6,1,2,7)            176.4709         estimate D2E/DX2                !
 ! D3    D(24,1,2,3)          -179.7364         estimate D2E/DX2                !
 ! D4    D(24,1,2,7)            -3.7483         estimate D2E/DX2                !
 ! D5    D(2,1,6,5)             -0.1118         estimate D2E/DX2                !
 ! D6    D(2,1,6,23)           179.7136         estimate D2E/DX2                !
 ! D7    D(24,1,6,5)          -179.8997         estimate D2E/DX2                !
 ! D8    D(24,1,6,23)           -0.0743         estimate D2E/DX2                !
 ! D9    D(1,2,3,4)             -0.4629         estimate D2E/DX2                !
 ! D10   D(1,2,3,20)           178.8162         estimate D2E/DX2                !
 ! D11   D(7,2,3,4)           -176.6983         estimate D2E/DX2                !
 ! D12   D(7,2,3,20)             2.5808         estimate D2E/DX2                !
 ! D13   D(1,2,7,8)            -75.5135         estimate D2E/DX2                !
 ! D14   D(1,2,7,11)            33.5167         estimate D2E/DX2                !
 ! D15   D(1,2,7,14)           161.0321         estimate D2E/DX2                !
 ! D16   D(3,2,7,8)            100.4771         estimate D2E/DX2                !
 ! D17   D(3,2,7,11)          -150.4927         estimate D2E/DX2                !
 ! D18   D(3,2,7,14)           -22.9773         estimate D2E/DX2                !
 ! D19   D(2,3,4,5)              0.0725         estimate D2E/DX2                !
 ! D20   D(2,3,4,21)          -179.6247         estimate D2E/DX2                !
 ! D21   D(20,3,4,5)          -179.2115         estimate D2E/DX2                !
 ! D22   D(20,3,4,21)            1.0913         estimate D2E/DX2                !
 ! D23   D(3,4,5,6)              0.3094         estimate D2E/DX2                !
 ! D24   D(3,4,5,22)          -179.6313         estimate D2E/DX2                !
 ! D25   D(21,4,5,6)          -179.997          estimate D2E/DX2                !
 ! D26   D(21,4,5,22)            0.0622         estimate D2E/DX2                !
 ! D27   D(4,5,6,1)             -0.2897         estimate D2E/DX2                !
 ! D28   D(4,5,6,23)           179.8864         estimate D2E/DX2                !
 ! D29   D(22,5,6,1)           179.6511         estimate D2E/DX2                !
 ! D30   D(22,5,6,23)           -0.1728         estimate D2E/DX2                !
 ! D31   D(2,7,8,9)             78.1359         estimate D2E/DX2                !
 ! D32   D(2,7,8,25)          -163.4068         estimate D2E/DX2                !
 ! D33   D(2,7,8,26)           -46.5652         estimate D2E/DX2                !
 ! D34   D(11,7,8,9)           -34.8746         estimate D2E/DX2                !
 ! D35   D(11,7,8,25)           83.5827         estimate D2E/DX2                !
 ! D36   D(11,7,8,26)         -159.5757         estimate D2E/DX2                !
 ! D37   D(14,7,8,9)          -156.7987         estimate D2E/DX2                !
 ! D38   D(14,7,8,25)          -38.3414         estimate D2E/DX2                !
 ! D39   D(14,7,8,26)           78.5003         estimate D2E/DX2                !
 ! D40   D(2,7,11,10)         -100.151          estimate D2E/DX2                !
 ! D41   D(2,7,11,12)          135.8898         estimate D2E/DX2                !
 ! D42   D(2,7,11,31)           17.0101         estimate D2E/DX2                !
 ! D43   D(8,7,11,10)           16.8233         estimate D2E/DX2                !
 ! D44   D(8,7,11,12)         -107.136          estimate D2E/DX2                !
 ! D45   D(8,7,11,31)          133.9844         estimate D2E/DX2                !
 ! D46   D(14,7,11,10)         134.2871         estimate D2E/DX2                !
 ! D47   D(14,7,11,12)          10.3278         estimate D2E/DX2                !
 ! D48   D(14,7,11,31)        -108.5518         estimate D2E/DX2                !
 ! D49   D(2,7,14,15)          -46.9993         estimate D2E/DX2                !
 ! D50   D(8,7,14,15)         -171.9356         estimate D2E/DX2                !
 ! D51   D(11,7,14,15)          75.7031         estimate D2E/DX2                !
 ! D52   D(7,8,9,10)            40.5664         estimate D2E/DX2                !
 ! D53   D(7,8,9,27)           161.7782         estimate D2E/DX2                !
 ! D54   D(7,8,9,28)           -79.592          estimate D2E/DX2                !
 ! D55   D(25,8,9,10)          -73.6454         estimate D2E/DX2                !
 ! D56   D(25,8,9,27)           47.5664         estimate D2E/DX2                !
 ! D57   D(25,8,9,28)          166.1962         estimate D2E/DX2                !
 ! D58   D(26,8,9,10)          164.9105         estimate D2E/DX2                !
 ! D59   D(26,8,9,27)          -73.8776         estimate D2E/DX2                !
 ! D60   D(26,8,9,28)           44.7521         estimate D2E/DX2                !
 ! D61   D(7,8,26,38)          -75.6185         estimate D2E/DX2                !
 ! D62   D(7,8,26,39)          104.6718         estimate D2E/DX2                !
 ! D63   D(9,8,26,38)          163.2221         estimate D2E/DX2                !
 ! D64   D(9,8,26,39)          -16.4877         estimate D2E/DX2                !
 ! D65   D(25,8,26,38)          39.6702         estimate D2E/DX2                !
 ! D66   D(25,8,26,39)        -140.0396         estimate D2E/DX2                !
 ! D67   D(8,9,10,11)          -28.2913         estimate D2E/DX2                !
 ! D68   D(8,9,10,29)           92.2371         estimate D2E/DX2                !
 ! D69   D(8,9,10,30)         -149.1265         estimate D2E/DX2                !
 ! D70   D(27,9,10,11)        -149.9026         estimate D2E/DX2                !
 ! D71   D(27,9,10,29)         -29.3742         estimate D2E/DX2                !
 ! D72   D(27,9,10,30)          89.2623         estimate D2E/DX2                !
 ! D73   D(28,9,10,11)          90.2496         estimate D2E/DX2                !
 ! D74   D(28,9,10,29)        -149.222          estimate D2E/DX2                !
 ! D75   D(28,9,10,30)         -30.5856         estimate D2E/DX2                !
 ! D76   D(9,10,11,7)            6.2274         estimate D2E/DX2                !
 ! D77   D(9,10,11,12)         131.3437         estimate D2E/DX2                !
 ! D78   D(9,10,11,31)        -106.8166         estimate D2E/DX2                !
 ! D79   D(29,10,11,7)        -114.201          estimate D2E/DX2                !
 ! D80   D(29,10,11,12)         10.9154         estimate D2E/DX2                !
 ! D81   D(29,10,11,31)        132.7551         estimate D2E/DX2                !
 ! D82   D(30,10,11,7)         129.195          estimate D2E/DX2                !
 ! D83   D(30,10,11,12)       -105.6886         estimate D2E/DX2                !
 ! D84   D(30,10,11,31)         16.1511         estimate D2E/DX2                !
 ! D85   D(7,11,12,13)          62.8719         estimate D2E/DX2                !
 ! D86   D(7,11,12,17)        -107.69           estimate D2E/DX2                !
 ! D87   D(10,11,12,13)        -56.5833         estimate D2E/DX2                !
 ! D88   D(10,11,12,17)        132.8548         estimate D2E/DX2                !
 ! D89   D(31,11,12,13)       -179.9902         estimate D2E/DX2                !
 ! D90   D(31,11,12,17)          9.4479         estimate D2E/DX2                !
 ! D91   D(11,12,13,35)        149.4534         estimate D2E/DX2                !
 ! D92   D(11,12,13,36)        -97.0087         estimate D2E/DX2                !
 ! D93   D(11,12,13,37)         19.8579         estimate D2E/DX2                !
 ! D94   D(17,12,13,35)        -39.8979         estimate D2E/DX2                !
 ! D95   D(17,12,13,36)         73.64           estimate D2E/DX2                !
 ! D96   D(17,12,13,37)       -169.4934         estimate D2E/DX2                !
 ! D97   D(11,12,17,32)        -40.3092         estimate D2E/DX2                !
 ! D98   D(11,12,17,33)         73.6881         estimate D2E/DX2                !
 ! D99   D(11,12,17,34)       -168.3906         estimate D2E/DX2                !
 ! D100  D(13,12,17,32)        148.773          estimate D2E/DX2                !
 ! D101  D(13,12,17,33)        -97.2296         estimate D2E/DX2                !
 ! D102  D(13,12,17,34)         20.6917         estimate D2E/DX2                !
 ! D103  D(7,14,15,16)        -130.8986         estimate D2E/DX2                !
 ! D104  D(7,14,15,18)         107.4792         estimate D2E/DX2                !
 ! D105  D(7,14,15,19)         -16.4669         estimate D2E/DX2                !
 ! D106  D(8,26,38,40)         177.295          estimate D2E/DX2                !
 ! D107  D(39,26,38,40)         -2.9967         estimate D2E/DX2                !
 ! D108  D(26,38,40,41)        179.4759         estimate D2E/DX2                !
 ! D109  D(26,38,40,42)        -59.0976         estimate D2E/DX2                !
 ! D110  D(26,38,40,43)         57.5839         estimate D2E/DX2                !
 ! D111  D(38,40,41,44)        179.1494         estimate D2E/DX2                !
 ! D112  D(38,40,41,45)        -61.3303         estimate D2E/DX2                !
 ! D113  D(38,40,41,46)         59.2507         estimate D2E/DX2                !
 ! D114  D(42,40,41,44)         60.3102         estimate D2E/DX2                !
 ! D115  D(42,40,41,45)        179.8306         estimate D2E/DX2                !
 ! D116  D(42,40,41,46)        -59.5885         estimate D2E/DX2                !
 ! D117  D(43,40,41,44)        -61.5825         estimate D2E/DX2                !
 ! D118  D(43,40,41,45)         57.9378         estimate D2E/DX2                !
 ! D119  D(43,40,41,46)        178.5187         estimate D2E/DX2                !
 --------------------------------------------------------------------------------
 Trust Radius=3.00D-01 FncErr=1.00D-07 GrdErr=1.00D-06 EigMax=2.50D+02 EigMin=1.00D-04
 Number of steps in this run=    263 maximum allowed number of steps=    276.
 GradGradGradGradGradGradGradGradGradGradGradGradGradGradGradGradGradGrad

 Leave Link  103 at Sat Jun 19 21:34:39 2021, MaxMem=  2147483648 cpu:               0.2 elap:               0.1
 (Enter /SFS/product/gaussian/g16.a03/x86_64/avx/g16/l202.exe)
                          Input orientation:                          
 ---------------------------------------------------------------------
 Center     Atomic      Atomic             Coordinates (Angstroms)
 Number     Number       Type             X           Y           Z
 ---------------------------------------------------------------------
      1          6           0        2.274377   -1.761446    1.447188
      2          6           0        1.403338   -0.761546    0.983480
      3          6           0        1.322563    0.433039    1.715868
      4          6           0        2.077289    0.616448    2.873932
      5          6           0        2.931385   -0.387793    3.327059
      6          6           0        3.028474   -1.577454    2.605553
      7          6           0        0.597459   -0.860447   -0.328533
      8          6           0        1.505219   -0.621678   -1.601087
      9          6           0        2.271999   -1.911954   -1.842324
     10          6           0        1.250082   -3.032082   -1.578197
     11          6           0        0.199374   -2.499976   -0.537045
     12          6           0       -1.175037   -2.741710   -0.949897
     13          6           0       -1.698201   -2.252920   -2.226626
     14          8           0       -0.447886    0.001796   -0.354563
     15         26           0       -1.926959    0.813178    0.369553
     16         17           0       -3.490810    0.647016   -1.235931
     17          6           0       -2.124683   -3.311589    0.018221
     18         17           0       -1.528158    2.906661    0.933499
     19         17           0       -2.583071   -0.436464    2.111052
     20          1           0        0.675611    1.231344    1.375430
     21          1           0        1.987843    1.550105    3.421860
     22          1           0        3.514778   -0.247001    4.232575
     23          1           0        3.690491   -2.370146    2.943064
     24          1           0        2.380139   -2.703342    0.918355
     25          1           0        0.803398   -0.414611   -2.416617
     26          6           0        2.412838    0.595434   -1.451733
     27          1           0        2.676862   -1.968089   -2.857445
     28          1           0        3.120725   -1.964974   -1.156334
     29          1           0        0.751103   -3.313276   -2.510127
     30          1           0        1.713991   -3.943707   -1.188480
     31          1           0        0.348698   -2.957184    0.439365
     32          1           0       -1.673093   -4.096783    0.633271
     33          1           0       -2.358725   -2.484559    0.729243
     34          1           0       -3.064960   -3.642723   -0.426383
     35          1           0       -2.478411   -2.898396   -2.641372
     36          1           0       -2.218423   -1.297735   -1.962803
     37          1           0       -0.942155   -2.008926   -2.972514
     38          8           0        1.721568    1.733529   -1.604176
     39          8           0        3.604028    0.535622   -1.229839
     40          6           0        2.463419    2.968956   -1.424120
     41          6           0        1.498160    4.115259   -1.653533
     42          1           0        2.879791    2.973397   -0.412025
     43          1           0        3.299713    2.976264   -2.130373
     44          1           0        2.019601    5.068324   -1.511064
     45          1           0        1.097794    4.091389   -2.672236
     46          1           0        0.660839    4.066569   -0.950922
 ---------------------------------------------------------------------
                    Distance matrix (angstroms):
                    1          2          3          4          5
     1  C    0.000000
     2  C    1.404825   0.000000
     3  C    2.407053   1.403549   0.000000
     4  C    2.780076   2.434520   1.394404   0.000000
     5  C    2.419193   2.822584   2.420333   1.394024   0.000000
     6  C    1.394390   2.436779   2.782760   2.406239   1.394737
     7  C    2.603275   1.542919   2.525561   3.824513   4.362793
     8  C    3.344048   2.590353   3.485395   4.678249   5.135686
     9  C    3.292954   3.172251   4.365908   5.354792   5.429584
    10  C    3.437536   3.426516   4.781546   5.815281   5.820703
    11  C    2.964497   2.604547   3.865197   4.987327   5.182326
    12  C    4.313397   3.782461   4.839767   6.039579   6.379340
    13  C    5.433216   4.706222   5.646472   6.964430   7.466939
    14  O    3.710262   2.408336   2.758105   4.144573   5.012544
    15  Fe   5.043928   3.734641   3.537861   4.727010   5.813147
    16  Cl   6.799794   5.555404   5.650439   6.920667   7.945835
    17  C    4.878178   4.458854   5.365422   6.421926   6.712735
    18  Cl   6.042712   4.695946   3.854545   4.691439   6.039046
    19  Cl   5.078493   4.155545   4.020719   4.838343   5.647147
    20  H    3.393817   2.157504   1.082467   2.142033   3.393962
    21  H    3.866239   3.410436   2.144957   1.086251   2.157477
    22  H    3.404485   3.908907   3.406182   2.158201   1.086337
    23  H    2.147915   3.414474   3.869230   3.395135   2.157178
    24  H    1.085365   2.174616   3.404612   3.864842   3.386369
    25  H    4.348187   3.470007   4.250350   5.538573   6.125264
    26  C    3.738689   2.964919   3.353918   4.338711   4.906371
    27  H    4.328344   4.222596   5.339919   6.315695   6.388287
    28  H    2.745188   2.996074   4.151313   4.898524   4.756486
    29  H    4.515405   4.375160   5.676308   6.796292   6.883663
    30  H    3.467426   3.865238   5.267291   6.118022   5.875089
    31  H    2.480673   2.495827   3.751198   4.656822   4.648744
    32  H    4.658195   4.550921   5.537622   6.426544   6.497255
    33  H    4.743835   4.145664   4.799759   5.821869   6.255425
    34  H    5.963052   5.500416   6.360144   7.448177   7.787108
    35  H    6.371654   5.724828   6.673185   7.970390   8.437487
    36  H    5.659357   4.699493   5.391362   6.746202   7.438492
    37  H    5.471845   4.765205   5.750919   7.084530   7.570799
    38  O    4.672394   3.608689   3.587920   4.629024   5.502794
    39  O    3.769744   3.380009   3.727304   4.379315   4.697921
    40  C    5.536863   4.564751   4.194276   4.914941   5.836134
    41  C    6.689742   5.544913   4.994241   5.751088   6.865705
    42  H    5.122688   4.251723   3.661462   4.122709   5.028022
    43  H    6.024629   5.221450   5.017040   5.666226   6.421535
    44  H    7.447276   6.371021   5.690766   6.249057   7.349013
    45  H    7.253253   6.083469   5.717473   6.617749   7.708221
    46  H    6.505397   5.253942   4.555457   5.342207   6.580110
                    6          7          8          9         10
     6  C    0.000000
     7  C    3.877215   0.000000
     8  C    4.574892   1.581276   0.000000
     9  C    4.524130   2.490244   1.520184   0.000000
    10  C    4.773090   2.589126   2.423977   1.539079   0.000000
    11  C    4.327907   1.700001   2.522978   2.518987   1.571980
    12  C    5.627275   2.658380   3.478844   3.656088   2.521959
    13  C    6.793207   3.288129   3.648856   4.003303   3.117680
    14  O    4.831293   1.355318   2.399408   3.643302   3.685755
    15  Fe   5.938951   3.108220   4.209760   5.472659   5.354750
    16  Cl   7.887099   4.450816   5.167517   6.334509   6.010737
    17  C    6.021340   3.679455   4.799372   4.975080   3.743757
    18  Cl   6.608021   4.505782   5.298554   6.735387   7.021104
    19  Cl   5.747680   4.030770   5.525251   6.432570   5.919531
    20  H    3.865037   2.699109   3.602998   4.773125   5.218307
    21  H    3.395717   4.670051   5.493593   6.306999   6.822118
    22  H    2.157266   5.448924   6.181450   6.420356   6.830124
    23  H    1.086527   4.748619   5.336840   5.012185   5.180305
    24  H    2.129460   2.851130   3.383253   2.873906   2.760049
    25  H    5.614745   2.145058   1.095682   2.174543   2.784534
    26  C    4.643492   2.583944   1.525595   2.541533   3.811413
    27  H    5.488221   3.456325   2.182660   1.094320   2.191862
    28  H    3.782919   2.876127   2.147582   1.092579   2.194537
    29  H    5.862566   3.286233   2.939344   2.173198   1.093866
    30  H    4.660655   3.390080   3.354058   2.206106   1.094601
    31  H    3.711768   2.246743   3.309920   3.161914   2.211031
    32  H    5.686972   4.068703   5.212521   5.144492   3.816953
    33  H    5.776270   3.534919   4.881683   5.327705   4.318281
    34  H    7.112518   4.600429   5.602962   5.786500   4.507676
    35  H    7.720161   4.354703   4.704779   4.917107   3.879417
    36  H    6.962618   3.285004   3.801763   4.533836   3.896974
    37  H    6.860532   3.268035   3.129682   3.408448   2.792288
    38  O    5.512933   3.101548   2.365125   3.694487   4.788948
    39  O    4.416626   3.435232   2.425318   2.853080   4.288464
    40  C    6.101426   4.398459   3.720500   4.902532   6.124409
    41  C    7.272459   5.227288   4.737233   6.079619   7.152042
    42  H    5.462429   4.462552   4.028384   5.126580   6.331010
    43  H    6.575630   5.026843   4.055310   5.003383   6.372292
    44  H    7.882305   6.210571   5.713914   6.992690   8.137152
    45  H    7.982378   5.501269   4.850397   6.173138   7.208603
    46  H    7.078786   4.966575   4.807843   6.255651   7.150631
                   11         12         13         14         15
    11  C    0.000000
    12  C    1.455296   0.000000
    13  C    2.552746   1.463780   0.000000
    14  O    2.590581   2.899999   3.186166   0.000000
    15  Fe   4.039827   3.865691   4.024106   1.835849   0.000000
    16  Cl   4.899945   4.114375   3.550289   3.233033   2.247403
    17  C    2.523545   1.471000   2.518334   3.732176   4.144422
    18  Cl   5.863326   5.964559   6.052816   3.356238   2.204484
    19  Cl   4.360333   4.082417   4.785181   3.290949   2.241630
    20  H    4.219847   4.961573   5.545258   2.401439   2.821351
    21  H    5.939251   6.894617   7.743082   4.753042   5.018497
    22  H    6.230335   7.421318   8.539329   6.066831   6.757175
    23  H    4.931117   6.242321   7.468429   5.798846   6.950702
    24  H    2.629693   4.016356   5.169782   4.115315   5.587324
    25  H    2.871652   3.388342   3.110221   2.447687   4.089628
    26  C    3.913776   4.925568   5.061049   3.120886   4.711511
    27  H    3.435856   4.367420   4.429474   4.461941   6.272490
    28  H    3.033816   4.370298   4.944743   4.152831   5.960333
    29  H    2.204295   2.543820   2.683993   4.132037   5.700193
    30  H    2.191527   3.138184   3.947095   4.575601   6.189664
    31  H    1.088445   2.073221   3.434136   3.165506   4.404443
    32  H    2.724989   2.142593   3.402862   4.390364   4.923587
    33  H    2.854399   2.070448   3.037616   3.317816   3.345275
    34  H    3.460346   2.158171   2.653386   4.487399   4.667292
    35  H    3.428916   2.141126   1.094249   4.214693   4.810982
    36  H    3.053508   2.049316   1.119201   2.722135   3.159239
    37  H    2.734178   2.163836   1.089719   3.337809   4.483695
    38  O    4.623679   5.370863   5.289049   3.044169   4.249047
    39  O    4.613728   5.801615   6.073153   4.179603   5.764279
    40  C    5.985150   6.787854   6.725406   4.292282   5.209612
    41  C    6.833354   7.393180   7.148347   4.732335   5.169918
    42  H    6.095743   7.028043   7.180890   4.461743   5.327500
    43  H    6.491533   7.356095   7.234139   5.103475   6.184389
    44  H    7.844814   8.456787   8.242251   5.752886   6.100682
    45  H    6.986579   7.404286   6.947403   4.948283   5.398915
    46  H    6.595738   7.051461   6.865015   4.255267   4.361755
                   16         17         18         19         20
    16  Cl   0.000000
    17  C    4.371470   0.000000
    18  Cl   3.696542   6.313494   0.000000
    19  Cl   3.633210   3.585583   3.698102   0.000000
    20  H    4.951738   5.506533   2.803317   3.733863   0.000000
    21  H    7.247498   7.220367   4.516021   5.153439   2.451823
    22  H    8.932082   7.678281   6.801521   6.459142   4.290647
    23  H    8.839590   6.577026   7.688780   6.617322   4.951536
    24  H    7.094638   4.633964   6.837189   5.585223   4.312318
    25  H    4.578351   4.784828   5.262155   5.654064   4.135833
    26  C    5.907816   6.165605   5.153887   6.222327   3.378637
    27  H    6.892624   5.755804   7.471053   7.395859   5.670856
    28  H    7.109235   5.541413   7.050698   6.748736   4.754457
    29  H    5.941491   3.829189   7.466003   6.383421   5.979701
    30  H    6.940241   4.073220   7.870316   6.453868   5.867966
    31  H    5.526183   2.533886   6.176685   4.212343   4.304284
    32  H    5.413099   1.094874   7.011374   4.050905   5.869936
    33  H    3.866560   1.115485   5.458646   2.480810   4.840732
    34  H    4.386180   1.091533   6.863342   4.117146   6.402728
    35  H    3.945905   2.714643   6.883413   5.353279   6.567900
    36  H    2.435029   2.826456   5.151891   4.179839   5.090724
    37  H    4.070060   3.469841   6.305817   5.568472   5.658722
    38  O    5.337134   6.548208   4.286811   6.086190   3.197541
    39  O    7.095715   7.012618   6.053197   7.098359   3.980839
    40  C    6.393721   7.910517   4.636263   7.039985   3.748738
    41  C    6.090396   8.430767   4.160774   7.179605   4.262414
    42  H    6.831942   8.045553   4.609219   6.916352   3.329888
    43  H    7.234406   8.577740   5.718435   8.015207   4.713949
    44  H    7.070240   9.472948   4.820298   8.037848   4.986038
    45  H    5.914555   8.510405   4.615250   7.545201   4.974103
    46  H    5.386164   7.945790   3.112577   6.338450   3.667510
                   21         22         23         24         25
    21  H    0.000000
    22  H    2.493668   0.000000
    23  H    4.300770   2.490273   0.000000
    24  H    4.951085   4.278443   2.434643   0.000000
    25  H    6.273024   7.182717   6.394185   4.341249   0.000000
    26  C    4.984368   5.851096   5.453559   4.062057   2.131077
    27  H    7.230637   7.343884   5.902118   3.858148   2.473356
    28  H    5.882097   5.669837   4.158589   2.323357   3.059729
    29  H    7.769844   7.905945   6.266322   3.844511   2.900644
    30  H    7.177200   6.804139   4.842758   2.533972   3.846039
    31  H    5.647807   5.635388   4.216717   2.102527   3.850722
    32  H    7.284643   7.395256   6.089701   4.295537   5.384535
    33  H    6.513168   7.195696   6.442601   4.747680   4.917331
    34  H    8.203978   8.748129   7.655635   5.686815   5.417189
    35  H    8.746392   9.497334   8.337885   6.026210   4.121889
    36  H    7.402531   8.506253   7.754538   5.605673   3.180764
    37  H    7.882868   8.653435   7.522363   5.163208   2.428542
    38  O    5.036426   6.419172   6.433832   5.146135   2.473379
    39  O    5.027876   5.518916   5.085674   4.074743   3.186677
    40  C    5.071768   6.591353   7.005998   6.137515   3.897338
    41  C    5.707838   7.598837   8.245938   7.340696   4.645935
    42  H    4.185691   5.687397   6.361392   5.851917   4.450662
    43  H    5.880665   7.136021   7.380825   6.511396   4.220374
    44  H    6.059093   7.967285   8.829607   8.150513   5.688739
    45  H    6.662456   8.505284   8.944557   7.791349   4.522836
    46  H    5.216776   7.322602   8.110069   7.230621   4.716944
                   26         27         28         29         30
    26  C    0.000000
    27  H    2.935538   0.000000
    28  H    2.672836   1.758068   0.000000
    29  H    4.377165   2.374596   3.043975   0.000000
    30  H    4.600162   2.759643   2.428028   1.752526   0.000000
    31  H    4.523054   4.155432   3.348861   2.998038   2.342463
    32  H    6.561934   5.969803   5.543283   4.046178   3.848967
    33  H    6.083652   6.203887   5.818053   4.566325   4.732208
    34  H    7.001399   6.456236   6.450610   4.360374   4.848686
    35  H    6.127512   5.242995   5.867447   3.258698   4.558487
    36  H    5.029300   5.021312   5.440781   3.630434   4.802564
    37  H    4.511257   3.621076   4.450555   2.186836   3.739153
    38  O    1.340281   4.023089   3.979589   5.218505   5.692440
    39  O    1.213156   3.126869   2.547934   4.959066   4.861927
    40  C    2.374221   5.145327   4.984719   6.601354   6.957160
    41  C    3.642324   6.312358   6.312619   7.514984   8.075258
    42  H    2.636996   5.517204   4.999955   6.961006   7.057500
    43  H    2.629725   5.036189   5.039506   6.796907   7.161541
    44  H    4.490535   7.194153   7.127804   8.535715   9.022980
    45  H    3.929462   6.264586   6.562754   7.414549   8.194144
    46  H    3.920343   6.642008   6.517112   7.543300   8.082703
                   31         32         33         34         35
    31  H    0.000000
    32  H    2.328932   0.000000
    33  H    2.763610   1.754585   0.000000
    34  H    3.587833   1.807299   1.782017   0.000000
    35  H    4.181739   3.578820   3.398033   2.409199   0.000000
    36  H    3.887710   3.856378   2.945394   2.928512   1.757887
    37  H    3.769140   4.230260   3.991980   3.695724   1.805795
    38  O    5.297511   7.107913   6.315529   7.293979   6.338007
    39  O    5.057975   7.264872   6.965193   7.910721   7.126077
    40  C    6.562298   8.442053   7.591500   8.675987   7.767188
    41  C    7.464646   9.095271   8.006921   9.083735   8.122826
    42  H    6.504082   8.474010   7.650740   8.894567   8.255802
    43  H    7.107591   9.077143   8.367551   9.339359   8.255875
    44  H    8.426439  10.111051   9.013033  10.144537   9.218369
    45  H    7.741162   9.254748   8.170721   9.065807   7.851579
    46  H    7.166829   8.636968   7.406619   8.578456   7.824529
                   36         37         38         39         40
    36  H    0.000000
    37  H    1.775998   0.000000
    38  O    4.984045   4.793093   0.000000
    39  O    6.148119   5.493580   2.262469   0.000000
    40  C    6.357238   6.226939   1.452254   2.694411   0.000000
    41  C    6.573366   6.723131   2.392694   4.174685   1.516036
    42  H    6.829295   6.781365   2.073639   2.671345   1.094405
    43  H    6.981760   6.599603   2.076491   2.619218   1.094639
    44  H    7.661046   7.809949   3.349381   4.809874   2.147529
    45  H    6.367358   6.439363   2.662583   4.583143   2.163927
    46  H    6.171694   6.600611   2.644799   4.605187   2.162860
                   41         42         43         44         45
    41  C    0.000000
    42  H    2.180389   0.000000
    43  H    2.184097   1.768916   0.000000
    44  H    1.095687   2.517247   2.529614   0.000000
    45  H    1.094814   3.087713   2.526968   1.775514   0.000000
    46  H    1.094139   2.531636   3.089260   1.778625   1.776082
                   46
    46  H    0.000000
 Stoichiometry    C17H22Cl3FeO3(6)
 Framework group  C1[X(C17H22Cl3FeO3)]
 Deg. of freedom   132
 Full point group                 C1      NOp   1
 Largest Abelian subgroup         C1      NOp   1
 Largest concise Abelian subgroup C1      NOp   1
                         Standard orientation:                         
 ---------------------------------------------------------------------
 Center     Atomic      Atomic             Coordinates (Angstroms)
 Number     Number       Type             X           Y           Z
 ---------------------------------------------------------------------
      1          6           0        2.274377   -1.761446    1.447188
      2          6           0        1.403338   -0.761546    0.983480
      3          6           0        1.322563    0.433039    1.715868
      4          6           0        2.077289    0.616448    2.873932
      5          6           0        2.931385   -0.387793    3.327059
      6          6           0        3.028474   -1.577454    2.605553
      7          6           0        0.597459   -0.860447   -0.328533
      8          6           0        1.505219   -0.621678   -1.601087
      9          6           0        2.271999   -1.911954   -1.842324
     10          6           0        1.250082   -3.032082   -1.578197
     11          6           0        0.199374   -2.499976   -0.537045
     12          6           0       -1.175037   -2.741710   -0.949897
     13          6           0       -1.698201   -2.252920   -2.226626
     14          8           0       -0.447886    0.001796   -0.354563
     15         26           0       -1.926959    0.813178    0.369553
     16         17           0       -3.490810    0.647016   -1.235931
     17          6           0       -2.124683   -3.311589    0.018221
     18         17           0       -1.528158    2.906661    0.933499
     19         17           0       -2.583071   -0.436464    2.111052
     20          1           0        0.675611    1.231344    1.375430
     21          1           0        1.987843    1.550105    3.421860
     22          1           0        3.514778   -0.247001    4.232575
     23          1           0        3.690491   -2.370146    2.943064
     24          1           0        2.380139   -2.703342    0.918355
     25          1           0        0.803398   -0.414611   -2.416617
     26          6           0        2.412838    0.595434   -1.451733
     27          1           0        2.676862   -1.968089   -2.857445
     28          1           0        3.120725   -1.964974   -1.156334
     29          1           0        0.751103   -3.313276   -2.510127
     30          1           0        1.713991   -3.943707   -1.188480
     31          1           0        0.348698   -2.957184    0.439365
     32          1           0       -1.673093   -4.096783    0.633271
     33          1           0       -2.358725   -2.484559    0.729243
     34          1           0       -3.064960   -3.642723   -0.426383
     35          1           0       -2.478411   -2.898396   -2.641372
     36          1           0       -2.218423   -1.297735   -1.962803
     37          1           0       -0.942155   -2.008926   -2.972514
     38          8           0        1.721568    1.733529   -1.604176
     39          8           0        3.604028    0.535622   -1.229839
     40          6           0        2.463419    2.968956   -1.424120
     41          6           0        1.498160    4.115259   -1.653533
     42          1           0        2.879791    2.973397   -0.412025
     43          1           0        3.299713    2.976264   -2.130373
     44          1           0        2.019601    5.068324   -1.511064
     45          1           0        1.097794    4.091389   -2.672236
     46          1           0        0.660839    4.066569   -0.950922
 ---------------------------------------------------------------------
 Rotational constants (GHZ):           0.1966069           0.1609496           0.1406858
 Leave Link  202 at Sat Jun 19 21:34:39 2021, MaxMem=  2147483648 cpu:               0.1 elap:               0.0
 (Enter /SFS/product/gaussian/g16.a03/x86_64/avx/g16/l301.exe)
 Standard basis: Jul-CC-pVDZ (5D, 7F)
 Ernie: Thresh=  0.10000D-02 Tol=  0.10000D-05 Strict=F.
 Ernie:  134 primitive shells out of 958 were deleted.
 There are   766 symmetry adapted cartesian basis functions of A   symmetry.
 There are   710 symmetry adapted basis functions of A   symmetry.
   710 basis functions,  1571 primitive gaussians,   766 cartesian basis functions
   115 alpha electrons      110 beta electrons
       nuclear repulsion energy      3334.6120908327 Hartrees.
 IExCor=  402 DFT=T Ex+Corr=B3LYP ExCW=0 ScaHFX=  0.200000
 ScaDFX=  0.800000  0.720000  1.000000  0.810000 ScalE2=  1.000000  1.000000
 IRadAn=      5 IRanWt=     -1 IRanGd=            0 ICorTp=0 IEmpDi=  4
 NAtoms=   46 NActive=   46 NUniq=   46 SFac= 1.00D+00 NAtFMM=   60 NAOKFM=F Big=F
 Integral buffers will be    131072 words long.
 Raffenetti 2 integral format.
 Two-electron integral symmetry is turned on.
 Leave Link  301 at Sat Jun 19 21:34:39 2021, MaxMem=  2147483648 cpu:               1.0 elap:               0.1
 (Enter /SFS/product/gaussian/g16.a03/x86_64/avx/g16/l302.exe)
 NPDir=0 NMtPBC=     1 NCelOv=     1 NCel=       1 NClECP=     1 NCelD=      1
         NCelK=      1 NCelE2=     1 NClLst=     1 CellRange=     0.0.
 One-electron integrals computed using PRISM.
 One-electron integral symmetry used in STVInt
 NBasis=   710 RedAO= T EigKep=  1.64D-06  NBF=   710
 NBsUse=   710 1.00D-06 EigRej= -1.00D+00 NBFU=   710
 Precomputing XC quadrature grid using
 IXCGrd= 4 IRadAn=           5 IRanWt=          -1 IRanGd=           0 AccXCQ= 0.00D+00.
 Generated NRdTot=       0 NPtTot=           0 NUsed=           0 NTot=          32
 NSgBfM=   764   764   764   764   764 MxSgAt=    46 MxSgA2=    46.
 Leave Link  302 at Sat Jun 19 21:34:40 2021, MaxMem=  2147483648 cpu:              17.7 elap:               1.2
 (Enter /SFS/product/gaussian/g16.a03/x86_64/avx/g16/l303.exe)
 DipDrv:  MaxL=1.
 Leave Link  303 at Sat Jun 19 21:34:41 2021, MaxMem=  2147483648 cpu:               2.5 elap:               0.2
 (Enter /SFS/product/gaussian/g16.a03/x86_64/avx/g16/l401.exe)
 ExpMin= 1.40D-02 ExpMax= 4.32D+06 ExpMxC= 4.91D+03 IAcc=3 IRadAn=         5 AccDes= 0.00D+00
 Harris functional with IExCor=  402 and IRadAn=       5 diagonalized for initial guess.
 HarFok:  IExCor=  402 AccDes= 0.00D+00 IRadAn=         5 IDoV= 1 UseB2=F ITyADJ=14
 ICtDFT=  3500011 ScaDFX=  1.000000  1.000000  1.000000  1.000000
 FoFCou: FMM=F IPFlag=           0 FMFlag=      100000 FMFlg1=           0
         NFxFlg=           0 DoJE=T BraDBF=F KetDBF=T FulRan=T
         wScrn=  0.000000 ICntrl=       500 IOpCl=  0 I1Cent=   200000004 NGrid=           0
         NMat0=    1 NMatS0=      1 NMatT0=    0 NMatD0=    1 NMtDS0=    0 NMtDT0=    0
 Petite list used in FoFCou.
 Harris En= -3531.09776538771    
 JPrj=0 DoOrth=F DoCkMO=F.
 Initial guess <Sx>= 0.0000 <Sy>= 0.0000 <Sz>= 2.5000 <S**2>= 8.7500 S= 2.5000
 Leave Link  401 at Sat Jun 19 21:34:48 2021, MaxMem=  2147483648 cpu:             107.5 elap:               6.8
 (Enter /SFS/product/gaussian/g16.a03/x86_64/avx/g16/l502.exe)
 Integral symmetry usage will be decided dynamically.
 UHF open shell SCF:
 Using DIIS extrapolation, IDIIS=  1040.
 NGot=  2147483648 LenX=  2146290678 LenY=  2145703156
 Requested convergence on RMS density matrix=1.00D-08 within 128 cycles.
 Requested convergence on MAX density matrix=1.00D-06.
 Requested convergence on             energy=1.00D-06.
 No special actions if energy rises.
 Fock matrices will be formed incrementally for  20 cycles.

 Cycle   1  Pass 1  IDiag  1:
 FoFJK:  IHMeth= 1 ICntrl=       0 DoSepK=F KAlg= 0 I1Cent=           0 FoldK=F
 IRaf= 920000000 NMat=       1 IRICut=       1 DoRegI=T DoRafI=F ISym2E= 0 IDoP0=0 IntGTp=1.
 FoFCou: FMM=F IPFlag=           0 FMFlag=      100000 FMFlg1=           0
         NFxFlg=           0 DoJE=F BraDBF=F KetDBF=F FulRan=T
         wScrn=  0.000000 ICntrl=         0 IOpCl=  1 I1Cent=           0 NGrid=           0
         NMat0=    1 NMatS0=      1 NMatT0=    0 NMatD0=    1 NMtDS0=    0 NMtDT0=    0
 Symmetry not used in FoFCou.
 E= -3530.34618978228    
 DIIS: error= 2.47D-02 at cycle   1 NSaved=   1.
 NSaved= 1 IEnMin= 1 EnMin= -3530.34618978228     IErMin= 1 ErrMin= 2.47D-02
 ErrMax= 2.47D-02  0.00D+00 EMaxC= 1.00D-01 BMatC= 4.70D+00 BMatP= 4.70D+00
 IDIUse=3 WtCom= 7.53D-01 WtEn= 2.47D-01
 Coeff-Com:  0.100D+01
 Coeff-En:   0.100D+01
 Coeff:      0.100D+01
 Gap=     0.089 Goal=   None    Shift=    0.000
 Gap=     0.401 Goal=   None    Shift=    0.000
 GapD=    0.089 DampG=0.500 DampE=0.250 DampFc=0.1250 IDamp=-1.
 Damping current iteration by 1.25D-01
 RMSDP=2.96D-02 MaxDP=7.75D+00              OVMax= 7.95D-01

 Cycle   2  Pass 1  IDiag  1:
 RMSU=  2.20D-03    CP:  9.56D-01
 E= -3530.67933486792     Delta-E=       -0.333145085632 Rises=F Damp=T
 DIIS: error= 8.79D-03 at cycle   2 NSaved=   2.
 NSaved= 2 IEnMin= 2 EnMin= -3530.67933486792     IErMin= 2 ErrMin= 8.79D-03
 ErrMax= 8.79D-03  0.00D+00 EMaxC= 1.00D-01 BMatC= 1.26D+00 BMatP= 4.70D+00
 IDIUse=3 WtCom= 9.12D-01 WtEn= 8.79D-02
 Coeff-Com: -0.444D+00 0.144D+01
 Coeff-En:   0.000D+00 0.100D+01
 Coeff:     -0.405D+00 0.141D+01
 Gap=     0.425 Goal=   None    Shift=    0.000
 Gap=    -0.049 Goal=   None    Shift=    0.000
 RMSDP=2.39D-02 MaxDP=7.36D+00 DE=-3.33D-01 OVMax= 9.62D-01

 Cycle   3  Pass 1  IDiag  1:
 RMSU=  7.60D-03    CP:  6.28D-01  2.77D+00
 E= -3530.18269372550     Delta-E=        0.496641142415 Rises=F Damp=F
 DIIS: error= 3.76D-02 at cycle   3 NSaved=   3.
 NSaved= 3 IEnMin= 2 EnMin= -3530.67933486792     IErMin= 2 ErrMin= 8.79D-03
 ErrMax= 3.76D-02  0.00D+00 EMaxC= 1.00D-01 BMatC= 5.48D+00 BMatP= 1.26D+00
 IDIUse=2 WtCom= 0.00D+00 WtEn= 1.00D+00
 Coeff-En:   0.000D+00 0.709D+00 0.291D+00
 Coeff:      0.000D+00 0.709D+00 0.291D+00
 Gap=    -0.252 Goal=   None    Shift=    0.000
 Gap=     0.261 Goal=   None    Shift=    0.000
 RMSDP=7.94D-03 MaxDP=9.36D-01 DE= 4.97D-01 OVMax= 7.62D-01

 Cycle   4  Pass 1  IDiag  1:
 RMSU=  5.63D-03    CP:  6.46D-01  3.00D+00  3.32D-01
 E= -3521.54072691591     Delta-E=        8.641966809589 Rises=F Damp=F
 DIIS: error= 1.13D-01 at cycle   4 NSaved=   4.
 NSaved= 4 IEnMin= 2 EnMin= -3530.67933486792     IErMin= 2 ErrMin= 8.79D-03
 ErrMax= 1.13D-01  0.00D+00 EMaxC= 1.00D-01 BMatC= 4.87D+01 BMatP= 1.26D+00
 IDIUse=2 WtCom= 0.00D+00 WtEn= 1.00D+00
 EnCoef did   100 forward-backward iterations
 Coeff-En:   0.328D+00 0.431D-01 0.455D+00 0.174D+00
 Coeff:      0.328D+00 0.431D-01 0.455D+00 0.174D+00
 Gap=     0.141 Goal=   None    Shift=    0.000
 Gap=     0.044 Goal=   None    Shift=    0.000
 RMSDP=5.80D-03 MaxDP=9.14D-01 DE= 8.64D+00 OVMax= 9.64D-01

 Cycle   5  Pass 1  IDiag  1:
 RMSU=  4.22D-03    CP:  6.67D-01  2.85D+00  5.59D-01  4.89D-01
 E= -3530.14138089292     Delta-E=       -8.600653977006 Rises=F Damp=F
 DIIS: error= 5.27D-02 at cycle   5 NSaved=   5.
 NSaved= 5 IEnMin= 2 EnMin= -3530.67933486792     IErMin= 2 ErrMin= 8.79D-03
 ErrMax= 5.27D-02  0.00D+00 EMaxC= 1.00D-01 BMatC= 8.31D+00 BMatP= 1.26D+00
 IDIUse=2 WtCom= 0.00D+00 WtEn= 1.00D+00
 EnCoef did     4 forward-backward iterations
 Coeff-En:   0.183D-01 0.000D+00 0.492D+00 0.000D+00 0.489D+00
 Coeff:      0.183D-01 0.000D+00 0.492D+00 0.000D+00 0.489D+00
 Gap=     0.092 Goal=   None    Shift=    0.000
 Gap=     0.136 Goal=   None    Shift=    0.000
 RMSDP=4.68D-03 MaxDP=4.90D-01 DE=-8.60D+00 OVMax= 3.62D-01

 Cycle   6  Pass 1  IDiag  1:
 RMSU=  3.65D-03    CP:  6.77D-01  2.42D+00  5.64D-01  3.04D-01  4.13D-01
 E= -3531.20443460439     Delta-E=       -1.063053711468 Rises=F Damp=F
 DIIS: error= 7.73D-03 at cycle   6 NSaved=   6.
 NSaved= 6 IEnMin= 6 EnMin= -3531.20443460439     IErMin= 6 ErrMin= 7.73D-03
 ErrMax= 7.73D-03  0.00D+00 EMaxC= 1.00D-01 BMatC= 7.55D-01 BMatP= 1.26D+00
 IDIUse=3 WtCom= 9.23D-01 WtEn= 7.73D-02
 EnCoef did    10 forward-backward iterations
 Coeff-Com: -0.449D+00 0.832D+00 0.273D+00-0.505D-02 0.836D-01 0.265D+00
 Coeff-En:   0.000D+00 0.000D+00 0.817D-01 0.000D+00 0.193D+00 0.725D+00
 Coeff:     -0.414D+00 0.767D+00 0.259D+00-0.466D-02 0.921D-01 0.301D+00
 Gap=     0.129 Goal=   None    Shift=    0.000
 Gap=     0.162 Goal=   None    Shift=    0.000
 RMSDP=3.78D-03 MaxDP=3.25D-01 DE=-1.06D+00 OVMax= 2.11D-01

 Cycle   7  Pass 1  IDiag  1:
 RMSU=  1.38D-03    CP:  6.63D-01  2.50D+00  6.33D-01  4.05D-01  7.58D-01
                    CP:  1.90D-01
 E= -3531.29679794612     Delta-E=       -0.092363341732 Rises=F Damp=F
 DIIS: error= 6.85D-03 at cycle   7 NSaved=   7.
 NSaved= 7 IEnMin= 7 EnMin= -3531.29679794612     IErMin= 7 ErrMin= 6.85D-03
 ErrMax= 6.85D-03  0.00D+00 EMaxC= 1.00D-01 BMatC= 4.20D-01 BMatP= 7.55D-01
 IDIUse=3 WtCom= 9.32D-01 WtEn= 6.85D-02
 Coeff-Com: -0.214D+00 0.318D+00 0.924D-01 0.631D-02-0.779D-01 0.298D+00
 Coeff-Com:  0.578D+00
 Coeff-En:   0.000D+00 0.000D+00 0.000D+00 0.000D+00 0.000D+00 0.369D+00
 Coeff-En:   0.631D+00
 Coeff:     -0.200D+00 0.296D+00 0.861D-01 0.587D-02-0.726D-01 0.303D+00
 Coeff:      0.582D+00
 Gap=     0.060 Goal=   None    Shift=    0.000
 Gap=     0.149 Goal=   None    Shift=    0.000
 RMSDP=1.57D-03 MaxDP=1.43D-01 DE=-9.24D-02 OVMax= 9.78D-02

 Cycle   8  Pass 1  IDiag  1:
 RMSU=  9.99D-04    CP:  6.66D-01  2.47D+00  6.30D-01  3.74D-01  6.48D-01
                    CP:  4.85D-01  8.87D-01
 E= -3531.39362138808     Delta-E=       -0.096823441960 Rises=F Damp=F
 DIIS: error= 2.13D-03 at cycle   8 NSaved=   8.
 NSaved= 8 IEnMin= 8 EnMin= -3531.39362138808     IErMin= 8 ErrMin= 2.13D-03
 ErrMax= 2.13D-03  0.00D+00 EMaxC= 1.00D-01 BMatC= 3.50D-02 BMatP= 4.20D-01
 IDIUse=3 WtCom= 9.79D-01 WtEn= 2.13D-02
 Coeff-Com: -0.107D+00 0.143D+00 0.264D-01 0.678D-02-0.464D-01 0.159D+00
 Coeff-Com:  0.319D+00 0.500D+00
 Coeff-En:   0.000D+00 0.000D+00 0.000D+00 0.000D+00 0.000D+00 0.000D+00
 Coeff-En:   0.000D+00 0.100D+01
 Coeff:     -0.105D+00 0.140D+00 0.258D-01 0.663D-02-0.454D-01 0.156D+00
 Coeff:      0.312D+00 0.510D+00
 Gap=     0.090 Goal=   None    Shift=    0.000
 Gap=     0.120 Goal=   None    Shift=    0.000
 RMSDP=5.99D-04 MaxDP=1.10D-01 DE=-9.68D-02 OVMax= 4.86D-02

 Cycle   9  Pass 1  IDiag  1:
 RMSU=  4.82D-04    CP:  6.64D-01  2.48D+00  6.13D-01  3.77D-01  6.25D-01
                    CP:  5.48D-01  9.15D-01  8.78D-01
 E= -3531.40058945651     Delta-E=       -0.006968068432 Rises=F Damp=F
 DIIS: error= 1.69D-03 at cycle   9 NSaved=   9.
 NSaved= 9 IEnMin= 9 EnMin= -3531.40058945651     IErMin= 9 ErrMin= 1.69D-03
 ErrMax= 1.69D-03  0.00D+00 EMaxC= 1.00D-01 BMatC= 1.50D-02 BMatP= 3.50D-02
 IDIUse=3 WtCom= 9.83D-01 WtEn= 1.69D-02
 Coeff-Com: -0.435D-01 0.532D-01-0.764D-02 0.307D-02 0.930D-02 0.417D-02
 Coeff-Com: -0.189D-01 0.258D+00 0.743D+00
 Coeff-En:   0.000D+00 0.000D+00 0.000D+00 0.000D+00 0.000D+00 0.000D+00
 Coeff-En:   0.000D+00 0.000D+00 0.100D+01
 Coeff:     -0.428D-01 0.523D-01-0.751D-02 0.302D-02 0.914D-02 0.410D-02
 Coeff:     -0.186D-01 0.253D+00 0.747D+00
 Gap=     0.102 Goal=   None    Shift=    0.000
 Gap=     0.109 Goal=   None    Shift=    0.000
 RMSDP=3.37D-04 MaxDP=9.38D-02 DE=-6.97D-03 OVMax= 1.91D-02

 Cycle  10  Pass 1  IDiag  1:
 RMSU=  2.59D-04    CP:  6.65D-01  2.48D+00  6.01D-01  3.84D-01  6.39D-01
                    CP:  5.59D-01  9.64D-01  9.74D-01  1.20D+00
 E= -3531.40307145647     Delta-E=       -0.002481999958 Rises=F Damp=F
 DIIS: error= 8.97D-04 at cycle  10 NSaved=  10.
 NSaved=10 IEnMin=10 EnMin= -3531.40307145647     IErMin=10 ErrMin= 8.97D-04
 ErrMax= 8.97D-04  0.00D+00 EMaxC= 1.00D-01 BMatC= 4.07D-03 BMatP= 1.50D-02
 IDIUse=3 WtCom= 9.91D-01 WtEn= 8.97D-03
 Coeff-Com: -0.241D-03-0.416D-02-0.140D-01 0.900D-03 0.236D-01-0.387D-01
 Coeff-Com: -0.944D-01-0.909D-02 0.467D+00 0.670D+00
 Coeff-En:   0.000D+00 0.000D+00 0.000D+00 0.000D+00 0.000D+00 0.000D+00
 Coeff-En:   0.000D+00 0.000D+00 0.000D+00 0.100D+01
 Coeff:     -0.239D-03-0.413D-02-0.138D-01 0.892D-03 0.234D-01-0.384D-01
 Coeff:     -0.935D-01-0.901D-02 0.462D+00 0.672D+00
 Gap=     0.101 Goal=   None    Shift=    0.000
 Gap=     0.104 Goal=   None    Shift=    0.000
 RMSDP=2.12D-04 MaxDP=2.84D-02 DE=-2.48D-03 OVMax= 1.41D-02

 Cycle  11  Pass 1  IDiag  1:
 RMSU=  1.51D-04    CP:  6.66D-01  2.50D+00  5.94D-01  3.88D-01  6.43D-01
                    CP:  5.71D-01  9.46D-01  1.07D+00  1.33D+00  1.06D+00
 E= -3531.40361830612     Delta-E=       -0.000546849647 Rises=F Damp=F
 DIIS: error= 2.88D-04 at cycle  11 NSaved=  11.
 NSaved=11 IEnMin=11 EnMin= -3531.40361830612     IErMin=11 ErrMin= 2.88D-04
 ErrMax= 2.88D-04  0.00D+00 EMaxC= 1.00D-01 BMatC= 1.21D-03 BMatP= 4.07D-03
 IDIUse=3 WtCom= 9.97D-01 WtEn= 2.88D-03
 Coeff-Com:  0.388D-02-0.446D-02-0.362D-02 0.137D-03 0.279D-02-0.748D-02
 Coeff-Com:  0.788D-02-0.549D-01 0.110D-02 0.440D+00 0.615D+00
 Coeff-En:   0.000D+00 0.000D+00 0.000D+00 0.000D+00 0.000D+00 0.000D+00
 Coeff-En:   0.000D+00 0.000D+00 0.000D+00 0.199D+00 0.801D+00
 Coeff:      0.387D-02-0.444D-02-0.361D-02 0.136D-03 0.278D-02-0.746D-02
 Coeff:      0.786D-02-0.547D-01 0.110D-02 0.439D+00 0.615D+00
 Gap=     0.102 Goal=   None    Shift=    0.000
 Gap=     0.105 Goal=   None    Shift=    0.000
 RMSDP=1.11D-04 MaxDP=1.76D-02 DE=-5.47D-04 OVMax= 9.79D-03

 Cycle  12  Pass 1  IDiag  1:
 RMSU=  7.61D-05    CP:  6.65D-01  2.50D+00  5.95D-01  3.87D-01  6.42D-01
                    CP:  5.62D-01  9.50D-01  1.04D+00  1.41D+00  1.06D+00
                    CP:  7.49D-01
 E= -3531.40392558210     Delta-E=       -0.000307275989 Rises=F Damp=F
 DIIS: error= 9.68D-05 at cycle  12 NSaved=  12.
 NSaved=12 IEnMin=12 EnMin= -3531.40392558210     IErMin=12 ErrMin= 9.68D-05
 ErrMax= 9.68D-05  0.00D+00 EMaxC= 1.00D-01 BMatC= 1.35D-04 BMatP= 1.21D-03
 IDIUse=1 WtCom= 1.00D+00 WtEn= 0.00D+00
 Coeff-Com:  0.169D-02-0.109D-02-0.656D-03 0.270D-04-0.967D-03-0.446D-03
 Coeff-Com:  0.161D-01-0.291D-01-0.495D-01 0.179D+00 0.365D+00 0.520D+00
 Coeff:      0.169D-02-0.109D-02-0.656D-03 0.270D-04-0.967D-03-0.446D-03
 Coeff:      0.161D-01-0.291D-01-0.495D-01 0.179D+00 0.365D+00 0.520D+00
 Gap=     0.103 Goal=   None    Shift=    0.000
 Gap=     0.104 Goal=   None    Shift=    0.000
 RMSDP=5.60D-05 MaxDP=1.80D-02 DE=-3.07D-04 OVMax= 2.67D-03

 Cycle  13  Pass 1  IDiag  1:
 RMSU=  3.20D-05    CP:  6.66D-01  2.49D+00  5.94D-01  3.88D-01  6.44D-01
                    CP:  5.61D-01  9.58D-01  1.03D+00  1.39D+00  1.14D+00
                    CP:  8.34D-01  8.09D-01
 E= -3531.40396589426     Delta-E=       -0.000040312151 Rises=F Damp=F
 DIIS: error= 3.66D-05 at cycle  13 NSaved=  13.
 NSaved=13 IEnMin=13 EnMin= -3531.40396589426     IErMin=13 ErrMin= 3.66D-05
 ErrMax= 3.66D-05  0.00D+00 EMaxC= 1.00D-01 BMatC= 1.55D-05 BMatP= 1.35D-04
 IDIUse=1 WtCom= 1.00D+00 WtEn= 0.00D+00
 Coeff-Com:  0.933D-03-0.980D-03-0.139D-04-0.387D-04-0.505D-03 0.706D-03
 Coeff-Com:  0.385D-02-0.165D-02-0.171D-01 0.129D-01 0.658D-01 0.222D+00
 Coeff-Com:  0.714D+00
 Coeff:      0.933D-03-0.980D-03-0.139D-04-0.387D-04-0.505D-03 0.706D-03
 Coeff:      0.385D-02-0.165D-02-0.171D-01 0.129D-01 0.658D-01 0.222D+00
 Coeff:      0.714D+00
 Gap=     0.103 Goal=   None    Shift=    0.000
 Gap=     0.104 Goal=   None    Shift=    0.000
 RMSDP=2.01D-05 MaxDP=1.76D-03 DE=-4.03D-05 OVMax= 2.02D-03

 Cycle  14  Pass 1  IDiag  1:
 RMSU=  1.49D-05    CP:  6.66D-01  2.49D+00  5.94D-01  3.88D-01  6.45D-01
                    CP:  5.61D-01  9.57D-01  1.04D+00  1.40D+00  1.17D+00
                    CP:  8.76D-01  8.92D-01  1.12D+00
 E= -3531.40397440295     Delta-E=       -0.000008508694 Rises=F Damp=F
 DIIS: error= 2.19D-05 at cycle  14 NSaved=  14.
 NSaved=14 IEnMin=14 EnMin= -3531.40397440295     IErMin=14 ErrMin= 2.19D-05
 ErrMax= 2.19D-05  0.00D+00 EMaxC= 1.00D-01 BMatC= 7.12D-06 BMatP= 1.55D-05
 IDIUse=1 WtCom= 1.00D+00 WtEn= 0.00D+00
 Coeff-Com: -0.188D-03 0.204D-03 0.340D-03-0.501D-04 0.152D-03-0.962D-04
 Coeff-Com: -0.603D-02 0.110D-01 0.137D-01-0.607D-01-0.108D+00-0.761D-01
 Coeff-Com:  0.408D+00 0.818D+00
 Coeff:     -0.188D-03 0.204D-03 0.340D-03-0.501D-04 0.152D-03-0.962D-04
 Coeff:     -0.603D-02 0.110D-01 0.137D-01-0.607D-01-0.108D+00-0.761D-01
 Coeff:      0.408D+00 0.818D+00
 Gap=     0.103 Goal=   None    Shift=    0.000
 Gap=     0.103 Goal=   None    Shift=    0.000
 RMSDP=1.76D-05 MaxDP=1.77D-03 DE=-8.51D-06 OVMax= 2.17D-03

 Cycle  15  Pass 1  IDiag  1:
 RMSU=  9.55D-06    CP:  6.66D-01  2.49D+00  5.95D-01  3.88D-01  6.44D-01
                    CP:  5.61D-01  9.57D-01  1.04D+00  1.40D+00  1.17D+00
                    CP:  9.05D-01  9.80D-01  1.43D+00  1.30D+00
 E= -3531.40397968915     Delta-E=       -0.000005286200 Rises=F Damp=F
 DIIS: error= 1.33D-05 at cycle  15 NSaved=  15.
 NSaved=15 IEnMin=15 EnMin= -3531.40397968915     IErMin=15 ErrMin= 1.33D-05
 ErrMax= 1.33D-05  0.00D+00 EMaxC= 1.00D-01 BMatC= 1.71D-06 BMatP= 7.12D-06
 IDIUse=1 WtCom= 1.00D+00 WtEn= 0.00D+00
 Coeff-Com: -0.228D-03 0.303D-03 0.179D-03-0.262D-04 0.224D-03-0.537D-03
 Coeff-Com: -0.450D-02 0.554D-02 0.126D-01-0.301D-01-0.698D-01-0.933D-01
 Coeff-Com: -0.110D-02 0.400D+00 0.780D+00
 Coeff:     -0.228D-03 0.303D-03 0.179D-03-0.262D-04 0.224D-03-0.537D-03
 Coeff:     -0.450D-02 0.554D-02 0.126D-01-0.301D-01-0.698D-01-0.933D-01
 Coeff:     -0.110D-02 0.400D+00 0.780D+00
 Gap=     0.103 Goal=   None    Shift=    0.000
 Gap=     0.103 Goal=   None    Shift=    0.000
 RMSDP=1.00D-05 MaxDP=1.73D-03 DE=-5.29D-06 OVMax= 1.18D-03

 Cycle  16  Pass 1  IDiag  1:
 RMSU=  4.85D-06    CP:  6.66D-01  2.49D+00  5.95D-01  3.88D-01  6.44D-01
                    CP:  5.61D-01  9.58D-01  1.04D+00  1.41D+00  1.18D+00
                    CP:  9.11D-01  1.04D+00  1.61D+00  1.56D+00  9.83D-01
 E= -3531.40398084343     Delta-E=       -0.000001154278 Rises=F Damp=F
 DIIS: error= 9.32D-06 at cycle  16 NSaved=  16.
 NSaved=16 IEnMin=16 EnMin= -3531.40398084343     IErMin=16 ErrMin= 9.32D-06
 ErrMax= 9.32D-06  0.00D+00 EMaxC= 1.00D-01 BMatC= 4.53D-07 BMatP= 1.71D-06
 IDIUse=1 WtCom= 1.00D+00 WtEn= 0.00D+00
 Coeff-Com: -0.135D-03 0.242D-03 0.653D-04-0.462D-05 0.489D-04-0.270D-03
 Coeff-Com: -0.984D-03 0.386D-03 0.378D-02-0.184D-02-0.134D-01-0.341D-01
 Coeff-Com: -0.109D+00 0.283D-01 0.482D+00 0.645D+00
 Coeff:     -0.135D-03 0.242D-03 0.653D-04-0.462D-05 0.489D-04-0.270D-03
 Coeff:     -0.984D-03 0.386D-03 0.378D-02-0.184D-02-0.134D-01-0.341D-01
 Coeff:     -0.109D+00 0.283D-01 0.482D+00 0.645D+00
 Gap=     0.103 Goal=   None    Shift=    0.000
 Gap=     0.103 Goal=   None    Shift=    0.000
 RMSDP=4.47D-06 MaxDP=9.34D-04 DE=-1.15D-06 OVMax= 5.19D-04

 Cycle  17  Pass 1  IDiag  1:
 RMSU=  2.10D-06    CP:  6.66D-01  2.49D+00  5.95D-01  3.88D-01  6.44D-01
                    CP:  5.60D-01  9.57D-01  1.04D+00  1.41D+00  1.18D+00
                    CP:  9.22D-01  1.06D+00  1.65D+00  1.65D+00  1.19D+00
                    CP:  7.76D-01
 E= -3531.40398107936     Delta-E=       -0.000000235932 Rises=F Damp=F
 DIIS: error= 2.60D-06 at cycle  17 NSaved=  17.
 NSaved=17 IEnMin=17 EnMin= -3531.40398107936     IErMin=17 ErrMin= 2.60D-06
 ErrMax= 2.60D-06  0.00D+00 EMaxC= 1.00D-01 BMatC= 4.89D-08 BMatP= 4.53D-07
 IDIUse=1 WtCom= 1.00D+00 WtEn= 0.00D+00
 Coeff-Com: -0.369D-05 0.329D-04-0.142D-05 0.136D-05-0.267D-05-0.617D-04
 Coeff-Com:  0.203D-03-0.856D-03-0.587D-03 0.375D-02 0.519D-02 0.900D-03
 Coeff-Com: -0.456D-01-0.544D-01 0.913D-01 0.301D+00 0.699D+00
 Coeff:     -0.369D-05 0.329D-04-0.142D-05 0.136D-05-0.267D-05-0.617D-04
 Coeff:      0.203D-03-0.856D-03-0.587D-03 0.375D-02 0.519D-02 0.900D-03
 Coeff:     -0.456D-01-0.544D-01 0.913D-01 0.301D+00 0.699D+00
 Gap=     0.103 Goal=   None    Shift=    0.000
 Gap=     0.103 Goal=   None    Shift=    0.000
 RMSDP=1.44D-06 MaxDP=2.36D-04 DE=-2.36D-07 OVMax= 1.79D-04

 Cycle  18  Pass 1  IDiag  1:
 RMSU=  8.07D-07    CP:  6.66D-01  2.49D+00  5.95D-01  3.88D-01  6.44D-01
                    CP:  5.60D-01  9.58D-01  1.04D+00  1.41D+00  1.18D+00
                    CP:  9.23D-01  1.06D+00  1.67D+00  1.69D+00  1.22D+00
                    CP:  8.78D-01  9.33D-01
 E= -3531.40398110645     Delta-E=       -0.000000027089 Rises=F Damp=F
 DIIS: error= 9.56D-07 at cycle  18 NSaved=  18.
 NSaved=18 IEnMin=18 EnMin= -3531.40398110645     IErMin=18 ErrMin= 9.56D-07
 ErrMax= 9.56D-07  0.00D+00 EMaxC= 1.00D-01 BMatC= 1.06D-08 BMatP= 4.89D-08
 IDIUse=1 WtCom= 1.00D+00 WtEn= 0.00D+00
 Coeff-Com:  0.215D-04-0.303D-04-0.975D-05 0.161D-05-0.419D-05 0.185D-04
 Coeff-Com:  0.233D-03-0.480D-03-0.902D-03 0.170D-02 0.421D-02 0.480D-02
 Coeff-Com: -0.381D-02-0.302D-01-0.242D-01 0.463D-01 0.306D+00 0.697D+00
 Coeff:      0.215D-04-0.303D-04-0.975D-05 0.161D-05-0.419D-05 0.185D-04
 Coeff:      0.233D-03-0.480D-03-0.902D-03 0.170D-02 0.421D-02 0.480D-02
 Coeff:     -0.381D-02-0.302D-01-0.242D-01 0.463D-01 0.306D+00 0.697D+00
 Gap=     0.103 Goal=   None    Shift=    0.000
 Gap=     0.103 Goal=   None    Shift=    0.000
 RMSDP=6.43D-07 MaxDP=9.22D-05 DE=-2.71D-08 OVMax= 7.48D-05

 Cycle  19  Pass 1  IDiag  1:
 RMSU=  4.05D-07    CP:  6.66D-01  2.49D+00  5.95D-01  3.88D-01  6.44D-01
                    CP:  5.60D-01  9.57D-01  1.04D+00  1.41D+00  1.18D+00
                    CP:  9.24D-01  1.06D+00  1.67D+00  1.70D+00  1.23D+00
                    CP:  9.03D-01  1.04D+00  1.16D+00
 E= -3531.40398111140     Delta-E=       -0.000000004956 Rises=F Damp=F
 DIIS: error= 5.84D-07 at cycle  19 NSaved=  19.
 NSaved=19 IEnMin=19 EnMin= -3531.40398111140     IErMin=19 ErrMin= 5.84D-07
 ErrMax= 5.84D-07  0.00D+00 EMaxC= 1.00D-01 BMatC= 3.62D-09 BMatP= 1.06D-08
 IDIUse=1 WtCom= 1.00D+00 WtEn= 0.00D+00
 Coeff-Com: -0.100D-04 0.760D-05 0.280D-05 0.415D-06-0.664D-05 0.347D-04
 Coeff-Com:  0.824D-04 0.282D-04-0.338D-03-0.511D-03 0.409D-03 0.178D-02
 Coeff-Com:  0.132D-01 0.188D-02-0.366D-01-0.689D-01-0.704D-01 0.340D+00
 Coeff-Com:  0.819D+00
 Coeff:     -0.100D-04 0.760D-05 0.280D-05 0.415D-06-0.664D-05 0.347D-04
 Coeff:      0.824D-04 0.282D-04-0.338D-03-0.511D-03 0.409D-03 0.178D-02
 Coeff:      0.132D-01 0.188D-02-0.366D-01-0.689D-01-0.704D-01 0.340D+00
 Coeff:      0.819D+00
 Gap=     0.103 Goal=   None    Shift=    0.000
 Gap=     0.103 Goal=   None    Shift=    0.000
 RMSDP=4.42D-07 MaxDP=9.94D-05 DE=-4.96D-09 OVMax= 3.30D-05

 Cycle  20  Pass 1  IDiag  1:
[...]
    23   Atom        0.001634     -0.000528     -0.001106
    24   Atom        0.002267      0.001853     -0.004120
    25   Atom        0.002284     -0.009221      0.006937
    26   Atom        0.011089     -0.006554     -0.004535
    27   Atom        0.001493     -0.000978     -0.000516
    28   Atom        0.003965     -0.000818     -0.003147
    29   Atom       -0.001881      0.002842     -0.000961
    30   Atom       -0.000422      0.003295     -0.002872
    31   Atom       -0.004617      0.012602     -0.007984
    32   Atom       -0.006317      0.012335     -0.006018
    33   Atom       -0.018024      0.035446     -0.017422
    34   Atom       -0.005020      0.011207     -0.006187
    35   Atom       -0.005803      0.004071      0.001732
    36   Atom       -0.017842      0.003612      0.014230
    37   Atom       -0.006821      0.000669      0.006152
    38   Atom        0.011232     -0.007272     -0.003960
    39   Atom        0.004095     -0.005484      0.001389
    40   Atom        0.005854     -0.002628     -0.003226
    41   Atom        0.002598     -0.000019     -0.002580
    42   Atom        0.006850     -0.002613     -0.004237
    43   Atom        0.003592     -0.001986     -0.001606
    44   Atom        0.001458      0.000663     -0.002121
    45   Atom        0.000493     -0.000206     -0.000287
    46   Atom        0.002429      0.002856     -0.005285
 --------------------------------------------------------
                        XY            XZ            YZ
 --------------------------------------------------------
     1   Atom       -0.009115      0.005117     -0.004022
     2   Atom       -0.016700      0.014955     -0.006099
     3   Atom       -0.005000      0.017296     -0.001358
     4   Atom       -0.000958      0.008765     -0.000853
     5   Atom       -0.002452      0.005279     -0.001194
     6   Atom       -0.003567      0.003896     -0.002023
     7   Atom       -0.064580     -0.008270      0.003162
     8   Atom       -0.010616     -0.025845      0.006375
     9   Atom       -0.006586     -0.004844      0.004004
    10   Atom       -0.005362     -0.002481      0.004003
    11   Atom       -0.008859     -0.003553      0.006481
    12   Atom       -0.007948     -0.003411      0.018010
    13   Atom       -0.000885     -0.000025      0.016142
    14   Atom        0.200615     -0.194169      0.081122
    15   Atom       -0.032622     -0.090792      0.024316
    16   Atom        0.062921      0.307477     -0.032077
    17   Atom        0.002917     -0.000397      0.004658
    18   Atom        0.047998      0.051431      0.076710
    19   Atom        0.099875     -0.117849     -0.232473
    20   Atom        0.009737      0.026482      0.006072
    21   Atom        0.001421      0.007840      0.001207
    22   Atom       -0.001081      0.003301     -0.000806
    23   Atom       -0.002640      0.002141     -0.001469
    24   Atom       -0.006645      0.001450     -0.001432
    25   Atom       -0.006961     -0.014561      0.006297
    26   Atom       -0.000984     -0.006605      0.000818
    27   Atom       -0.003289     -0.003576      0.002261
    28   Atom       -0.004937     -0.001821      0.001178
    29   Atom       -0.003841     -0.002676      0.004751
    30   Atom       -0.004349     -0.001251      0.001834
    31   Atom       -0.010314      0.000370     -0.001559
    32   Atom        0.000606     -0.000207     -0.000393
    33   Atom        0.011345     -0.001357     -0.001584
    34   Atom        0.006311      0.001602      0.004484
    35   Atom        0.001697      0.001855      0.009323
    36   Atom        0.002223      0.005701      0.030419
    37   Atom       -0.002936     -0.003329      0.011382
    38   Atom        0.004793     -0.010108     -0.002099
    39   Atom       -0.000814     -0.002543      0.003239
    40   Atom        0.004392     -0.004022     -0.001577
    41   Atom        0.005713     -0.004225     -0.003052
    42   Atom        0.004208     -0.001676     -0.000511
    43   Atom        0.002238     -0.002920     -0.000986
    44   Atom        0.003936     -0.001975     -0.001681
    45   Atom        0.004171     -0.004249     -0.003772
    46   Atom        0.010046     -0.005242     -0.004658
 --------------------------------------------------------


 ---------------------------------------------------------------------------------
              Anisotropic Spin Dipole Couplings in Principal Axis System
 ---------------------------------------------------------------------------------

       Atom             a.u.   MegaHertz   Gauss  10(-4) cm-1        Axes

              Baa    -0.0072    -0.962    -0.343    -0.321  0.6590  0.7388 -0.1410
     1 C(13)  Bbb    -0.0067    -0.893    -0.319    -0.298 -0.1661  0.3257  0.9307
              Bcc     0.0138     1.855     0.662     0.619  0.7336 -0.5899  0.3374
 
              Baa    -0.0201    -2.692    -0.961    -0.898  0.4442  0.8929 -0.0733
     2 C(13)  Bbb    -0.0111    -1.492    -0.533    -0.498 -0.3471  0.2469  0.9047
              Bcc     0.0312     4.185     1.493     1.396  0.8259 -0.3764  0.4197
 
              Baa    -0.0159    -2.139    -0.763    -0.713  0.3759  0.7034 -0.6032
     3 C(13)  Bbb    -0.0141    -1.890    -0.675    -0.631 -0.2312  0.7016  0.6740
              Bcc     0.0300     4.029     1.438     1.344  0.8974 -0.1140  0.4264
 
              Baa    -0.0067    -0.905    -0.323    -0.302 -0.1617  0.9199  0.3572
     4 C(13)  Bbb    -0.0062    -0.833    -0.297    -0.278 -0.5248 -0.3867  0.7583
              Bcc     0.0130     1.738     0.620     0.580  0.8357 -0.0648  0.5453
 
              Baa    -0.0044    -0.587    -0.210    -0.196 -0.6000 -0.4679  0.6489
     5 C(13)  Bbb    -0.0033    -0.447    -0.159    -0.149 -0.1004  0.8488  0.5192
              Bcc     0.0077     1.034     0.369     0.345  0.7937 -0.2463  0.5562
 
              Baa    -0.0040    -0.532    -0.190    -0.177  0.1707  0.8718  0.4592
     6 C(13)  Bbb    -0.0036    -0.481    -0.172    -0.160 -0.5560 -0.2996  0.7754
              Bcc     0.0075     1.013     0.361     0.338  0.8135 -0.3877  0.4335
 
              Baa    -0.0488    -6.547    -2.336    -2.184  0.6200  0.7545  0.2152
     7 C(13)  Bbb    -0.0360    -4.837    -1.726    -1.613 -0.0812 -0.2111  0.9741
              Bcc     0.0848    11.384     4.062     3.797  0.7804 -0.6214 -0.0696
 
              Baa    -0.0201    -2.696    -0.962    -0.899  0.5466  0.6718  0.4999
     8 C(13)  Bbb    -0.0180    -2.418    -0.863    -0.806 -0.2711  0.7068 -0.6534
              Bcc     0.0381     5.113     1.825     1.706  0.7923 -0.2216 -0.5685
 
              Baa    -0.0071    -0.955    -0.341    -0.318  0.3338 -0.1720  0.9268
     9 C(13)  Bbb    -0.0043    -0.574    -0.205    -0.191  0.6384  0.7647 -0.0880
              Bcc     0.0114     1.528     0.545     0.510  0.6936 -0.6210 -0.3650
 
              Baa    -0.0054    -0.724    -0.258    -0.242  0.1530 -0.3010  0.9413
    10 C(13)  Bbb    -0.0041    -0.547    -0.195    -0.182  0.8508  0.5246  0.0294
              Bcc     0.0095     1.271     0.454     0.424 -0.5027  0.7964  0.3363
 
              Baa    -0.0203    -2.727    -0.973    -0.910  0.3171 -0.0657  0.9461
    11 C(13)  Bbb    -0.0127    -1.702    -0.607    -0.568  0.9263  0.2356 -0.2941
              Bcc     0.0330     4.428     1.580     1.477 -0.2036  0.9696  0.1356
 
              Baa    -0.0183    -2.457    -0.877    -0.819  0.0991 -0.3587  0.9282
    12 C(13)  Bbb    -0.0166    -2.227    -0.795    -0.743  0.9804  0.1949 -0.0294
              Bcc     0.0349     4.684     1.671     1.562 -0.1703  0.9129  0.3709
 
              Baa    -0.0114    -1.529    -0.546    -0.510 -0.4642 -0.5983  0.6532
    13 C(13)  Bbb    -0.0100    -1.342    -0.479    -0.448  0.8855 -0.2957  0.3585
              Bcc     0.0214     2.871     1.025     0.958 -0.0213  0.7448  0.6670
 
              Baa    -0.3885    28.112    10.031     9.377 -0.5736  0.7701 -0.2791
    14 O(17)  Bbb     0.0491    -3.551    -1.267    -1.185  0.6551  0.6358  0.4081
              Bcc     0.3394   -24.561    -8.764    -8.193 -0.4918 -0.0513  0.8692
 
              Baa    -0.0854    -1.478    -0.528    -0.493  0.1954  0.9792 -0.0550
    15 Fe(57) Bbb    -0.0528    -0.915    -0.326    -0.305  0.6354 -0.0836  0.7676
              Bcc     0.1382     2.393     0.854     0.798  0.7470 -0.1849 -0.6386
 
              Baa    -0.2692   -14.091    -5.028    -4.700  0.6087 -0.5131 -0.6051
    16 Cl(35) Bbb    -0.1178    -6.166    -2.200    -2.057  0.3282  0.8573 -0.3967
              Bcc     0.3870    20.257     7.228     6.757  0.7223  0.0429  0.6903
 
              Baa    -0.0111    -1.487    -0.530    -0.496  0.6327 -0.1755  0.7542
    17 C(13)  Bbb    -0.0094    -1.257    -0.449    -0.419  0.7688  0.0255 -0.6390
              Bcc     0.0204     2.744     0.979     0.915  0.0929  0.9842  0.1510
 
              Baa    -0.1974   -10.334    -3.687    -3.447  0.9430 -0.0459 -0.3295
    18 Cl(35) Bbb    -0.0670    -3.509    -1.252    -1.170  0.3049 -0.2771  0.9112
              Bcc     0.2645    13.842     4.939     4.617  0.1331  0.9598  0.2473
 
              Baa    -0.2076   -10.865    -3.877    -3.624 -0.4549  0.8151  0.3588
    19 Cl(35) Bbb    -0.1586    -8.300    -2.962    -2.768  0.8386  0.2565  0.4806
              Bcc     0.3662    19.165     6.839     6.393 -0.2997 -0.5195  0.8002
 
              Baa    -0.0286   -15.254    -5.443    -5.088 -0.1909 -0.6460  0.7390
    20 H(1)   Bbb    -0.0244   -13.000    -4.639    -4.336 -0.3416  0.7496  0.5670
              Bcc     0.0530    28.255    10.082     9.425  0.9203  0.1442  0.3638
 
              Baa    -0.0055    -2.940    -1.049    -0.981 -0.5433 -0.3685  0.7544
    21 H(1)   Bbb    -0.0053    -2.842    -1.014    -0.948 -0.3148  0.9224  0.2238
              Bcc     0.0108     5.783     2.063     1.929  0.7783  0.1159  0.6171
 
              Baa    -0.0024    -1.272    -0.454    -0.424  0.5935  0.5456 -0.5917
    22 H(1)   Bbb    -0.0023    -1.246    -0.445    -0.416 -0.2121  0.8152  0.5390
              Bcc     0.0047     2.518     0.899     0.840  0.7764 -0.1944  0.5995
 
              Baa    -0.0023    -1.237    -0.442    -0.413  0.2142  0.7885  0.5766
    23 H(1)   Bbb    -0.0023    -1.211    -0.432    -0.404 -0.6201 -0.3463  0.7040
              Bcc     0.0046     2.448     0.874     0.817  0.7547 -0.5084  0.4148
 
              Baa    -0.0046    -2.449    -0.874    -0.817  0.6776  0.7255  0.1204
    24 H(1)   Bbb    -0.0044    -2.365    -0.844    -0.789 -0.1940  0.0183  0.9808
              Bcc     0.0090     4.815     1.718     1.606  0.7094 -0.6879  0.1532
 
              Baa    -0.0125    -6.693    -2.388    -2.233  0.4942  0.8647  0.0899
    25 H(1)   Bbb    -0.0096    -5.111    -1.824    -1.705  0.5990 -0.4136  0.6857
              Bcc     0.0221    11.804     4.212     3.938 -0.6301  0.2850  0.7223
 
              Baa    -0.0072    -0.973    -0.347    -0.324  0.2523 -0.5663  0.7846
    26 C(13)  Bbb    -0.0063    -0.850    -0.303    -0.283  0.2419  0.8220  0.5155
              Bcc     0.0136     1.822     0.650     0.608  0.9369 -0.0598 -0.3443
 
              Baa    -0.0034    -1.788    -0.638    -0.597  0.7053  0.5409  0.4582
    27 H(1)   Bbb    -0.0030    -1.609    -0.574    -0.537  0.0645 -0.6926  0.7184
              Bcc     0.0064     3.398     1.212     1.133  0.7059 -0.4772 -0.5234
 
              Baa    -0.0039    -2.089    -0.745    -0.697  0.5134  0.8532 -0.0917
    28 H(1)   Bbb    -0.0036    -1.913    -0.683    -0.638  0.2181 -0.0263  0.9756
              Bcc     0.0075     4.002     1.428     1.335  0.8300 -0.5209 -0.1996
 
              Baa    -0.0042    -2.240    -0.799    -0.747  0.3226 -0.4022  0.8568
    29 H(1)   Bbb    -0.0040    -2.149    -0.767    -0.717  0.8481  0.5247 -0.0730
              Bcc     0.0082     4.389     1.566     1.464 -0.4203  0.7502  0.5104
 
              Baa    -0.0034    -1.813    -0.647    -0.605  0.3694 -0.0145  0.9292
    30 H(1)   Bbb    -0.0033    -1.752    -0.625    -0.584  0.7582  0.5828 -0.2923
              Bcc     0.0067     3.565     1.272     1.189 -0.5373  0.8125  0.2263
 
              Baa    -0.0095    -5.077    -1.812    -1.694  0.8780  0.4249  0.2204
    31 H(1)   Bbb    -0.0080    -4.272    -1.524    -1.425 -0.2254 -0.0392  0.9735
              Bcc     0.0175     9.350     3.336     3.119 -0.4223  0.9044 -0.0614
 
              Baa    -0.0064    -3.431    -1.224    -1.144  0.9009 -0.0200  0.4335
    32 H(1)   Bbb    -0.0059    -3.165    -1.130    -1.056 -0.4328  0.0338  0.9009
              Bcc     0.0124     6.596     2.354     2.200  0.0327  0.9992 -0.0218
 
              Baa    -0.0207   -11.020    -3.932    -3.676  0.9354 -0.1806  0.3041
    33 H(1)   Bbb    -0.0172    -9.155    -3.267    -3.054 -0.2919  0.0916  0.9521
              Bcc     0.0378    20.175     7.199     6.730  0.1998  0.9793 -0.0330
 
              Baa    -0.0073    -3.901    -1.392    -1.301 -0.4657 -0.0551  0.8832
    34 H(1)   Bbb    -0.0072    -3.819    -1.363    -1.274  0.8263 -0.3844  0.4117
              Bcc     0.0145     7.720     2.755     2.575  0.3168  0.9215  0.2246
 
              Baa    -0.0066    -3.542    -1.264    -1.181 -0.4688 -0.5366  0.7016
    35 H(1)   Bbb    -0.0060    -3.201    -1.142    -1.068  0.8730 -0.4023  0.2757
              Bcc     0.0126     6.742     2.406     2.249  0.1344  0.7418  0.6571
 
              Baa    -0.0228   -12.179    -4.346    -4.063  0.4040  0.6756 -0.6167
    36 H(1)   Bbb    -0.0176    -9.364    -3.341    -3.123  0.9094 -0.3697  0.1907
              Bcc     0.0404    21.543     7.687     7.186  0.0991  0.6379  0.7637
 
              Baa    -0.0084    -4.472    -1.596    -1.492  0.3219  0.7798 -0.5370
    37 H(1)   Bbb    -0.0076    -4.055    -1.447    -1.352  0.9274 -0.1453  0.3448
              Bcc     0.0160     8.526     3.042     2.844 -0.1908  0.6090  0.7699
 
              Baa    -0.0091     0.659     0.235     0.220  0.4815 -0.3299  0.8120
    38 O(17)  Bbb    -0.0083     0.600     0.214     0.200 -0.0248  0.9210  0.3888
              Bcc     0.0174    -1.258    -0.449    -0.420  0.8761  0.2073 -0.4352
 
              Baa    -0.0068     0.490     0.175     0.163 -0.0179  0.9274 -0.3736
    39 O(17)  Bbb     0.0006    -0.046    -0.016    -0.015  0.6089  0.3065  0.7316
              Bcc     0.0061    -0.445    -0.159    -0.148  0.7930 -0.2144 -0.5702
 
              Baa    -0.0048    -0.640    -0.228    -0.214  0.4259 -0.2287  0.8754
    40 C(13)  Bbb    -0.0044    -0.597    -0.213    -0.199 -0.2459  0.9019  0.3552
              Bcc     0.0092     1.237     0.441     0.413  0.8707  0.3665 -0.3279
 
              Baa    -0.0050    -0.667    -0.238    -0.222  0.5765 -0.1730  0.7986
    41 C(13)  Bbb    -0.0044    -0.596    -0.213    -0.199 -0.3832  0.8060  0.4512
              Bcc     0.0094     1.263     0.451     0.421  0.7217  0.5661 -0.3984
 
              Baa    -0.0045    -2.411    -0.860    -0.804  0.2441 -0.2911  0.9250
    42 H(1)   Bbb    -0.0042    -2.224    -0.794    -0.742 -0.2858  0.8899  0.3554
              Bcc     0.0087     4.635     1.654     1.546  0.9267  0.3511 -0.1340
 
              Baa    -0.0029    -1.557    -0.555    -0.519  0.4346 -0.0957  0.8955
    43 H(1)   Bbb    -0.0028    -1.475    -0.526    -0.492 -0.2349  0.9479  0.2152
              Bcc     0.0057     3.032     1.082     1.011  0.8695  0.3039 -0.3895
 
              Baa    -0.0030    -1.606    -0.573    -0.536  0.5553 -0.2292  0.7995
    44 H(1)   Bbb    -0.0028    -1.520    -0.542    -0.507 -0.4375  0.7371  0.5151
              Bcc     0.0059     3.126     1.115     1.043  0.7073  0.6358 -0.3090
 
              Baa    -0.0042    -2.223    -0.793    -0.741  0.7173 -0.0987  0.6897
    45 H(1)   Bbb    -0.0040    -2.127    -0.759    -0.710 -0.3299  0.8238  0.4610
              Bcc     0.0082     4.350     1.552     1.451  0.6137  0.5582 -0.5584
 
              Baa    -0.0080    -4.284    -1.529    -1.429  0.6052 -0.2328  0.7612
    46 H(1)   Bbb    -0.0071    -3.769    -1.345    -1.257 -0.4351  0.7041  0.5612
              Bcc     0.0151     8.053     2.874     2.686  0.6666  0.6709 -0.3248
 

 ---------------------------------------------------------------------------------

 No NMR shielding tensors so no spin-rotation constants.
 Leave Link  601 at Sun Jun 20 07:07:00 2021, MaxMem=  2147483648 cpu:              84.5 elap:               5.4
 (Enter /SFS/product/gaussian/g16.a03/x86_64/avx/g16/l9999.exe)
 1\1\GINC-KTCHPCPX020\SP\UB3LYP\Jul-CC-pVDZ\C17H22Cl3Fe1O3(6)\KWANEU\20
 -Jun-2021\0\\#p ub3lyp jul-cc-pvdz pop=cm5 scrf=(pcm,solvent=water) gu
 ess=read geom=allcheck\\title\\0,6\C,0,2.2362138508,-1.7620681321,1.47
 35882568\C,0,1.3955011638,-0.7453199522,0.9891640953\C,0,1.3436988823,
 0.4624340491,1.7042737901\C,0,2.0963228179,0.6422982892,2.8667769382\C
 ,0,2.9208886986,-0.3795479501,3.3417227715\C,0,2.9891506133,-1.5834831
 626,2.6364837424\C,0,0.5953917502,-0.8447765503,-0.3256324604\C,0,1.51
 62310003,-0.6141457555,-1.5910666694\C,0,2.2729686929,-1.9125830271,-1
 .8256531818\C,0,1.2458755946,-3.0280622424,-1.5575465509\C,0,0.1855261
 021,-2.4810555944,-0.5368369489\C,0,-1.183437703,-2.7106118288,-0.9818
 801929\C,0,-1.6752495568,-2.2066535387,-2.2608204103\O,0,-0.4485289385
 ,0.0249232918,-0.3599874304\Fe,0,-1.970232278,0.7108214996,0.474487608
 5\Cl,0,-3.627611337,0.4275289361,-1.0328940926\C,0,-2.1485091401,-3.29
 76921339,-0.0458302089\Cl,0,-1.675177612,2.8337168927,1.0193407175\Cl,
 0,-2.419558861,-0.5900387081,2.2503508608\H,0,0.7143913156,1.275500857
 1,1.3497207282\H,0,2.0279230898,1.5889761497,3.4043535056\H,0,3.503817
 7258,-0.2413580806,4.2533910589\H,0,3.6289099751,-2.3926741645,2.99156
 59615\H,0,2.322793019,-2.7179768255,0.9590238399\H,0,0.8181064248,-0.4
 016121837,-2.4123124974\C,0,2.4287719615,0.5982717063,-1.4495408704\H,
 0,2.6777507457,-1.9727331719,-2.8440637353\H,0,3.1249534936,-1.9711178
 28,-1.1392153351\H,0,0.7566624854,-3.3273635037,-2.4928723866\H,0,1.70
 80358636,-3.9354224384,-1.1475927263\H,0,0.3090445769,-2.9369941605,0.
 4469233542\H,0,-1.7103602948,-4.1144710916,0.5435900026\H,0,-2.3562709
 705,-2.4881935395,0.7003586767\H,0,-3.0967606084,-3.589676518,-0.50798
 34746\H,0,-2.4348195233,-2.85891477,-2.7110142903\H,0,-2.2334671045,-1
 .2746352402,-1.9688430922\H,0,-0.9025110018,-1.9221814423,-2.978672090
 5\O,0,1.753042055,1.7388850546,-1.6530564062\O,0,3.6146191435,0.537870
 0161,-1.1984869157\C,0,2.4991862557,2.9770665461,-1.4851180161\C,0,1.5
 31492512,4.122907615,-1.6996777544\H,0,2.9331952513,2.9797536243,-0.47
 63140898\H,0,3.3254595395,2.9817404275,-2.2094485216\H,0,2.0624419868,
 5.0765796663,-1.5660702475\H,0,1.1126015322,4.0998782232,-2.7152966118
 \H,0,0.7039038102,4.07802969,-0.9791197003\\Version=ES64L-G16RevA.03\S
 tate=6-A\HF=-3531.438354\S2=8.761544\S2-1=0.\S2A=8.750042\RMSD=2.687e-
 09\Dipole=1.8291078,-4.8624276,-2.382838\Quadrupole=-23.4974276,21.166
 4964,2.3309312,13.7442173,9.2502432,5.9233206\PG=C01 [X(C17H22Cl3Fe1O3
 )]\\@


 THE ENLIGHTENED ONE, BECAUSE HE SAW MANKIND DROWNING  
 IN THE GREAT SEA OF BIRTH, DEATH, AND SORROW, LONGED TO SAVE 
 THEM, FOR THIS HE WAS MOVED TO PITY.                         
 BECAUSE HE SAW MEN OF THE WORLD STRAYING IN FALSE PATHS, AND 
 NONE TO GUIDE THEM, FOR THIS HE WAS MOVED TO PITY.           
                     ..................                       
 BECAUSE HE SAW THE MEN OF THE WORLD PLOUGHING THEIR FIELDS,  
 SOWING THE SEED, TRAFFICKING, HUCKSTERING, BUYING, SELLING,  
 AND AT THE END WINNOWING NOTHING BUT BITTERNESS,             
 FOR THIS HE WAS MOVED TO PITY......                   
                   BUDAH'S PITY - UPSAKA SILA SUTRA           
 Job cpu time:       0 days  4 hours 54 minutes 35.4 seconds.
 Elapsed time:       0 days  0 hours 18 minutes 29.6 seconds.
 File lengths (MBytes):  RWF=    665 Int=      0 D2E=      0 Chk=     57 Scr=      1
 Normal termination of Gaussian 16 at Sun Jun 20 07:07:01 2021.
