 Entering Gaussian System, Link 0=g16
 Input=prenyl-first_betaine_grid-CC_190_CO_270-b3lyp_d3bj-juldz-gas.gjf
 Output=prenyl-first_betaine_grid-CC_190_CO_270-b3lyp_d3bj-juldz-gas.out
 Initial command:
 /SFS/product/gaussian/g16.a03/x86_64/avx/g16/l1.exe "/scratch/kwaneu.2874264.bmbhpcps002/Gau-50697.inp" -scrdir="/scratch/kwaneu.2874264.bmbhpcps002/"
 Entering Link 1 = /SFS/product/gaussian/g16.a03/x86_64/avx/g16/l1.exe PID=     50698.
  
 Copyright (c) 1988,1990,1992,1993,1995,1998,2003,2009,2016,
            Gaussian, Inc.  All Rights Reserved.
  
 This is part of the Gaussian(R) 16 program.  It is based on
 the Gaussian(R) 09 system (copyright 2009, Gaussian, Inc.),
 the Gaussian(R) 03 system (copyright 2003, Gaussian, Inc.),
 the Gaussian(R) 98 system (copyright 1998, Gaussian, Inc.),
 the Gaussian(R) 94 system (copyright 1995, Gaussian, Inc.),
 the Gaussian 92(TM) system (copyright 1992, Gaussian, Inc.),
 the Gaussian 90(TM) system (copyright 1990, Gaussian, Inc.),
 the Gaussian 88(TM) system (copyright 1988, Gaussian, Inc.),
 the Gaussian 86(TM) system (copyright 1986, Carnegie Mellon
 University), and the Gaussian 82(TM) system (copyright 1983,
 Carnegie Mellon University). Gaussian is a federally registered
 trademark of Gaussian, Inc.
  
 This software contains proprietary and confidential information,
 including trade secrets, belonging to Gaussian, Inc.
  
 This software is provided under written license and may be
 used, copied, transmitted, or stored only in accord with that
 written license.
  
 The following legend is applicable only to US Government
 contracts under FAR:
  
                    RESTRICTED RIGHTS LEGEND
  
 Use, reproduction and disclosure by the US Government is
 subject to restrictions as set forth in subparagraphs (a)
 and (c) of the Commercial Computer Software - Restricted
 Rights clause in FAR 52.227-19.
  
 Gaussian, Inc.
 340 Quinnipiac St., Bldg. 40, Wallingford CT 06492
  
  
 ---------------------------------------------------------------
 Warning -- This program may not be used in any manner that
 competes with the business of Gaussian, Inc. or will provide
 assistance to any competitor of Gaussian, Inc.  The licensee
 of this program is prohibited from giving any competitor of
 Gaussian, Inc. access to this program.  By using this program,
 the user acknowledges that Gaussian, Inc. is engaged in the
 business of creating and licensing software in the field of
 computational chemistry and represents and warrants to the
 licensee that it is not a competitor of Gaussian, Inc. and that
 it will not use this program in any manner prohibited above.
 ---------------------------------------------------------------
  

 Cite this work as:
 Gaussian 16, Revision A.03,
 M. J. Frisch, G. W. Trucks, H. B. Schlegel, G. E. Scuseria, 
 M. A. Robb, J. R. Cheeseman, G. Scalmani, V. Barone, 
 G. A. Petersson, H. Nakatsuji, X. Li, M. Caricato, A. V. Marenich, 
 J. Bloino, B. G. Janesko, R. Gomperts, B. Mennucci, H. P. Hratchian, 
 J. V. Ortiz, A. F. Izmaylov, J. L. Sonnenberg, D. Williams-Young, 
 F. Ding, F. Lipparini, F. Egidi, J. Goings, B. Peng, A. Petrone, 
 T. Henderson, D. Ranasinghe, V. G. Zakrzewski, J. Gao, N. Rega, 
 G. Zheng, W. Liang, M. Hada, M. Ehara, K. Toyota, R. Fukuda, 
 J. Hasegawa, M. Ishida, T. Nakajima, Y. Honda, O. Kitao, H. Nakai, 
 T. Vreven, K. Throssell, J. A. Montgomery, Jr., J. E. Peralta, 
 F. Ogliaro, M. J. Bearpark, J. J. Heyd, E. N. Brothers, K. N. Kudin, 
 V. N. Staroverov, T. A. Keith, R. Kobayashi, J. Normand, 
 K. Raghavachari, A. P. Rendell, J. C. Burant, S. S. Iyengar, 
 J. Tomasi, M. Cossi, J. M. Millam, M. Klene, C. Adamo, R. Cammi, 
 J. W. Ochterski, R. L. Martin, K. Morokuma, O. Farkas, 
 J. B. Foresman, and D. J. Fox, Gaussian, Inc., Wallingford CT, 2016.
 
 ******************************************
 Gaussian 16:  ES64L-G16RevA.03 25-Dec-2016
                19-Jun-2021 
 ******************************************
 %chk=checkpoint.chk
 %nprocshared=16
 Will use up to   16 processors via shared memory.
 %mem=16GB
 -----------------------------------------------------------
 #p opt=modredundant freq=noraman ub3lyp jul-cc-pvdz pop=cm5
 -----------------------------------------------------------
 1/18=120,19=15,26=3,38=1/1,3;
 2/9=110,12=2,17=6,18=5,40=1/2;
 3/5=16,7=50,11=2,25=1,30=1,71=1,74=-5,116=2/1,2,3;
 4//1;
 5/5=2,38=5/2;
 6/7=2,8=2,9=2,10=2,28=1,79=1/1;
 7//1,2,3,16;
 1/18=20,19=15,26=3/3(2);
 2/9=110/2;
 99//99;
 2/9=110/2;
 3/5=16,7=50,11=2,25=1,30=1,71=1,74=-5,116=2/1,2,3;
 4/5=5,16=3,69=1/1;
 5/5=2,38=5/2;
 7//1,2,3,16;
 1/18=20,19=15,26=3/3(-5);
 2/9=110/2;
 6/7=2,8=2,9=2,10=2,19=2,28=1,79=1/1;
 99/9=1/99;
 Leave Link    1 at Sat Jun 19 21:34:47 2021, MaxMem=  2147483648 cpu:               1.4 elap:               0.1
 (Enter /SFS/product/gaussian/g16.a03/x86_64/avx/g16/l101.exe)
 -----
 title
 -----
 Symbolic Z-matrix:
 Charge =  0 Multiplicity = 6
 6                     2.99532  -0.85327   0.32648 
 6                     1.63206  -0.71952   0.64588 
 6                     1.26781  -0.53915   1.98843 
 6                     2.24098  -0.49805   2.98787 
 6                     3.58936  -0.6399    2.66258 
 6                     3.96348  -0.81276   1.32658 
 6                     0.54749  -0.74499  -0.41494 
 6                     0.78503   0.07572  -1.7529 
 6                     1.12106  -0.84226  -2.92995 
 6                     0.34764  -2.12954  -2.64599 
 6                     0.70222  -2.46445  -1.20836 
 6                    -0.08678  -3.23098  -0.34701 
 6                    -1.54335  -3.37639  -0.52716 
 8                    -0.67775  -0.6273    0.05498 
 26                   -2.13008   0.55665   0.3376 
 17                   -2.63264   1.55607  -1.57021 
 6                     0.49611  -3.78245   0.90861 
 17                   -1.59746   1.96445   1.94614 
 17                   -3.76667  -0.79832   0.97469 
 1                     0.22443  -0.39852   2.24134 
 1                     1.93922  -0.34633   4.02025 
 1                     4.3469   -0.60766   3.44076 
 1                     5.01221  -0.91083   1.06079 
 1                     3.31246  -0.96638  -0.70526 
 1                    -0.1907    0.53501  -1.93468 
 6                     1.78498   1.21667  -1.58108 
 1                     0.8403   -0.38052  -3.88115 
 1                     2.19951  -1.0311   -2.97017 
 1                    -0.72761  -1.95981  -2.76224 
 1                     0.63376  -2.9478   -3.31761 
 1                     1.77147  -2.61592  -1.0715 
 1                     1.5751   -3.64177   0.98311 
 1                     0.01443  -3.29354   1.76962 
 1                     0.25917  -4.85097   0.99202 
 1                    -1.95762  -4.20701   0.04955 
 1                    -1.99567  -2.44748  -0.12675 
 1                    -1.85132  -3.44779  -1.57277 
 8                     1.26947   2.17515  -0.80289 
 8                     2.88565   1.25509  -2.0918 
 6                     2.11496   3.32392  -0.52654 
 6                     1.27951   4.33107   0.23833 
 1                     2.97979   2.97651   0.04826 
 1                     2.47991   3.7192   -1.479 
 1                     1.89472   5.20294   0.48742 
 1                     0.42843   4.66691  -0.36173 
 1                     0.89206   3.89704   1.16445 
 
 The following ModRedundant input section has been read:
 B       7      11 F                                                           
 B      12      14 F                                                           
 
 ITRead=  0  0  0  0  0  0  0  0  0  0  0  0  0  0  0  0  0  0  0  0
 ITRead=  0  0  0  0  0  0  0  0  0  0  0  0  0  0  0  0  0  0  0  0
 ITRead=  0  0  0  0  0  0
 MicOpt= -1 -1 -1 -1 -1 -1 -1 -1 -1 -1 -1 -1 -1 -1 -1 -1 -1 -1 -1 -1
 MicOpt= -1 -1 -1 -1 -1 -1 -1 -1 -1 -1 -1 -1 -1 -1 -1 -1 -1 -1 -1 -1
 MicOpt= -1 -1 -1 -1 -1 -1
 NAtoms=     46 NQM=       46 NQMF=       0 NMMI=      0 NMMIF=      0
                NMic=       0 NMicF=      0.
                    Isotopes and Nuclear Properties:
 (Nuclear quadrupole moments (NQMom) in fm**2, nuclear magnetic moments (NMagM)
  in nuclear magnetons)

  Atom         1           2           3           4           5           6           7           8           9          10
 IAtWgt=          12          12          12          12          12          12          12          12          12          12
 AtmWgt=  12.0000000  12.0000000  12.0000000  12.0000000  12.0000000  12.0000000  12.0000000  12.0000000  12.0000000  12.0000000
 NucSpn=           0           0           0           0           0           0           0           0           0           0
 AtZEff=  -0.0000000  -0.0000000  -0.0000000  -0.0000000  -0.0000000  -0.0000000  -0.0000000  -0.0000000  -0.0000000  -0.0000000
 NQMom=    0.0000000   0.0000000   0.0000000   0.0000000   0.0000000   0.0000000   0.0000000   0.0000000   0.0000000   0.0000000
 NMagM=    0.0000000   0.0000000   0.0000000   0.0000000   0.0000000   0.0000000   0.0000000   0.0000000   0.0000000   0.0000000
 AtZNuc=   6.0000000   6.0000000   6.0000000   6.0000000   6.0000000   6.0000000   6.0000000   6.0000000   6.0000000   6.0000000

  Atom        11          12          13          14          15          16          17          18          19          20
 IAtWgt=          12          12          12          16          56          35          12          35          35           1
 AtmWgt=  12.0000000  12.0000000  12.0000000  15.9949146  55.9349393  34.9688527  12.0000000  34.9688527  34.9688527   1.0078250
 NucSpn=           0           0           0           0           0           3           0           3           3           1
 AtZEff=  -0.0000000  -0.0000000  -0.0000000  -0.0000000  -0.0000000  -0.0000000  -0.0000000  -0.0000000  -0.0000000  -0.0000000
 NQMom=    0.0000000   0.0000000   0.0000000   0.0000000   0.0000000  -8.1650000   0.0000000  -8.1650000  -8.1650000   0.0000000
 NMagM=    0.0000000   0.0000000   0.0000000   0.0000000   0.0000000   0.8218740   0.0000000   0.8218740   0.8218740   2.7928460
 AtZNuc=   6.0000000   6.0000000   6.0000000   8.0000000  26.0000000  17.0000000   6.0000000  17.0000000  17.0000000   1.0000000

  Atom        21          22          23          24          25          26          27          28          29          30
 IAtWgt=           1           1           1           1           1          12           1           1           1           1
 AtmWgt=   1.0078250   1.0078250   1.0078250   1.0078250   1.0078250  12.0000000   1.0078250   1.0078250   1.0078250   1.0078250
 NucSpn=           1           1           1           1           1           0           1           1           1           1
 AtZEff=  -0.0000000  -0.0000000  -0.0000000  -0.0000000  -0.0000000  -0.0000000  -0.0000000  -0.0000000  -0.0000000  -0.0000000
 NQMom=    0.0000000   0.0000000   0.0000000   0.0000000   0.0000000   0.0000000   0.0000000   0.0000000   0.0000000   0.0000000
 NMagM=    2.7928460   2.7928460   2.7928460   2.7928460   2.7928460   0.0000000   2.7928460   2.7928460   2.7928460   2.7928460
 AtZNuc=   1.0000000   1.0000000   1.0000000   1.0000000   1.0000000   6.0000000   1.0000000   1.0000000   1.0000000   1.0000000

  Atom        31          32          33          34          35          36          37          38          39          40
 IAtWgt=           1           1           1           1           1           1           1          16          16          12
 AtmWgt=   1.0078250   1.0078250   1.0078250   1.0078250   1.0078250   1.0078250   1.0078250  15.9949146  15.9949146  12.0000000
 NucSpn=           1           1           1           1           1           1           1           0           0           0
 AtZEff=  -0.0000000  -0.0000000  -0.0000000  -0.0000000  -0.0000000  -0.0000000  -0.0000000  -0.0000000  -0.0000000  -0.0000000
 NQMom=    0.0000000   0.0000000   0.0000000   0.0000000   0.0000000   0.0000000   0.0000000   0.0000000   0.0000000   0.0000000
 NMagM=    2.7928460   2.7928460   2.7928460   2.7928460   2.7928460   2.7928460   2.7928460   0.0000000   0.0000000   0.0000000
 AtZNuc=   1.0000000   1.0000000   1.0000000   1.0000000   1.0000000   1.0000000   1.0000000   8.0000000   8.0000000   6.0000000

  Atom        41          42          43          44          45          46
 IAtWgt=          12           1           1           1           1           1
 AtmWgt=  12.0000000   1.0078250   1.0078250   1.0078250   1.0078250   1.0078250
 NucSpn=           0           1           1           1           1           1
 AtZEff=  -0.0000000  -0.0000000  -0.0000000  -0.0000000  -0.0000000  -0.0000000
 NQMom=    0.0000000   0.0000000   0.0000000   0.0000000   0.0000000   0.0000000
 NMagM=    0.0000000   2.7928460   2.7928460   2.7928460   2.7928460   2.7928460
 AtZNuc=   6.0000000   1.0000000   1.0000000   1.0000000   1.0000000   1.0000000
 Leave Link  101 at Sat Jun 19 21:34:48 2021, MaxMem=  2147483648 cpu:               5.4 elap:               0.4
 (Enter /SFS/product/gaussian/g16.a03/x86_64/avx/g16/l103.exe)

 GradGradGradGradGradGradGradGradGradGradGradGradGradGradGradGradGradGrad
 Berny optimization.
 Initialization pass.
                           ----------------------------
                           !    Initial Parameters    !
                           ! (Angstroms and Degrees)  !
 --------------------------                            --------------------------
 ! Name  Definition              Value          Derivative Info.                !
 --------------------------------------------------------------------------------
 ! R1    R(1,2)                  1.4066         estimate D2E/DX2                !
 ! R2    R(1,6)                  1.3925         estimate D2E/DX2                !
 ! R3    R(1,24)                 1.0853         estimate D2E/DX2                !
 ! R4    R(2,3)                  1.4027         estimate D2E/DX2                !
 ! R5    R(2,7)                  1.5173         estimate D2E/DX2                !
 ! R6    R(3,4)                  1.3956         estimate D2E/DX2                !
 ! R7    R(3,20)                 1.0828         estimate D2E/DX2                !
 ! R8    R(4,5)                  1.3943         estimate D2E/DX2                !
 ! R9    R(4,21)                 1.0862         estimate D2E/DX2                !
 ! R10   R(5,6)                  1.3981         estimate D2E/DX2                !
 ! R11   R(5,22)                 1.0865         estimate D2E/DX2                !
 ! R12   R(6,23)                 1.0863         estimate D2E/DX2                !
 ! R13   R(7,8)                  1.5875         estimate D2E/DX2                !
 ! R14   R(7,11)                 1.9            Frozen                          !
 ! R15   R(7,14)                 1.3175         estimate D2E/DX2                !
 ! R16   R(8,9)                  1.53           estimate D2E/DX2                !
 ! R17   R(8,25)                 1.0936         estimate D2E/DX2                !
 ! R18   R(8,26)                 1.5268         estimate D2E/DX2                !
 ! R19   R(9,10)                 1.5284         estimate D2E/DX2                !
 ! R20   R(9,27)                 1.094          estimate D2E/DX2                !
 ! R21   R(9,28)                 1.0956         estimate D2E/DX2                !
 ! R22   R(10,11)                1.5181         estimate D2E/DX2                !
 ! R23   R(10,29)                1.0947         estimate D2E/DX2                !
 ! R24   R(10,30)                1.0966         estimate D2E/DX2                !
 ! R25   R(11,12)                1.3971         estimate D2E/DX2                !
 ! R26   R(11,31)                1.0886         estimate D2E/DX2                !
 ! R27   R(12,13)                1.4749         estimate D2E/DX2                !
 ! R28   R(12,14)                2.7            Frozen                          !
 ! R29   R(12,17)                1.4901         estimate D2E/DX2                !
 ! R30   R(13,35)                1.0928         estimate D2E/DX2                !
 ! R31   R(13,36)                1.1081         estimate D2E/DX2                !
 ! R32   R(13,37)                1.0924         estimate D2E/DX2                !
 ! R33   R(14,15)                1.895          estimate D2E/DX2                !
 ! R34   R(15,16)                2.2116         estimate D2E/DX2                !
 ! R35   R(15,18)                2.203          estimate D2E/DX2                !
 ! R36   R(15,19)                2.2182         estimate D2E/DX2                !
 ! R37   R(17,32)                1.0907         estimate D2E/DX2                !
 ! R38   R(17,33)                1.1011         estimate D2E/DX2                !
 ! R39   R(17,34)                1.0976         estimate D2E/DX2                !
 ! R40   R(26,38)                1.3379         estimate D2E/DX2                !
 ! R41   R(26,39)                1.214          estimate D2E/DX2                !
 ! R42   R(38,40)                1.4529         estimate D2E/DX2                !
 ! R43   R(40,41)                1.5157         estimate D2E/DX2                !
 ! R44   R(40,42)                1.095          estimate D2E/DX2                !
 ! R45   R(40,43)                1.0939         estimate D2E/DX2                !
 ! R46   R(41,44)                1.0958         estimate D2E/DX2                !
 ! R47   R(41,45)                1.0942         estimate D2E/DX2                !
 ! R48   R(41,46)                1.0937         estimate D2E/DX2                !
 ! A1    A(2,1,6)              120.5306         estimate D2E/DX2                !
 ! A2    A(2,1,24)             120.5975         estimate D2E/DX2                !
 ! A3    A(6,1,24)             118.8565         estimate D2E/DX2                !
 ! A4    A(1,2,3)              118.7668         estimate D2E/DX2                !
 ! A5    A(1,2,7)              122.1702         estimate D2E/DX2                !
 ! A6    A(3,2,7)              119.0576         estimate D2E/DX2                !
 ! A7    A(2,3,4)              120.5395         estimate D2E/DX2                !
 ! A8    A(2,3,20)             119.3729         estimate D2E/DX2                !
 ! A9    A(4,3,20)             120.0566         estimate D2E/DX2                !
 ! A10   A(3,4,5)              120.2844         estimate D2E/DX2                !
 ! A11   A(3,4,21)             119.4092         estimate D2E/DX2                !
 ! A12   A(5,4,21)             120.3045         estimate D2E/DX2                !
 ! A13   A(4,5,6)              119.6229         estimate D2E/DX2                !
 ! A14   A(4,5,22)             120.2757         estimate D2E/DX2                !
 ! A15   A(6,5,22)             120.0992         estimate D2E/DX2                !
 ! A16   A(1,6,5)              120.2534         estimate D2E/DX2                !
 ! A17   A(1,6,23)             119.5276         estimate D2E/DX2                !
 ! A18   A(5,6,23)             120.2181         estimate D2E/DX2                !
 ! A19   A(2,7,8)              118.2688         estimate D2E/DX2                !
 ! A20   A(2,7,14)             114.4478         estimate D2E/DX2                !
 ! A21   A(8,7,14)             113.1771         estimate D2E/DX2                !
 ! A22   A(7,8,9)              111.7807         estimate D2E/DX2                !
 ! A23   A(7,8,25)             102.9268         estimate D2E/DX2                !
 ! A24   A(7,8,26)             112.9218         estimate D2E/DX2                !
 ! A25   A(9,8,25)             108.6656         estimate D2E/DX2                !
 ! A26   A(9,8,26)             113.0216         estimate D2E/DX2                !
 ! A27   A(25,8,26)            106.8094         estimate D2E/DX2                !
 ! A28   A(8,9,10)             104.5523         estimate D2E/DX2                !
 ! A29   A(8,9,27)             111.0563         estimate D2E/DX2                !
 ! A30   A(8,9,28)             110.3552         estimate D2E/DX2                !
 ! A31   A(10,9,27)            112.778          estimate D2E/DX2                !
 ! A32   A(10,9,28)            111.0861         estimate D2E/DX2                !
 ! A33   A(27,9,28)            107.0649         estimate D2E/DX2                !
 ! A34   A(9,10,11)            104.0965         estimate D2E/DX2                !
 ! A35   A(9,10,29)            110.2865         estimate D2E/DX2                !
 ! A36   A(9,10,30)            112.4986         estimate D2E/DX2                !
 ! A37   A(11,10,29)           111.3559         estimate D2E/DX2                !
 ! A38   A(11,10,30)           110.7591         estimate D2E/DX2                !
 ! A39   A(29,10,30)           107.8743         estimate D2E/DX2                !
 ! A40   A(10,11,12)           124.9571         estimate D2E/DX2                !
 ! A41   A(10,11,31)           112.2825         estimate D2E/DX2                !
 ! A42   A(12,11,31)           113.6312         estimate D2E/DX2                !
 ! A43   A(11,12,13)           122.4456         estimate D2E/DX2                !
 ! A44   A(11,12,17)           120.1079         estimate D2E/DX2                !
 ! A45   A(13,12,17)           116.9212         estimate D2E/DX2                !
 ! A46   A(12,13,35)           112.6357         estimate D2E/DX2                !
 ! A47   A(12,13,36)           106.043          estimate D2E/DX2                !
 ! A48   A(12,13,37)           113.691          estimate D2E/DX2                !
 ! A49   A(35,13,36)           106.9628         estimate D2E/DX2                !
 ! A50   A(35,13,37)           110.4016         estimate D2E/DX2                !
 ! A51   A(36,13,37)           106.5956         estimate D2E/DX2                !
 ! A52   A(7,14,15)            145.2587         estimate D2E/DX2                !
 ! A53   A(14,15,16)           109.1382         estimate D2E/DX2                !
 ! A54   A(14,15,18)           108.8367         estimate D2E/DX2                !
 ! A55   A(14,15,19)           103.1003         estimate D2E/DX2                !
 ! A56   A(16,15,18)           113.33           estimate D2E/DX2                !
 ! A57   A(16,15,19)           110.864          estimate D2E/DX2                !
 ! A58   A(18,15,19)           111.0408         estimate D2E/DX2                !
 ! A59   A(12,17,32)           113.3787         estimate D2E/DX2                !
 ! A60   A(12,17,33)           108.8721         estimate D2E/DX2                !
 ! A61   A(12,17,34)           109.868          estimate D2E/DX2                !
 ! A62   A(32,17,33)           108.7893         estimate D2E/DX2                !
 ! A63   A(32,17,34)           109.5066         estimate D2E/DX2                !
 ! A64   A(33,17,34)           106.1645         estimate D2E/DX2                !
 ! A65   A(8,26,38)            110.3928         estimate D2E/DX2                !
 ! A66   A(8,26,39)            124.7566         estimate D2E/DX2                !
 ! A67   A(38,26,39)           124.8451         estimate D2E/DX2                !
 ! A68   A(26,38,40)           116.9268         estimate D2E/DX2                !
 ! A69   A(38,40,41)           107.4945         estimate D2E/DX2                !
 ! A70   A(38,40,42)           107.9749         estimate D2E/DX2                !
 ! A71   A(38,40,43)           108.3148         estimate D2E/DX2                !
 ! A72   A(41,40,42)           112.4119         estimate D2E/DX2                !
 ! A73   A(41,40,43)           112.5296         estimate D2E/DX2                !
 ! A74   A(42,40,43)           107.9516         estimate D2E/DX2                !
 ! A75   A(40,41,44)           109.5092         estimate D2E/DX2                !
 ! A76   A(40,41,45)           110.8515         estimate D2E/DX2                !
 ! A77   A(40,41,46)           111.0309         estimate D2E/DX2                !
 ! A78   A(44,41,45)           108.4917         estimate D2E/DX2                !
 ! A79   A(44,41,46)           108.7938         estimate D2E/DX2                !
 ! A80   A(45,41,46)           108.0972         estimate D2E/DX2                !
 ! D1    D(6,1,2,3)              0.267          estimate D2E/DX2                !
 ! D2    D(6,1,2,7)            179.4103         estimate D2E/DX2                !
 ! D3    D(24,1,2,3)          -178.2892         estimate D2E/DX2                !
 ! D4    D(24,1,2,7)             0.8542         estimate D2E/DX2                !
 ! D5    D(2,1,6,5)              0.0802         estimate D2E/DX2                !
 ! D6    D(2,1,6,23)          -179.5768         estimate D2E/DX2                !
 ! D7    D(24,1,6,5)           178.6613         estimate D2E/DX2                !
 ! D8    D(24,1,6,23)           -0.9957         estimate D2E/DX2                !
 ! D9    D(1,2,3,4)             -0.2178         estimate D2E/DX2                !
 ! D10   D(1,2,3,20)           177.7557         estimate D2E/DX2                !
 ! D11   D(7,2,3,4)           -179.3883         estimate D2E/DX2                !
 ! D12   D(7,2,3,20)            -1.4148         estimate D2E/DX2                !
 ! D13   D(1,2,7,8)            -43.652          estimate D2E/DX2                !
 ! D14   D(1,2,7,14)           179.0107         estimate D2E/DX2                !
 ! D15   D(3,2,7,8)            135.489          estimate D2E/DX2                !
 ! D16   D(3,2,7,14)            -1.8483         estimate D2E/DX2                !
 ! D17   D(2,3,4,5)             -0.1794         estimate D2E/DX2                !
 ! D18   D(2,3,4,21)           179.3159         estimate D2E/DX2                !
 ! D19   D(20,3,4,5)          -178.139          estimate D2E/DX2                !
 ! D20   D(20,3,4,21)            1.3563         estimate D2E/DX2                !
 ! D21   D(3,4,5,6)              0.5283         estimate D2E/DX2                !
 ! D22   D(3,4,5,22)           179.9871         estimate D2E/DX2                !
 ! D23   D(21,4,5,6)          -178.9625         estimate D2E/DX2                !
 ! D24   D(21,4,5,22)            0.4963         estimate D2E/DX2                !
 ! D25   D(4,5,6,1)             -0.479          estimate D2E/DX2                !
 ! D26   D(4,5,6,23)           179.1756         estimate D2E/DX2                !
 ! D27   D(22,5,6,1)          -179.9388         estimate D2E/DX2                !
 ! D28   D(22,5,6,23)           -0.2842         estimate D2E/DX2                !
 ! D29   D(2,7,8,9)            105.255          estimate D2E/DX2                !
 ! D30   D(2,7,8,25)          -138.3009         estimate D2E/DX2                !
 ! D31   D(2,7,8,26)           -23.5166         estimate D2E/DX2                !
 ! D32   D(14,7,8,9)          -116.8955         estimate D2E/DX2                !
 ! D33   D(14,7,8,25)           -0.4514         estimate D2E/DX2                !
 ! D34   D(14,7,8,26)          114.3329         estimate D2E/DX2                !
 ! D35   D(2,7,14,15)          100.3249         estimate D2E/DX2                !
 ! D36   D(8,7,14,15)          -39.1895         estimate D2E/DX2                !
 ! D37   D(7,8,9,10)            32.1521         estimate D2E/DX2                !
 ! D38   D(7,8,9,27)           154.0599         estimate D2E/DX2                !
 ! D39   D(7,8,9,28)           -87.3702         estimate D2E/DX2                !
 ! D40   D(25,8,9,10)          -80.7566         estimate D2E/DX2                !
 ! D41   D(25,8,9,27)           41.1513         estimate D2E/DX2                !
 ! D42   D(25,8,9,28)          159.7211         estimate D2E/DX2                !
 ! D43   D(26,8,9,10)          160.871          estimate D2E/DX2                !
 ! D44   D(26,8,9,27)          -77.2212         estimate D2E/DX2                !
 ! D45   D(26,8,9,28)           41.3487         estimate D2E/DX2                !
 ! D46   D(7,8,26,38)          -68.7272         estimate D2E/DX2                !
 ! D47   D(7,8,26,39)          112.0889         estimate D2E/DX2                !
 ! D48   D(9,8,26,38)          163.1454         estimate D2E/DX2                !
 ! D49   D(9,8,26,39)          -16.0385         estimate D2E/DX2                !
 ! D50   D(25,8,26,38)          43.6978         estimate D2E/DX2                !
 ! D51   D(25,8,26,39)        -135.4861         estimate D2E/DX2                !
 ! D52   D(8,9,10,11)          -49.7912         estimate D2E/DX2                !
 ! D53   D(8,9,10,29)           69.7548         estimate D2E/DX2                !
 ! D54   D(8,9,10,30)         -169.762          estimate D2E/DX2                !
 ! D55   D(27,9,10,11)        -170.5614         estimate D2E/DX2                !
 ! D56   D(27,9,10,29)         -51.0155         estimate D2E/DX2                !
 ! D57   D(27,9,10,30)          69.4678         estimate D2E/DX2                !
 ! D58   D(28,9,10,11)          69.238          estimate D2E/DX2                !
 ! D59   D(28,9,10,29)        -171.2161         estimate D2E/DX2                !
 ! D60   D(28,9,10,30)         -50.7329         estimate D2E/DX2                !
 ! D61   D(9,10,11,12)         155.4195         estimate D2E/DX2                !
 ! D62   D(9,10,11,31)         -59.9904         estimate D2E/DX2                !
 ! D63   D(29,10,11,12)         36.6018         estimate D2E/DX2                !
 ! D64   D(29,10,11,31)       -178.8081         estimate D2E/DX2                !
 ! D65   D(30,10,11,12)        -83.4412         estimate D2E/DX2                !
 ! D66   D(30,10,11,31)         61.1489         estimate D2E/DX2                !
 ! D67   D(10,11,12,13)        -23.9718         estimate D2E/DX2                !
 ! D68   D(10,11,12,17)        164.5998         estimate D2E/DX2                !
 ! D69   D(31,11,12,13)       -168.1527         estimate D2E/DX2                !
 ! D70   D(31,11,12,17)         20.419          estimate D2E/DX2                !
 ! D71   D(11,12,13,35)        164.3425         estimate D2E/DX2                !
 ! D72   D(11,12,13,36)        -78.9896         estimate D2E/DX2                !
 ! D73   D(11,12,13,37)         37.8001         estimate D2E/DX2                !
 ! D74   D(17,12,13,35)        -23.972          estimate D2E/DX2                !
 ! D75   D(17,12,13,36)         92.6959         estimate D2E/DX2                !
 ! D76   D(17,12,13,37)       -150.5145         estimate D2E/DX2                !
 ! D77   D(11,12,17,32)         -7.9787         estimate D2E/DX2                !
 ! D78   D(11,12,17,33)        113.26           estimate D2E/DX2                !
 ! D79   D(11,12,17,34)       -130.8682         estimate D2E/DX2                !
 ! D80   D(13,12,17,32)       -179.8691         estimate D2E/DX2                !
 ! D81   D(13,12,17,33)        -58.6304         estimate D2E/DX2                !
 ! D82   D(13,12,17,34)         57.2414         estimate D2E/DX2                !
 ! D83   D(7,14,15,16)          52.8151         estimate D2E/DX2                !
 ! D84   D(7,14,15,18)         -71.3308         estimate D2E/DX2                !
 ! D85   D(7,14,15,19)         170.7079         estimate D2E/DX2                !
 ! D86   D(8,26,38,40)         179.0024         estimate D2E/DX2                !
 ! D87   D(39,26,38,40)         -1.8147         estimate D2E/DX2                !
 ! D88   D(26,38,40,41)        174.0683         estimate D2E/DX2                !
 ! D89   D(26,38,40,42)        -64.4299         estimate D2E/DX2                !
 ! D90   D(26,38,40,43)         52.2309         estimate D2E/DX2                !
 ! D91   D(38,40,41,44)        178.5371         estimate D2E/DX2                !
 ! D92   D(38,40,41,45)        -61.792          estimate D2E/DX2                !
 ! D93   D(38,40,41,46)         58.3781         estimate D2E/DX2                !
 ! D94   D(42,40,41,44)         59.8521         estimate D2E/DX2                !
 ! D95   D(42,40,41,45)        179.523          estimate D2E/DX2                !
 ! D96   D(42,40,41,46)        -60.3069         estimate D2E/DX2                !
 ! D97   D(43,40,41,44)        -62.2899         estimate D2E/DX2                !
 ! D98   D(43,40,41,45)         57.381          estimate D2E/DX2                !
 ! D99   D(43,40,41,46)        177.5511         estimate D2E/DX2                !
 --------------------------------------------------------------------------------
 Trust Radius=3.00D-01 FncErr=1.00D-07 GrdErr=1.00D-06 EigMax=2.50D+02 EigMin=1.00D-04
 Number of steps in this run=    237 maximum allowed number of steps=    276.
 GradGradGradGradGradGradGradGradGradGradGradGradGradGradGradGradGradGrad

 Leave Link  103 at Sat Jun 19 21:34:48 2021, MaxMem=  2147483648 cpu:               0.2 elap:               0.1
 (Enter /SFS/product/gaussian/g16.a03/x86_64/avx/g16/l202.exe)
                          Input orientation:                          
 ---------------------------------------------------------------------
 Center     Atomic      Atomic             Coordinates (Angstroms)
 Number     Number       Type             X           Y           Z
 ---------------------------------------------------------------------
      1          6           0        2.995322   -0.853271    0.326479
      2          6           0        1.632061   -0.719515    0.645876
      3          6           0        1.267806   -0.539153    1.988429
      4          6           0        2.240977   -0.498047    2.987866
      5          6           0        3.589355   -0.639895    2.662582
      6          6           0        3.963482   -0.812762    1.326578
      7          6           0        0.547492   -0.744988   -0.414942
      8          6           0        0.785031    0.075719   -1.752903
      9          6           0        1.121062   -0.842260   -2.929948
     10          6           0        0.347639   -2.129542   -2.645992
     11          6           0        0.702215   -2.464450   -1.208359
     12          6           0       -0.086779   -3.230985   -0.347006
     13          6           0       -1.543351   -3.376386   -0.527162
     14          8           0       -0.677752   -0.627303    0.054975
     15         26           0       -2.130082    0.556646    0.337597
     16         17           0       -2.632644    1.556072   -1.570207
     17          6           0        0.496109   -3.782449    0.908606
     18         17           0       -1.597459    1.964451    1.946135
     19         17           0       -3.766665   -0.798315    0.974693
     20          1           0        0.224431   -0.398522    2.241344
     21          1           0        1.939220   -0.346330    4.020253
     22          1           0        4.346897   -0.607662    3.440762
     23          1           0        5.012210   -0.910833    1.060787
     24          1           0        3.312457   -0.966382   -0.705260
     25          1           0       -0.190696    0.535012   -1.934682
     26          6           0        1.784980    1.216666   -1.581077
     27          1           0        0.840297   -0.380516   -3.881153
     28          1           0        2.199515   -1.031102   -2.970170
     29          1           0       -0.727606   -1.959809   -2.762236
     30          1           0        0.633759   -2.947804   -3.317612
     31          1           0        1.771467   -2.615921   -1.071502
     32          1           0        1.575096   -3.641773    0.983107
     33          1           0        0.014428   -3.293535    1.769615
     34          1           0        0.259172   -4.850970    0.992015
     35          1           0       -1.957619   -4.207007    0.049548
     36          1           0       -1.995668   -2.447482   -0.126750
     37          1           0       -1.851320   -3.447794   -1.572772
     38          8           0        1.269471    2.175148   -0.802891
     39          8           0        2.885652    1.255087   -2.091798
     40          6           0        2.114963    3.323919   -0.526535
     41          6           0        1.279514    4.331074    0.238328
     42          1           0        2.979789    2.976507    0.048261
     43          1           0        2.479910    3.719199   -1.479000
     44          1           0        1.894721    5.202937    0.487422
     45          1           0        0.428429    4.666909   -0.361731
     46          1           0        0.892057    3.897040    1.164449
 ---------------------------------------------------------------------
                    Distance matrix (angstroms):
                    1          2          3          4          5
     1  C    0.000000
     2  C    1.406551   0.000000
     3  C    2.417656   1.402733   0.000000
     4  C    2.788943   2.429968   1.395574   0.000000
     5  C    2.419872   2.811484   2.419550   1.394293   0.000000
     6  C    1.392542   2.430550   2.789189   2.413700   1.398128
     7  C    2.559942   1.517324   2.517422   3.808933   4.328410
     8  C    3.173679   2.665333   3.822133   4.992382   5.279474
     9  C    3.757298   3.614236   4.929892   6.032679   6.116356
    10  C    4.180272   3.804512   4.985369   6.163348   6.395993
    11  C    3.195304   2.710646   3.774403   4.882912   5.162244
    12  C    3.950500   3.201204   3.812495   4.899874   5.411592
    13  C    5.262544   4.303280   4.720243   5.912816   6.633816
    14  O    3.690020   2.385981   2.744305   4.139751   5.000797
    15  Fe   5.315802   3.984638   3.933404   5.219431   6.288817
    16  Cl   6.409084   5.317615   5.680437   6.981949   7.839135
    17  C    3.894229   3.277343   3.504355   4.260890   4.745550
    18  Cl   5.626409   4.395924   3.805202   4.677894   5.847987
    19  Cl   6.793208   5.409304   5.142054   6.343090   7.548847
    20  H    3.398726   2.151738   1.082762   2.152593   3.399767
    21  H    3.875088   3.408817   2.148554   1.086231   2.156941
    22  H    3.403797   3.897978   3.405109   2.156856   1.086496
    23  H    2.147175   3.410889   3.875465   3.400553   2.159553
    24  H    1.085290   2.170309   3.408678   3.873834   3.394941
    25  H    4.146190   3.399347   4.321095   5.586745   6.066632
    26  C    3.064039   2.954911   4.011451   4.901369   4.971039
    27  H    4.750979   4.608232   5.887268   7.011358   7.102469
    28  H    3.396002   3.673538   5.069300   5.981978   5.814860
    29  H    4.962336   4.326845   5.344974   6.634222   7.057406
    30  H    4.821146   4.655225   5.861543   6.952950   7.058662
    31  H    2.561075   2.562260   3.732267   4.602640   4.599215
    32  H    3.197491   2.942204   3.275874   3.787541   3.986119
    33  H    4.113789   3.241158   3.034049   3.775766   4.540848
    34  H    4.889893   4.367328   4.538937   5.182558   5.622639
    35  H    5.987976   5.040239   5.255072   6.326002   7.093741
    36  H    5.258983   4.091850   4.331970   5.608056   6.499248
    37  H    5.816240   4.949732   5.556194   6.800538   7.444694
    38  O    3.664063   3.257218   3.893443   4.739160   5.031484
    39  O    3.210181   3.600750   4.741832   5.412215   5.166264
    40  C    4.353341   4.237582   4.686795   5.193681   5.296803
    41  C    5.461612   5.079255   5.175143   5.639573   5.993572
    42  H    3.839902   3.979208   4.365204   4.610818   4.503844
    43  H    4.942963   4.993609   5.623684   6.147776   6.114350
    44  H    6.157506   5.930391   5.968052   6.234848   6.460789
    45  H    6.126578   5.610487   5.773291   6.417313   6.877506
    46  H    5.262259   4.704158   4.527686   4.945829   5.486675
                    6          7          8          9         10
     6  C    0.000000
     7  C    3.834902   0.000000
     8  C    4.513884   1.587490   0.000000
     9  C    5.118421   2.581414   1.530045   0.000000
    10  C    5.530781   2.633347   2.419111   1.528368   0.000000
    11  C    4.448577   1.900000   2.599201   2.402249   1.518116
    12  C    5.005327   2.566534   3.697417   3.719741   2.585968
    13  C    6.350884   3.362807   4.340603   4.392525   3.101597
    14  O    4.815851   1.317534   2.429485   3.491662   3.256282
    15  Fe   6.323360   3.070825   3.619304   4.817025   4.717681
    16  Cl   7.583641   4.091794   3.728984   4.657381   4.860365
    17  C    4.584367   3.313697   4.696016   4.875426   3.922921
    18  Cl   6.246665   4.185279   4.788157   6.248533   6.452272
    19  Cl   7.738165   4.532756   5.377885   6.256039   5.639949
    20  H    3.871549   2.698196   4.061180   5.267173   5.186296
    21  H    3.401629   4.665489   5.902509   7.015741   7.081793
    22  H    2.158436   5.414868   6.334671   7.144718   7.440347
    23  H    1.086321   4.705209   5.172927   5.574200   6.081421
    24  H    2.139112   2.788966   2.927697   3.125197   3.729548
    25  H    5.450643   2.119654   1.093635   2.146658   2.809914
    26  C    4.161599   2.596023   1.526821   2.549395   3.794351
    27  H    6.087823   3.497598   2.177304   1.093996   2.197141
    28  H    4.649870   3.056179   2.169690   1.095600   2.177408
    29  H    6.327750   2.934528   2.729505   2.166706   1.094748
    30  H    6.100325   3.644905   3.407769   2.195692   1.096581
    31  H    3.715791   2.330145   2.946572   2.650042   2.177813
    32  H    3.718288   3.376666   4.682916   4.832744   4.118720
    33  H    4.684607   3.398755   4.934960   5.414728   4.578591
    34  H    5.490079   4.349913   5.664218   5.674011   4.544127
    35  H    6.943424   4.298477   5.395619   5.447678   4.110476
    36  H    6.347908   3.073956   4.091846   4.488726   3.455250
    37  H    7.011530   3.794737   4.404309   4.179209   2.779390
    38  O    4.551916   3.032977   2.354741   3.694746   4.772541
    39  O    4.137996   3.504160   2.432769   2.866206   4.266656
    40  C    4.895220   4.361814   3.717997   4.911342   6.111937
    41  C    5.903137   5.170012   4.724147   6.068481   7.136333
    42  H    4.118289   4.469916   4.059030   5.187251   6.344994
    43  H    5.532714   4.979500   4.027727   4.975804   6.333737
    44  H    6.416587   6.164990   5.704282   6.987229   8.122622
    45  H    6.736006   5.413468   4.810567   6.117714   7.170504
    46  H    5.625138   4.915448   4.808835   6.267176   7.150912
                   11         12         13         14         15
    11  C    0.000000
    12  C    1.397146   0.000000
    13  C    2.517583   1.474856   0.000000
    14  O    2.622104   2.700000   2.940341   0.000000
    15  Fe   4.420284   4.357742   4.069497   1.894960   0.000000
    16  Cl   5.236107   5.558198   5.157872   3.351111   2.211592
    17  C    2.502227   1.490112   2.526997   3.472979   5.103986
    18  Cl   5.903770   5.876496   5.885972   3.337594   2.202952
    19  Cl   5.245246   4.605033   3.720906   3.227462   2.218156
    20  H    4.049295   3.849578   4.433661   2.376233   3.174954
    21  H    5.775379   5.612384   6.479855   4.759298   5.562063
    22  H    6.192390   6.394255   7.622682   6.058963   7.275748
    23  H    5.112612   5.776216   7.181637   5.785129   7.327266
    24  H    3.051341   4.100192   5.423902   4.076113   5.747034
    25  H    3.212726   4.088306   4.371478   2.355193   2.987463
    26  C    3.855115   4.980764   5.769285   3.484528   4.409608
    27  H    3.392002   4.634095   5.089820   4.225930   5.243975
    28  H    2.720362   4.116748   5.047543   4.194427   5.675181
    29  H    2.171079   2.803548   2.769059   3.116847   4.231838
    30  H    2.165009   3.069832   3.565123   4.298736   5.768929
    31  H    1.088565   2.087169   3.444217   3.349959   5.222339
    32  H    2.636387   2.167897   3.475062   3.876052   5.636643
    33  H    3.166822   2.119962   2.776459   3.244672   4.633950
    34  H    3.276188   2.130026   2.780537   4.426650   5.948034
    35  H    3.419584   2.147072   1.092769   3.801627   4.775469
    36  H    2.906671   2.075150   1.108054   2.254546   3.042773
    37  H    2.760490   2.159424   1.092357   3.461501   4.445532
    38  O    4.691700   5.592273   6.229569   3.518713   3.934110
    39  O    4.402592   5.657251   6.596567   4.566166   5.616704
    40  C    5.997162   6.917128   7.633960   4.873353   5.140519
    41  C    6.971752   7.706757   8.243754   5.333855   5.087387
    42  H    6.030792   6.934914   7.819793   5.134695   5.661292
    43  H    6.439795   7.494956   8.212183   5.587127   5.878247
    44  H    7.942705   8.703657   9.298091   6.387200   6.148944
    45  H    7.186656   7.914694   8.283108   5.424570   4.891758
    46  H    6.792261   7.351963   7.854647   4.915782   4.579873
                   16         17         18         19         20
    16  Cl   0.000000
    17  C    6.665839   0.000000
    18  Cl   3.688230   6.203737   0.000000
    19  Cl   3.647692   5.203909   3.644452   0.000000
    20  H    5.148906   3.647048   2.998345   4.206315   0.000000
    21  H    7.468220   4.855083   4.706354   6.483583   2.471385
    22  H    8.860336   5.596397   6.647183   8.482201   4.298496
    23  H    8.452901   5.353924   7.262150   8.780018   4.957722
    24  H    6.515760   4.297280   6.302932   7.277668   4.305908
    25  H    2.671800   5.215022   4.368411   4.798935   4.299187
    26  C    4.430656   5.731567   4.943814   6.435283   4.433401
    27  H    4.599148   5.885015   6.737864   6.706556   6.153421
    28  H    5.657131   5.051377   6.896405   7.156217   5.609010
    29  H    4.172712   4.277216   6.190736   4.954754   5.327270
    30  H    5.831613   4.310046   7.537613   6.512136   6.129305
    31  H    6.086906   2.628337   6.437049   6.177500   4.276111
    32  H    7.158357   1.090666   6.513238   6.051424   3.731773
    33  H    6.456012   1.101086   5.502341   4.599423   2.940702
    34  H    7.481829   1.097649   7.127930   5.712414   4.624535
    35  H    6.024313   2.634200   6.466348   3.968340   4.906105
    36  H    4.303226   3.010490   4.890867   2.658827   3.838612
    37  H    5.064499   3.432150   6.460615   4.144619   5.306061
    38  O    4.024740   6.246621   3.977540   6.112606   4.121074
    39  O    5.551058   6.331596   6.075063   7.607440   5.347209
    40  C    5.172457   7.428377   4.663081   7.337578   5.009175
    41  C    5.126053   8.178768   4.098107   7.233034   5.243506
    42  H    6.011362   7.252058   5.057409   7.786026   4.877749
    43  H    5.552085   8.118550   5.606748   8.090009   5.990306
    44  H    6.166887   9.103333   4.981060   8.264608   6.102660
    45  H    4.528564   8.544588   4.090690   7.018085   5.698790
    46  H    5.038054   7.693944   3.247095   6.617103   4.478535
                   21         22         23         24         25
    21  H    0.000000
    22  H    2.490183   0.000000
    23  H    4.303530   2.489746   0.000000
    24  H    4.959911   4.288152   2.451768   0.000000
    25  H    6.385496   7.126770   6.175235   4.004715   0.000000
    26  C    5.817357   5.925408   4.681956   2.804628   2.119666
    27  H    7.977532   8.121470   6.489134   4.067076   2.385348
    28  H    7.028704   6.774260   4.916740   2.524410   3.039417
    29  H    7.464411   8.127488   6.975768   4.641137   2.682769
    30  H    7.894058   8.058491   6.518471   4.233892   3.836956
    31  H    5.577199   5.570141   4.237499   2.286867   3.810977
    32  H    4.496308   4.788400   4.390651   3.609255   5.392314
    33  H    4.178063   5.364414   5.581893   4.734727   5.331197
    34  H    5.681951   6.380558   6.174203   5.224300   6.146278
    35  H    6.771756   8.012649   7.775981   6.232583   5.435617
    36  H    6.090634   7.506012   7.271993   5.541166   3.927062
    37  H    7.434326   8.462846   7.776879   5.794357   4.330288
    38  O    5.483533   5.934911   5.196602   3.748671   2.470442
    39  O    6.388853   6.017831   4.376328   2.653220   3.163402
    40  C    5.845930   6.014840   5.370918   4.457871   3.882904
    41  C    6.051138   6.637434   6.487453   5.752065   4.614496
    42  H    5.282116   5.120968   4.501928   4.028006   4.465975
    43  H    6.860223   6.812593   5.856642   4.821460   4.180769
    44  H    6.578544   6.964082   6.886630   6.441503   5.657303
    45  H    6.827652   7.591735   7.358384   6.337949   4.464310
    46  H    5.220954   6.116360   6.332618   5.745174   4.698957
                   26         27         28         29         30
    26  C    0.000000
    27  H    2.955295   0.000000
    28  H    2.674674   1.760859   0.000000
    29  H    4.218793   2.490876   3.077949   0.000000
    30  H    4.656573   2.636514   2.499211   1.771409   0.000000
    31  H    3.866338   3.709212   2.509944   3.087787   2.539594
    32  H    5.497592   5.902267   4.778483   4.707338   4.456893
    33  H    5.891002   6.410844   5.688477   4.781957   5.136436
    34  H    6.764991   6.638556   5.835686   4.840139   4.726017
    35  H    6.788388   6.157985   6.040433   3.803809   4.431546
    36  H    5.462083   5.139123   5.262198   2.965062   4.164830
    37  H    5.914384   4.688456   4.919592   2.211709   3.077349
    38  O    1.337913   4.023842   3.980216   4.992516   5.742176
    39  O    1.213998   3.171824   2.543419   4.882692   4.923204
    40  C    2.379383   5.157623   4.994468   6.402838   7.022719
    41  C    3.642152   6.273923   6.316153   7.253077   8.126732
    42  H    2.679431   5.593507   5.077468   6.783133   7.206276
    43  H    2.599234   5.026563   4.986739   6.647254   7.158051
    44  H    4.492337   7.167371   7.135200   8.291068   9.083110
    45  H    3.902719   6.167047   6.512145   7.142285   8.170878
    46  H    3.939496   6.615003   6.564381   7.234974   8.185810
                   31         32         33         34         35
    31  H    0.000000
    32  H    2.304854   0.000000
    33  H    3.408562   1.782007   0.000000
    34  H    3.397143   1.787147   1.757887   0.000000
    35  H    4.206470   3.697445   2.771648   2.493410   0.000000
    36  H    3.887446   3.925362   2.890068   3.480329   1.768744
    37  H    3.750716   4.279074   3.830974   3.605719   1.794332
    38  O    4.824779   6.092599   6.172472   7.321798   7.202268
    39  O    4.155372   5.928898   6.621510   7.327498   7.607701
    40  C    5.974670   7.147821   7.312677   8.519317   8.580946
    41  C    7.086495   8.013012   7.879083   9.269254   9.133099
    42  H    5.830022   6.829988   7.146317   8.340373   8.716701
    43  H    6.387620   7.814382   8.112370   9.191593   9.211561
    44  H    7.973705   8.864353   8.795997  10.198563  10.177392
    45  H    7.439566   8.494565   8.251224   9.615160   9.198302
    46  H    6.942010   7.571864   7.269170   8.772568   8.662519
                   36         37         38         39         40
    36  H    0.000000
    37  H    1.764211   0.000000
    38  O    5.699737   6.476846   0.000000
    39  O    6.434106   6.695176   2.262705   0.000000
    40  C    7.096914   7.917203   1.452895   2.706303   0.000000
    41  C    7.537169   8.578636   2.394213   4.179816   1.515702
    42  H    7.362436   8.199939   2.071672   2.748090   1.094993
    43  H    7.738691   8.374613   2.075182   2.571380   1.093902
    44  H    8.604722   9.649475   3.350127   4.818697   2.146468
    45  H    7.519709   8.515414   2.666617   4.546604   2.162216
    46  H    7.089366   8.304522   2.641549   4.643003   2.164115
                   41         42         43         44         45
    41  C    0.000000
    42  H    2.182181   0.000000
    43  H    2.182787   1.770310   0.000000
    44  H    1.095752   2.515398   2.531944   0.000000
    45  H    1.094167   3.087878   2.520916   1.777189   0.000000
    46  H    1.093713   2.540055   3.088807   1.780188   1.771122
                   46
    46  H    0.000000
 Stoichiometry    C17H22Cl3FeO3(6)
 Framework group  C1[X(C17H22Cl3FeO3)]
 Deg. of freedom   132
 Full point group                 C1      NOp   1
 Largest Abelian subgroup         C1      NOp   1
 Largest concise Abelian subgroup C1      NOp   1
                         Standard orientation:                         
 ---------------------------------------------------------------------
 Center     Atomic      Atomic             Coordinates (Angstroms)
 Number     Number       Type             X           Y           Z
 ---------------------------------------------------------------------
      1          6           0       -2.995322   -0.853270   -0.326479
      2          6           0       -1.632061   -0.719515   -0.645876
      3          6           0       -1.267806   -0.539153   -1.988429
      4          6           0       -2.240977   -0.498046   -2.987866
      5          6           0       -3.589355   -0.639894   -2.662582
      6          6           0       -3.963482   -0.812761   -1.326578
      7          6           0       -0.547492   -0.744988    0.414942
      8          6           0       -0.785031    0.075719    1.752903
      9          6           0       -1.121062   -0.842260    2.929948
     10          6           0       -0.347640   -2.129542    2.645992
     11          6           0       -0.702216   -2.464450    1.208359
     12          6           0        0.086778   -3.230985    0.347006
     13          6           0        1.543350   -3.376386    0.527162
     14          8           0        0.677752   -0.627303   -0.054975
     15         26           0        2.130082    0.556645   -0.337597
     16         17           0        2.632644    1.556071    1.570207
     17          6           0       -0.496110   -3.782449   -0.908606
     18         17           0        1.597459    1.964451   -1.946135
     19         17           0        3.766665   -0.798316   -0.974693
     20          1           0       -0.224431   -0.398522   -2.241344
     21          1           0       -1.939220   -0.346329   -4.020253
     22          1           0       -4.346897   -0.607661   -3.440762
     23          1           0       -5.012210   -0.910832   -1.060787
     24          1           0       -3.312457   -0.966381    0.705260
     25          1           0        0.190696    0.535012    1.934682
     26          6           0       -1.784980    1.216666    1.581077
     27          1           0       -0.840297   -0.380516    3.881153
     28          1           0       -2.199515   -1.031101    2.970170
     29          1           0        0.727605   -1.959809    2.762236
     30          1           0       -0.633760   -2.947804    3.317612
     31          1           0       -1.771468   -2.615921    1.071502
     32          1           0       -1.575097   -3.641773   -0.983107
     33          1           0       -0.014429   -3.293535   -1.769615
     34          1           0       -0.259173   -4.850970   -0.992015
     35          1           0        1.957618   -4.207008   -0.049548
     36          1           0        1.995667   -2.447483    0.126750
     37          1           0        1.851319   -3.447794    1.572772
     38          8           0       -1.269470    2.175148    0.802891
     39          8           0       -2.885652    1.255088    2.091798
     40          6           0       -2.114962    3.323920    0.526535
     41          6           0       -1.279513    4.331074   -0.238328
     42          1           0       -2.979788    2.976508   -0.048261
     43          1           0       -2.479909    3.719200    1.479000
     44          1           0       -1.894720    5.202937   -0.487422
     45          1           0       -0.428428    4.666909    0.361731
     46          1           0       -0.892056    3.897040   -1.164449
 ---------------------------------------------------------------------
 Rotational constants (GHZ):           0.1992930           0.1640995           0.1391199
 Leave Link  202 at Sat Jun 19 21:34:48 2021, MaxMem=  2147483648 cpu:               0.1 elap:               0.0
 (Enter /SFS/product/gaussian/g16.a03/x86_64/avx/g16/l301.exe)
 Standard basis: Jul-CC-pVDZ (5D, 7F)
 Ernie: Thresh=  0.10000D-02 Tol=  0.10000D-05 Strict=F.
 Ernie:  134 primitive shells out of 958 were deleted.
 There are   766 symmetry adapted cartesian basis functions of A   symmetry.
 There are   710 symmetry adapted basis functions of A   symmetry.
   710 basis functions,  1571 primitive gaussians,   766 cartesian basis functions
   115 alpha electrons      110 beta electrons
       nuclear repulsion energy      3339.5084090727 Hartrees.
 IExCor=  402 DFT=T Ex+Corr=B3LYP ExCW=0 ScaHFX=  0.200000
 ScaDFX=  0.800000  0.720000  1.000000  0.810000 ScalE2=  1.000000  1.000000
 IRadAn=      5 IRanWt=     -1 IRanGd=            0 ICorTp=0 IEmpDi=  4
 NAtoms=   46 NActive=   46 NUniq=   46 SFac= 1.00D+00 NAtFMM=   60 NAOKFM=F Big=F
 Integral buffers will be    131072 words long.
 Raffenetti 2 integral format.
 Two-electron integral symmetry is turned on.
 Leave Link  301 at Sat Jun 19 21:34:48 2021, MaxMem=  2147483648 cpu:               0.9 elap:               0.1
 (Enter /SFS/product/gaussian/g16.a03/x86_64/avx/g16/l302.exe)
 NPDir=0 NMtPBC=     1 NCelOv=     1 NCel=       1 NClECP=     1 NCelD=      1
         NCelK=      1 NCelE2=     1 NClLst=     1 CellRange=     0.0.
 One-electron integrals computed using PRISM.
 One-electron integral symmetry used in STVInt
 NBasis=   710 RedAO= T EigKep=  1.33D-06  NBF=   710
 NBsUse=   710 1.00D-06 EigRej= -1.00D+00 NBFU=   710
 Precomputing XC quadrature grid using
 IXCGrd= 4 IRadAn=           5 IRanWt=          -1 IRanGd=           0 AccXCQ= 0.00D+00.
 Generated NRdTot=       0 NPtTot=           0 NUsed=           0 NTot=          32
 NSgBfM=   765   764   764   765   765 MxSgAt=    46 MxSgA2=    46.
 Leave Link  302 at Sat Jun 19 21:34:49 2021, MaxMem=  2147483648 cpu:              17.8 elap:               1.2
 (Enter /SFS/product/gaussian/g16.a03/x86_64/avx/g16/l303.exe)
 DipDrv:  MaxL=1.
 Leave Link  303 at Sat Jun 19 21:34:49 2021, MaxMem=  2147483648 cpu:               2.5 elap:               0.2
 (Enter /SFS/product/gaussian/g16.a03/x86_64/avx/g16/l401.exe)
 ExpMin= 1.40D-02 ExpMax= 4.32D+06 ExpMxC= 4.91D+03 IAcc=3 IRadAn=         5 AccDes= 0.00D+00
 Harris functional with IExCor=  402 and IRadAn=       5 diagonalized for initial guess.
 HarFok:  IExCor=  402 AccDes= 0.00D+00 IRadAn=         5 IDoV= 1 UseB2=F ITyADJ=14
 ICtDFT=  3500011 ScaDFX=  1.000000  1.000000  1.000000  1.000000
 FoFCou: FMM=F IPFlag=           0 FMFlag=      100000 FMFlg1=           0
         NFxFlg=           0 DoJE=T BraDBF=F KetDBF=T FulRan=T
         wScrn=  0.000000 ICntrl=       500 IOpCl=  0 I1Cent=   200000004 NGrid=           0
         NMat0=    1 NMatS0=      1 NMatT0=    0 NMatD0=    1 NMtDS0=    0 NMtDT0=    0
 Petite list used in FoFCou.
 Harris En= -3531.10155134382    
 JPrj=0 DoOrth=F DoCkMO=F.
 Initial guess <Sx>= 0.0000 <Sy>= 0.0000 <Sz>= 2.5000 <S**2>= 8.7500 S= 2.5000
 Leave Link  401 at Sat Jun 19 21:34:57 2021, MaxMem=  2147483648 cpu:             115.4 elap:               7.3
 (Enter /SFS/product/gaussian/g16.a03/x86_64/avx/g16/l502.exe)
 Integral symmetry usage will be decided dynamically.
 UHF open shell SCF:
 Using DIIS extrapolation, IDIIS=  1040.
 NGot=  2147483648 LenX=  2146290678 LenY=  2145703156
 Requested convergence on RMS density matrix=1.00D-08 within 128 cycles.
 Requested convergence on MAX density matrix=1.00D-06.
 Requested convergence on             energy=1.00D-06.
 No special actions if energy rises.
 Fock matrices will be formed incrementally for  20 cycles.

 Cycle   1  Pass 1  IDiag  1:
 FoFJK:  IHMeth= 1 ICntrl=       0 DoSepK=F KAlg= 0 I1Cent=           0 FoldK=F
 IRaf= 930000000 NMat=       1 IRICut=       1 DoRegI=T DoRafI=F ISym2E= 0 IDoP0=0 IntGTp=1.
 FoFCou: FMM=F IPFlag=           0 FMFlag=      100000 FMFlg1=           0
         NFxFlg=           0 DoJE=F BraDBF=F KetDBF=F FulRan=T
         wScrn=  0.000000 ICntrl=         0 IOpCl=  1 I1Cent=           0 NGrid=           0
         NMat0=    1 NMatS0=      1 NMatT0=    0 NMatD0=    1 NMtDS0=    0 NMtDT0=    0
 Symmetry not used in FoFCou.
 E= -3530.35539319809    
 DIIS: error= 2.24D-02 at cycle   1 NSaved=   1.
 NSaved= 1 IEnMin= 1 EnMin= -3530.35539319809     IErMin= 1 ErrMin= 2.24D-02
 ErrMax= 2.24D-02  0.00D+00 EMaxC= 1.00D-01 BMatC= 4.56D+00 BMatP= 4.56D+00
 IDIUse=3 WtCom= 7.76D-01 WtEn= 2.24D-01
 Coeff-Com:  0.100D+01
 Coeff-En:   0.100D+01
 Coeff:      0.100D+01
 Gap=     0.128 Goal=   None    Shift=    0.000
 Gap=     0.239 Goal=   None    Shift=    0.000
 GapD=    0.128 DampG=1.000 DampE=0.250 DampFc=0.2500 IDamp=-1.
 Damping current iteration by 2.50D-01
 RMSDP=3.51D-02 MaxDP=1.13D+01              OVMax= 7.93D-01

 Cycle   2  Pass 1  IDiag  1:
 RMSU=  5.20D-03    CP:  9.15D-01
 E= -3530.40065346230     Delta-E=       -0.045260264212 Rises=F Damp=T
 DIIS: error= 1.21D-02 at cycle   2 NSaved=   2.
 NSaved= 2 IEnMin= 2 EnMin= -3530.40065346230     IErMin= 2 ErrMin= 1.21D-02
 ErrMax= 1.21D-02  0.00D+00 EMaxC= 1.00D-01 BMatC= 1.40D+00 BMatP= 4.56D+00
 IDIUse=3 WtCom= 8.79D-01 WtEn= 1.21D-01
 Coeff-Com:  0.266D+00 0.734D+00
 Coeff-En:   0.481D+00 0.519D+00
 Coeff:      0.292D+00 0.708D+00
 Gap=     0.351 Goal=   None    Shift=    0.000
 Gap=     0.069 Goal=   None    Shift=    0.000
 RMSDP=2.45D-02 MaxDP=8.03D+00 DE=-4.53D-02 OVMax= 9.65D-01

 Cycle   3  Pass 1  IDiag  1:
 RMSU=  8.88D-03    CP:  6.38D-01  9.62D-01
 E= -3529.98008294944     Delta-E=        0.420570512862 Rises=F Damp=F
 DIIS: error= 4.11D-02 at cycle   3 NSaved=   3.
 NSaved= 3 IEnMin= 2 EnMin= -3530.40065346230     IErMin= 2 ErrMin= 1.21D-02
 ErrMax= 4.11D-02  0.00D+00 EMaxC= 1.00D-01 BMatC= 6.38D+00 BMatP= 1.40D+00
 IDIUse=2 WtCom= 0.00D+00 WtEn= 1.00D+00
 EnCoef did     4 forward-backward iterations
 Coeff-En:   0.106D+00 0.541D+00 0.353D+00
 Coeff:      0.106D+00 0.541D+00 0.353D+00
 Gap=    -0.033 Goal=   None    Shift=    0.000
 Gap=     0.202 Goal=   None    Shift=    0.000
 RMSDP=7.53D-03 MaxDP=1.08D+00 DE= 4.21D-01 OVMax= 5.96D-01

 Cycle   4  Pass 1  IDiag  1:
 RMSU=  5.11D-03    CP:  6.58D-01  1.43D+00  4.70D-01
 E= -3527.38853002702     Delta-E=        2.591552922411 Rises=F Damp=F
 DIIS: error= 1.07D-01 at cycle   4 NSaved=   4.
 NSaved= 4 IEnMin= 2 EnMin= -3530.40065346230     IErMin= 2 ErrMin= 1.21D-02
 ErrMax= 1.07D-01  0.00D+00 EMaxC= 1.00D-01 BMatC= 2.60D+01 BMatP= 1.40D+00
 IDIUse=2 WtCom= 0.00D+00 WtEn= 1.00D+00
 EnCoef did     5 forward-backward iterations
 Coeff-En:   0.195D+00 0.000D+00 0.494D+00 0.311D+00
 Coeff:      0.195D+00 0.000D+00 0.494D+00 0.311D+00
 Gap=     0.124 Goal=   None    Shift=    0.000
 Gap=     0.025 Goal=   None    Shift=    0.000
 RMSDP=4.91D-03 MaxDP=1.28D+00 DE= 2.59D+00 OVMax= 8.37D-01

 Cycle   5  Pass 1  IDiag  1:
 RMSU=  2.73D-03    CP:  6.78D-01  8.58D-01  6.19D-01  6.39D-01
 E= -3531.33246218727     Delta-E=       -3.943932160241 Rises=F Damp=F
 DIIS: error= 3.36D-03 at cycle   5 NSaved=   5.
 NSaved= 5 IEnMin= 5 EnMin= -3531.33246218727     IErMin= 5 ErrMin= 3.36D-03
 ErrMax= 3.36D-03  0.00D+00 EMaxC= 1.00D-01 BMatC= 3.37D-01 BMatP= 1.40D+00
 IDIUse=3 WtCom= 9.66D-01 WtEn= 3.36D-02
 Coeff-Com: -0.618D-01 0.404D+00 0.223D+00 0.338D-02 0.432D+00
 Coeff-En:   0.000D+00 0.000D+00 0.000D+00 0.000D+00 0.100D+01
 Coeff:     -0.597D-01 0.390D+00 0.215D+00 0.327D-02 0.451D+00
 Gap=     0.050 Goal=   None    Shift=    0.000
 Gap=     0.200 Goal=   None    Shift=    0.000
 RMSDP=2.46D-03 MaxDP=1.90D-01 DE=-3.94D+00 OVMax= 1.58D-01

 Cycle   6  Pass 1  IDiag  1:
 RMSU=  2.11D-03    CP:  6.72D-01  8.82D-01  6.64D-01  6.53D-01  5.94D-01
 E= -3531.33090799717     Delta-E=        0.001554190097 Rises=F Damp=F
 DIIS: error= 5.63D-03 at cycle   6 NSaved=   6.
 NSaved= 6 IEnMin= 5 EnMin= -3531.33246218727     IErMin= 5 ErrMin= 3.36D-03
 ErrMax= 5.63D-03  0.00D+00 EMaxC= 1.00D-01 BMatC= 3.50D-01 BMatP= 3.37D-01
 IDIUse=3 WtCom= 9.66D-01 WtEn= 3.36D-02
 Coeff-Com: -0.757D-01 0.158D+00 0.913D-01-0.203D-01 0.427D+00 0.419D+00
 Coeff-En:   0.000D+00 0.000D+00 0.000D+00 0.000D+00 0.504D+00 0.496D+00
 Coeff:     -0.732D-01 0.153D+00 0.882D-01-0.196D-01 0.430D+00 0.422D+00
 Gap=     0.099 Goal=   None    Shift=    0.000
 Gap=     0.129 Goal=   None    Shift=    0.000
 RMSDP=1.22D-03 MaxDP=1.77D-01 DE= 1.55D-03 OVMax= 1.51D-01

 Cycle   7  Pass 1  IDiag  1:
 RMSU=  9.22D-04    CP:  6.75D-01  8.45D-01  6.57D-01  6.36D-01  7.48D-01
                    CP:  7.18D-01
 E= -3531.41480852312     Delta-E=       -0.083900525947 Rises=F Damp=F
 DIIS: error= 1.62D-03 at cycle   7 NSaved=   7.
 NSaved= 7 IEnMin= 7 EnMin= -3531.41480852312     IErMin= 7 ErrMin= 1.62D-03
 ErrMax= 1.62D-03  0.00D+00 EMaxC= 1.00D-01 BMatC= 1.79D-02 BMatP= 3.37D-01
 IDIUse=3 WtCom= 9.84D-01 WtEn= 1.62D-02
 Coeff-Com: -0.301D-01 0.518D-01 0.176D-01-0.429D-02 0.151D+00 0.186D+00
 Coeff-Com:  0.628D+00
 Coeff-En:   0.000D+00 0.000D+00 0.000D+00 0.000D+00 0.000D+00 0.000D+00
 Coeff-En:   0.100D+01
 Coeff:     -0.296D-01 0.509D-01 0.173D-01-0.422D-02 0.149D+00 0.183D+00
 Coeff:      0.634D+00
 Gap=     0.132 Goal=   None    Shift=    0.000
 Gap=     0.140 Goal=   None    Shift=    0.000
 RMSDP=4.60D-04 MaxDP=7.61D-02 DE=-8.39D-02 OVMax= 3.32D-02

 Cycle   8  Pass 1  IDiag  1:
 RMSU=  4.09D-04    CP:  6.74D-01  8.44D-01  6.48D-01  6.46D-01  7.64D-01
                    CP:  6.53D-01  1.03D+00
 E= -3531.41734211438     Delta-E=       -0.002533591261 Rises=F Damp=F
 DIIS: error= 1.12D-03 at cycle   8 NSaved=   8.
 NSaved= 8 IEnMin= 8 EnMin= -3531.41734211438     IErMin= 8 ErrMin= 1.12D-03
 ErrMax= 1.12D-03  0.00D+00 EMaxC= 1.00D-01 BMatC= 9.29D-03 BMatP= 1.79D-02
 IDIUse=3 WtCom= 9.89D-01 WtEn= 1.12D-02
 Coeff-Com: -0.587D-02 0.123D-01-0.136D-01 0.459D-02-0.332D-01-0.106D-02
 Coeff-Com:  0.405D+00 0.631D+00
 Coeff-En:   0.000D+00 0.000D+00 0.000D+00 0.000D+00 0.000D+00 0.000D+00
 Coeff-En:   0.154D+00 0.846D+00
 Coeff:     -0.580D-02 0.122D-01-0.134D-01 0.454D-02-0.329D-01-0.105D-02
 Coeff:      0.403D+00 0.634D+00
 Gap=     0.133 Goal=   None    Shift=    0.000
 Gap=     0.134 Goal=   None    Shift=    0.000
 RMSDP=3.03D-04 MaxDP=8.11D-02 DE=-2.53D-03 OVMax= 1.47D-02

 Cycle   9  Pass 1  IDiag  1:
 RMSU=  1.99D-04    CP:  6.76D-01  8.37D-01  6.48D-01  6.57D-01  7.63D-01
                    CP:  7.11D-01  1.15D+00  9.81D-01
 E= -3531.41891499607     Delta-E=       -0.001572881697 Rises=F Damp=F
 DIIS: error= 5.14D-04 at cycle   9 NSaved=   9.
 NSaved= 9 IEnMin= 9 EnMin= -3531.41891499607     IErMin= 9 ErrMin= 5.14D-04
 ErrMax= 5.14D-04  0.00D+00 EMaxC= 1.00D-01 BMatC= 1.98D-03 BMatP= 9.29D-03
 IDIUse=3 WtCom= 9.95D-01 WtEn= 5.14D-03
 Coeff-Com: -0.386D-02 0.847D-02-0.770D-02 0.318D-02-0.294D-01-0.103D-01
 Coeff-Com:  0.546D-01 0.285D+00 0.700D+00
 Coeff-En:   0.000D+00 0.000D+00 0.000D+00 0.000D+00 0.000D+00 0.000D+00
 Coeff-En:   0.000D+00 0.000D+00 0.100D+01
 Coeff:     -0.384D-02 0.843D-02-0.766D-02 0.317D-02-0.292D-01-0.103D-01
 Coeff:      0.543D-01 0.283D+00 0.702D+00
 Gap=     0.136 Goal=   None    Shift=    0.000
 Gap=     0.132 Goal=   None    Shift=    0.000
 RMSDP=1.32D-04 MaxDP=1.39D-02 DE=-1.57D-03 OVMax= 6.50D-03

 Cycle  10  Pass 1  IDiag  1:
 RMSU=  1.16D-04    CP:  6.75D-01  8.42D-01  6.48D-01  6.58D-01  7.61D-01
                    CP:  7.11D-01  1.20D+00  1.00D+00  8.24D-01
 E= -3531.41916323190     Delta-E=       -0.000248235826 Rises=F Damp=F
 DIIS: error= 3.49D-04 at cycle  10 NSaved=  10.
 NSaved=10 IEnMin=10 EnMin= -3531.41916323190     IErMin=10 ErrMin= 3.49D-04
 ErrMax= 3.49D-04  0.00D+00 EMaxC= 1.00D-01 BMatC= 8.78D-04 BMatP= 1.98D-03
 IDIUse=3 WtCom= 9.97D-01 WtEn= 3.49D-03
 Coeff-Com: -0.505D-02 0.767D-02 0.847D-03 0.479D-03 0.524D-02 0.985D-02
 Coeff-Com: -0.115D+00-0.830D-01 0.447D+00 0.731D+00
 Coeff-En:   0.000D+00 0.000D+00 0.000D+00 0.000D+00 0.000D+00 0.000D+00
 Coeff-En:   0.000D+00 0.000D+00 0.106D+00 0.894D+00
 Coeff:     -0.503D-02 0.764D-02 0.844D-03 0.477D-03 0.523D-02 0.981D-02
 Coeff:     -0.114D+00-0.827D-01 0.446D+00 0.732D+00
 Gap=     0.136 Goal=   None    Shift=    0.000
 Gap=     0.132 Goal=   None    Shift=    0.000
 RMSDP=9.83D-05 MaxDP=1.06D-02 DE=-2.48D-04 OVMax= 5.37D-03

 Cycle  11  Pass 1  IDiag  1:
 RMSU=  6.67D-05    CP:  6.76D-01  8.45D-01  6.46D-01  6.58D-01  7.60D-01
                    CP:  7.16D-01  1.20D+00  1.08D+00  1.01D+00  7.49D-01
 E= -3531.41934905020     Delta-E=       -0.000185818299 Rises=F Damp=F
 DIIS: error= 1.18D-04 at cycle  11 NSaved=  11.
 NSaved=11 IEnMin=11 EnMin= -3531.41934905020     IErMin=11 ErrMin= 1.18D-04
 ErrMax= 1.18D-04  0.00D+00 EMaxC= 1.00D-01 BMatC= 1.25D-04 BMatP= 8.78D-04
 IDIUse=3 WtCom= 9.99D-01 WtEn= 1.18D-03
 Coeff-Com: -0.295D-02 0.365D-02 0.131D-02-0.304D-04 0.825D-02 0.715D-02
 Coeff-Com: -0.785D-01-0.911D-01 0.186D+00 0.476D+00 0.490D+00
 Coeff-En:   0.000D+00 0.000D+00 0.000D+00 0.000D+00 0.000D+00 0.000D+00
 Coeff-En:   0.000D+00 0.000D+00 0.000D+00 0.000D+00 0.100D+01
 Coeff:     -0.295D-02 0.365D-02 0.131D-02-0.303D-04 0.824D-02 0.714D-02
 Coeff:     -0.784D-01-0.910D-01 0.186D+00 0.476D+00 0.490D+00
 Gap=     0.137 Goal=   None    Shift=    0.000
 Gap=     0.131 Goal=   None    Shift=    0.000
 RMSDP=4.11D-05 MaxDP=3.89D-03 DE=-1.86D-04 OVMax= 3.10D-03

 Cycle  12  Pass 1  IDiag  1:
 RMSU=  3.31D-05    CP:  6.76D-01  8.45D-01  6.45D-01  6.59D-01  7.62D-01
                    CP:  7.16D-01  1.19D+00  1.10D+00  1.02D+00  8.72D-01
                    CP:  7.74D-01
 E= -3531.41938370169     Delta-E=       -0.000034651493 Rises=F Damp=F
 DIIS: error= 4.05D-05 at cycle  12 NSaved=  12.
 NSaved=12 IEnMin=12 EnMin= -3531.41938370169     IErMin=12 ErrMin= 4.05D-05
 ErrMax= 4.05D-05  0.00D+00 EMaxC= 1.00D-01 BMatC= 2.47D-05 BMatP= 1.25D-04
 IDIUse=1 WtCom= 1.00D+00 WtEn= 0.00D+00
 Coeff-Com: -0.564D-03 0.208D-03 0.441D-03-0.322D-04 0.383D-02 0.871D-03
 Coeff-Com: -0.181D-01-0.277D-01 0.239D-01 0.130D+00 0.292D+00 0.595D+00
 Coeff:     -0.564D-03 0.208D-03 0.441D-03-0.322D-04 0.383D-02 0.871D-03
 Coeff:     -0.181D-01-0.277D-01 0.239D-01 0.130D+00 0.292D+00 0.595D+00
 Gap=     0.137 Goal=   None    Shift=    0.000
 Gap=     0.131 Goal=   None    Shift=    0.000
 RMSDP=1.83D-05 MaxDP=2.04D-03 DE=-3.47D-05 OVMax= 1.95D-03

 Cycle  13  Pass 1  IDiag  1:
 RMSU=  1.42D-05    CP:  6.76D-01  8.45D-01  6.45D-01  6.58D-01  7.62D-01
                    CP:  7.14D-01  1.20D+00  1.10D+00  1.03D+00  8.93D-01
                    CP:  9.02D-01  9.39D-01
 E= -3531.41939141781     Delta-E=       -0.000007716122 Rises=F Damp=F
 DIIS: error= 2.75D-05 at cycle  13 NSaved=  13.
 NSaved=13 IEnMin=13 EnMin= -3531.41939141781     IErMin=13 ErrMin= 2.75D-05
 ErrMax= 2.75D-05  0.00D+00 EMaxC= 1.00D-01 BMatC= 7.33D-06 BMatP= 2.47D-05
 IDIUse=1 WtCom= 1.00D+00 WtEn= 0.00D+00
 Coeff-Com:  0.289D-03-0.393D-03 0.525D-04-0.452D-04-0.849D-04-0.123D-02
 Coeff-Com:  0.403D-02 0.469D-02-0.105D-01-0.107D-02 0.685D-01 0.316D+00
 Coeff-Com:  0.620D+00
 Coeff:      0.289D-03-0.393D-03 0.525D-04-0.452D-04-0.849D-04-0.123D-02
 Coeff:      0.403D-02 0.469D-02-0.105D-01-0.107D-02 0.685D-01 0.316D+00
 Coeff:      0.620D+00
 Gap=     0.137 Goal=   None    Shift=    0.000
 Gap=     0.131 Goal=   None    Shift=    0.000
 RMSDP=1.01D-05 MaxDP=1.62D-03 DE=-7.72D-06 OVMax= 1.05D-03

 Cycle  14  Pass 1  IDiag  1:
 RMSU=  7.81D-06    CP:  6.76D-01  8.45D-01  6.45D-01  6.58D-01  7.62D-01
                    CP:  7.14D-01  1.20D+00  1.10D+00  1.03D+00  9.15D-01
                    CP:  9.44D-01  1.07D+00  1.03D+00
 E= -3531.41939463016     Delta-E=       -0.000003212347 Rises=F Damp=F
 DIIS: error= 1.20D-05 at cycle  14 NSaved=  14.
 NSaved=14 IEnMin=14 EnMin= -3531.41939463016     IErMin=14 ErrMin= 1.20D-05
 ErrMax= 1.20D-05  0.00D+00 EMaxC= 1.00D-01 BMatC= 1.45D-06 BMatP= 7.33D-06
 IDIUse=1 WtCom= 1.00D+00 WtEn= 0.00D+00
 Coeff-Com:  0.425D-03-0.304D-03-0.113D-03-0.787D-05-0.161D-02-0.596D-03
 Coeff-Com:  0.649D-02 0.101D-01-0.609D-02-0.372D-01-0.900D-01-0.144D+00
 Coeff-Com:  0.194D+00 0.107D+01
 Coeff:      0.425D-03-0.304D-03-0.113D-03-0.787D-05-0.161D-02-0.596D-03
 Coeff:      0.649D-02 0.101D-01-0.609D-02-0.372D-01-0.900D-01-0.144D+00
 Coeff:      0.194D+00 0.107D+01
 Gap=     0.137 Goal=   None    Shift=    0.000
 Gap=     0.131 Goal=   None    Shift=    0.000
 RMSDP=1.17D-05 MaxDP=1.03D-03 DE=-3.21D-06 OVMax= 1.26D-03

 Cycle  15  Pass 1  IDiag  1:
 RMSU=  6.00D-06    CP:  6.76D-01  8.45D-01  6.45D-01  6.58D-01  7.62D-01
                    CP:  7.14D-01  1.20D+00  1.10D+00  1.04D+00  9.37D-01
                    CP:  1.01D+00  1.23D+00  1.37D+00  1.46D+00
 E= -3531.41939660449     Delta-E=       -0.000001974327 Rises=F Damp=F
 DIIS: error= 7.19D-06 at cycle  15 NSaved=  15.
 NSaved=15 IEnMin=15 EnMin= -3531.41939660449     IErMin=15 ErrMin= 7.19D-06
 ErrMax= 7.19D-06  0.00D+00 EMaxC= 1.00D-01 BMatC= 5.06D-07 BMatP= 1.45D-06
 IDIUse=1 WtCom= 1.00D+00 WtEn= 0.00D+00
 Coeff-Com:  0.116D-03 0.425D-04-0.792D-05-0.964D-05-0.749D-03 0.332D-03
 Coeff-Com:  0.112D-02 0.867D-03 0.294D-03-0.178D-01-0.693D-01-0.183D+00
 Coeff-Com: -0.135D+00 0.586D+00 0.818D+00
 Coeff:      0.116D-03 0.425D-04-0.792D-05-0.964D-05-0.749D-03 0.332D-03
 Coeff:      0.112D-02 0.867D-03 0.294D-03-0.178D-01-0.693D-01-0.183D+00
 Coeff:     -0.135D+00 0.586D+00 0.818D+00
 Gap=     0.137 Goal=   None    Shift=    0.000
 Gap=     0.131 Goal=   None    Shift=    0.000
 RMSDP=7.90D-06 MaxDP=8.00D-04 DE=-1.97D-06 OVMax= 9.13D-04

 Cycle  16  Pass 1  IDiag  1:
 RMSU=  3.12D-06    CP:  6.76D-01  8.45D-01  6.45D-01  6.58D-01  7.62D-01
                    CP:  7.14D-01  1.20D+00  1.10D+00  1.05D+00  9.62D-01
                    CP:  1.05D+00  1.31D+00  1.58D+00  1.94D+00  1.28D+00
 E= -3531.41939725495     Delta-E=       -0.000000650457 Rises=F Damp=F
 DIIS: error= 2.72D-06 at cycle  16 NSaved=  16.
 NSaved=16 IEnMin=16 EnMin= -3531.41939725495     IErMin=16 ErrMin= 2.72D-06
 ErrMax= 2.72D-06  0.00D+00 EMaxC= 1.00D-01 BMatC= 1.33D-07 BMatP= 5.06D-07
 IDIUse=1 WtCom= 1.00D+00 WtEn= 0.00D+00
 Coeff-Com: -0.175D-04 0.376D-04 0.122D-04 0.121D-05-0.933D-04 0.181D-03
 Coeff-Com: -0.659D-03-0.204D-02-0.116D-03-0.357D-02-0.162D-01-0.559D-01
 Coeff-Com: -0.123D+00 0.644D-01 0.445D+00 0.692D+00
 Coeff:     -0.175D-04 0.376D-04 0.122D-04 0.121D-05-0.933D-04 0.181D-03
 Coeff:     -0.659D-03-0.204D-02-0.116D-03-0.357D-02-0.162D-01-0.559D-01
 Coeff:     -0.123D+00 0.644D-01 0.445D+00 0.692D+00
 Gap=     0.137 Goal=   None    Shift=    0.000
 Gap=     0.131 Goal=   None    Shift=    0.000
 RMSDP=3.24D-06 MaxDP=2.86D-04 DE=-6.50D-07 OVMax= 3.91D-04

 Cycle  17  Pass 1  IDiag  1:
 RMSU=  1.19D-06    CP:  6.76D-01  8.45D-01  6.45D-01  6.58D-01  7.62D-01
                    CP:  7.15D-01  1.20D+00  1.10D+00  1.05D+00  9.69D-01
                    CP:  1.07D+00  1.35D+00  1.65D+00  2.10D+00  1.48D+00
                    CP:  1.00D+00
 E= -3531.41939736421     Delta-E=       -0.000000109267 Rises=F Damp=F
 DIIS: error= 1.27D-06 at cycle  17 NSaved=  17.
 NSaved=17 IEnMin=17 EnMin= -3531.41939736421     IErMin=17 ErrMin= 1.27D-06
 ErrMax= 1.27D-06  0.00D+00 EMaxC= 1.00D-01 BMatC= 2.25D-08 BMatP= 1.33D-07
 IDIUse=1 WtCom= 1.00D+00 WtEn= 0.00D+00
 Coeff-Com: -0.214D-04 0.155D-04 0.106D-04 0.237D-05 0.457D-04-0.262D-05
 Coeff-Com: -0.184D-03-0.618D-03-0.115D-02-0.137D-02 0.844D-03 0.706D-03
 Coeff-Com: -0.244D-01-0.384D-01 0.535D-01 0.263D+00 0.748D+00
 Coeff:     -0.214D-04 0.155D-04 0.106D-04 0.237D-05 0.457D-04-0.262D-05
 Coeff:     -0.184D-03-0.618D-03-0.115D-02-0.137D-02 0.844D-03 0.706D-03
 Coeff:     -0.244D-01-0.384D-01 0.535D-01 0.263D+00 0.748D+00
 Gap=     0.137 Goal=   None    Shift=    0.000
 Gap=     0.131 Goal=   None    Shift=    0.000
 RMSDP=1.02D-06 MaxDP=7.93D-05 DE=-1.09D-07 OVMax= 1.09D-04

 Cycle  18  Pass 1  IDiag  1:
 RMSU=  5.51D-07    CP:  6.76D-01  8.45D-01  6.45D-01  6.58D-01  7.62D-01
                    CP:  7.15D-01  1.20D+00  1.10D+00  1.05D+00  9.71D-01
                    CP:  1.07D+00  1.36D+00  1.67D+00  2.14D+00  1.54D+00
                    CP:  1.07D+00  9.94D-01
 E= -3531.41939737712     Delta-E=       -0.000000012908 Rises=F Damp=F
 DIIS: error= 9.75D-07 at cycle  18 NSaved=  18.
 NSaved=18 IEnMin=18 EnMin= -3531.41939737712     IErMin=18 ErrMin= 9.75D-07
 ErrMax= 9.75D-07  0.00D+00 EMaxC= 1.00D-01 BMatC= 8.55D-09 BMatP= 2.25D-08
 IDIUse=1 WtCom= 1.00D+00 WtEn= 0.00D+00
 Coeff-Com: -0.509D-05 0.479D-05 0.129D-05-0.570D-06 0.341D-04-0.477D-04
 Coeff-Com:  0.192D-03 0.311D-03-0.127D-02-0.964D-03 0.365D-02 0.141D-01
 Coeff-Com:  0.227D-01-0.280D-01-0.935D-01-0.543D-01 0.350D+00 0.787D+00
 Coeff:     -0.509D-05 0.479D-05 0.129D-05-0.570D-06 0.341D-04-0.477D-04
 Coeff:      0.192D-03 0.311D-03-0.127D-02-0.964D-03 0.365D-02 0.141D-01
 Coeff:      0.227D-01-0.280D-01-0.935D-01-0.543D-01 0.350D+00 0.787D+00
 Gap=     0.137 Goal=   None    Shift=    0.000
 Gap=     0.131 Goal=   None    Shift=    0.000
 RMSDP=5.88D-07 MaxDP=1.04D-04 DE=-1.29D-08 OVMax= 6.68D-05

 Cycle  19  Pass 1  IDiag  1:
 RMSU=  3.31D-07    CP:  6.76D-01  8.45D-01  6.45D-01  6.58D-01  7.62D-01
                    CP:  7.15D-01  1.20D+00  1.10D+00  1.05D+00  9.72D-01
                    CP:  1.08D+00  1.37D+00  1.68D+00  2.16D+00  1.56D+00
                    CP:  1.11D+00  1.16D+00  1.14D+00
 E= -3531.41939738159     Delta-E=       -0.000000004474 Rises=F Damp=F
 DIIS: error= 6.84D-07 at cycle  19 NSaved=  19.
 NSaved=19 IEnMin=19 EnMin= -3531.41939738159     IErMin=19 ErrMin= 6.84D-07
 ErrMax= 6.84D-07  0.00D+00 EMaxC= 1.00D-01 BMatC= 1.24D-09 BMatP= 8.55D-09
 IDIUse=1 WtCom= 1.00D+00 WtEn= 0.00D+00
 Coeff-Com:  0.167D-05 0.293D-06-0.137D-05-0.673D-06 0.903D-05-0.203D-04
 Coeff-Com:  0.137D-03 0.297D-03-0.396D-03-0.166D-03 0.146D-02 0.636D-02
 Coeff-Com:  0.164D-01-0.420D-02-0.590D-01-0.829D-01 0.142D-01 0.409D+00
 Coeff-Com:  0.699D+00
 Coeff:      0.167D-05 0.293D-06-0.137D-05-0.673D-06 0.903D-05-0.203D-04
 Coeff:      0.137D-03 0.297D-03-0.396D-03-0.166D-03 0.146D-02 0.636D-02
 Coeff:      0.164D-01-0.420D-02-0.590D-01-0.829D-01 0.142D-01 0.409D+00
 Coeff:      0.699D+00
 Gap=     0.137 Goal=   None    Shift=    0.000
 Gap=     0.131 Goal=   None    Shift=    0.000
 RMSDP=2.63D-07 MaxDP=3.25D-05 DE=-4.47D-09 OVMax= 2.22D-05

 Cycle  20  Pass 1  IDiag  1:
 RMSU=  1.57D-07    CP:  6.76D-01  8.45D-01  6.45D-01  6.58D-01  7.62D-01
                    CP:  7.15D-01  1.20D+00  1.10D+00  1.05D+00  9.73D-01
                    CP:  1.08D+00  1.37D+00  1.68D+00  2.16D+00  1.57D+00
                    CP:  1.12D+00  1.23D+00  1.36D+00  1.24D+00
 E= -3531.41939738232     Delta-E=       -0.000000000729 Rises=F Damp=F
 DIIS: error= 4.14D-07 at cycle  20 NSaved=  20.
 NSaved=20 IEnMin=20 EnMin= -3531.41939738232     IErMin=20 ErrMin= 4.14D-07
 ErrMax= 4.14D-07  0.00D+00 EMaxC= 1.00D-01 BMatC= 4.60D-10 BMatP= 1.24D-09
 IDIUse=1 WtCom= 1.00D+00 WtEn= 0.00D+00
 Coeff-Com:  0.220D-05-0.152D-05-0.132D-05-0.100D-06-0.395D-05 0.467D-06
 Coeff-Com:  0.275D-04 0.998D-04 0.155D-03 0.240D-03-0.121D-03-0.576D-04
 Coeff-Com:  0.279D-02 0.440D-02-0.950D-02-0.313D-01-0.765D-01 0.344D-01
 Coeff-Com:  0.401D+00 0.674D+00
 Coeff:      0.220D-05-0.152D-05-0.132D-05-0.100D-06-0.395D-05 0.467D-06
 Coeff:      0.275D-04 0.998D-04 0.155D-03 0.240D-03-0.121D-03-0.576D-04
 Coeff:      0.279D-02 0.440D-02-0.950D-02-0.313D-01-0.765D-01 0.344D-01
 Coeff:      0.401D+00 0.674D+00
 Gap=     0.137 Goal=   None    Shift=    0.000
 Gap=     0.131 Goal=   None    Shift=    0.000
 RMSDP=1.57D-07 MaxDP=3.86D-05 DE=-7.29D-10 OVMax= 9.55D-06

 Cycle  21  Pass 1  IDiag  1:
 Restarting incremental Fock formation.
 E= -3531.41939738269     Delta-E=       -0.000000000368 Rises=F Damp=F
 DIIS: error= 2.20D-07 at cycle  21 NSaved=  20.
 NSaved=20 IEnMin=20 EnMin= -3531.41939738269     IErMin=20 ErrMin= 2.20D-07
 ErrMax= 2.20D-07  0.00D+00 EMaxC= 1.00D-01 BMatC= 8.48D-11 BMatP= 4.60D-10
 IDIUse=1 WtCom= 1.00D+00 WtEn= 0.00D+00
 Coeff-Com:  0.215D-06-0.807D-06-0.276D-06-0.378D-05 0.675D-05-0.355D-04
 Coeff-Com: -0.550D-04 0.214D-03 0.221D-03-0.398D-03-0.165D-02-0.372D-02
 Coeff-Com:  0.241D-02 0.128D-01 0.104D-01-0.361D-01-0.105D+00-0.179D-01
 Coeff-Com:  0.293D+00 0.845D+00
 Coeff:      0.215D-06-0.807D-06-0.276D-06-0.378D-05 0.675D-05-0.355D-04
 Coeff:     -0.550D-04 0.214D-03 0.221D-03-0.398D-03-0.165D-02-0.372D-02
 Coeff:      0.241D-02 0.128D-01 0.104D-01-0.361D-01-0.105D+00-0.179D-01
 Coeff:      0.293D+00 0.845D+00
[...]
    12   Atom       -0.018307      0.029657     -0.011350
    13   Atom       -0.008632      0.018023     -0.009391
    14   Atom       -0.146916      0.114790      0.032125
    15   Atom        0.049563      0.080183     -0.129746
    16   Atom       -0.126993     -0.079675      0.206668
    17   Atom       -0.002286      0.007145     -0.004860
    18   Atom       -0.116812      0.040088      0.076725
    19   Atom        0.068401      0.012836     -0.081237
    20   Atom        0.010651     -0.013754      0.003103
    21   Atom        0.002389     -0.003472      0.001083
    22   Atom        0.002495     -0.001633     -0.000862
    23   Atom        0.003406     -0.001537     -0.001869
    24   Atom        0.006477     -0.002950     -0.003527
    25   Atom        0.007639     -0.024421      0.016781
    26   Atom        0.010906     -0.007149     -0.003757
    27   Atom       -0.000546     -0.004415      0.004961
    28   Atom        0.002591     -0.002909      0.000319
    29   Atom       -0.007411      0.001010      0.006402
    30   Atom       -0.001935      0.000472      0.001463
    31   Atom        0.004378      0.000753     -0.005131
    32   Atom        0.000945      0.002890     -0.003835
    33   Atom       -0.003387      0.007546     -0.004159
    34   Atom       -0.002106      0.005292     -0.003186
    35   Atom       -0.005790      0.012556     -0.006766
    36   Atom       -0.019773      0.043471     -0.023698
    37   Atom       -0.007267      0.011261     -0.003993
    38   Atom        0.013280     -0.005972     -0.007307
    39   Atom        0.005748     -0.005502     -0.000246
    40   Atom        0.005677     -0.001397     -0.004280
    41   Atom        0.002987      0.001768     -0.004755
    42   Atom        0.005586     -0.002078     -0.003509
    43   Atom        0.003190     -0.000847     -0.002344
    44   Atom        0.001542      0.001330     -0.002872
    45   Atom        0.000149      0.005138     -0.005287
    46   Atom        0.004476      0.001512     -0.005988
 --------------------------------------------------------
                        XY            XZ            YZ
 --------------------------------------------------------
     1   Atom        0.004950     -0.000086     -0.000622
     2   Atom        0.009820      0.010534      0.001373
     3   Atom        0.008358      0.012369      0.002494
     4   Atom        0.002556      0.005947      0.001582
     5   Atom        0.002021      0.002841      0.000226
     6   Atom        0.001709      0.001702      0.000499
     7   Atom        0.026141     -0.029388     -0.001833
     8   Atom        0.002817     -0.022890      0.003497
     9   Atom        0.003476     -0.008531     -0.003870
    10   Atom        0.006024     -0.006569     -0.007728
    11   Atom        0.014164     -0.008111     -0.017380
    12   Atom        0.016459     -0.006259     -0.024030
    13   Atom        0.002215     -0.000766     -0.005970
    14   Atom        0.162366      0.158827      0.045440
    15   Atom        0.092008     -0.026644      0.010132
    16   Atom        0.029717      0.079262      0.168082
    17   Atom        0.006832      0.001080      0.001603
    18   Atom       -0.101560      0.072948     -0.187133
    19   Atom       -0.250724     -0.090929      0.102736
    20   Atom        0.013360      0.026012      0.009116
    21   Atom        0.001680      0.005681      0.001343
    22   Atom        0.000943      0.001903      0.000377
    23   Atom        0.001238      0.000429      0.000095
    24   Atom        0.003081     -0.002086     -0.000638
    25   Atom        0.002685     -0.035416      0.001482
    26   Atom       -0.002935     -0.009004      0.001134
    27   Atom        0.001859     -0.006659     -0.002247
    28   Atom        0.002683     -0.005410     -0.002035
    29   Atom        0.005310     -0.005622     -0.012680
    30   Atom        0.003163     -0.003253     -0.004679
    31   Atom        0.007151     -0.003515     -0.003185
    32   Atom        0.006180      0.001417      0.001410
    33   Atom        0.006980      0.002438      0.005731
    34   Atom        0.003476      0.000425      0.001344
    35   Atom        0.000039     -0.000358     -0.000929
    36   Atom       -0.000034     -0.001492     -0.009128
    37   Atom        0.000341      0.000034     -0.009182
    38   Atom       -0.010185     -0.007910      0.003184
    39   Atom       -0.001565     -0.001862     -0.000003
    40   Atom       -0.005955     -0.002224      0.001158
    41   Atom       -0.007579     -0.000536      0.000379
    42   Atom       -0.003669     -0.000801      0.000253
    43   Atom       -0.004061     -0.002572      0.001572
    44   Atom       -0.004391      0.000037     -0.000078
    45   Atom       -0.008273     -0.001319      0.001786
    46   Atom       -0.009700      0.002000     -0.002027
 --------------------------------------------------------


 ---------------------------------------------------------------------------------
              Anisotropic Spin Dipole Couplings in Principal Axis System
 ---------------------------------------------------------------------------------

       Atom             a.u.   MegaHertz   Gauss  10(-4) cm-1        Axes

              Baa    -0.0080    -1.078    -0.385    -0.360 -0.2431  0.9549  0.1706
     1 C(13)  Bbb    -0.0046    -0.615    -0.219    -0.205  0.0556 -0.1618  0.9852
              Bcc     0.0126     1.693     0.604     0.565  0.9684  0.2490 -0.0138
 
              Baa    -0.0155    -2.080    -0.742    -0.694 -0.3456  0.4200  0.8391
     2 C(13)  Bbb    -0.0121    -1.621    -0.578    -0.541 -0.1032  0.8718 -0.4789
              Bcc     0.0276     3.700     1.320     1.234  0.9327  0.2521  0.2580
 
              Baa    -0.0130    -1.750    -0.624    -0.584 -0.4191  0.8482  0.3239
     3 C(13)  Bbb    -0.0092    -1.233    -0.440    -0.411 -0.2877 -0.4624  0.8387
              Bcc     0.0222     2.983     1.064     0.995  0.8611  0.2583  0.4379
 
              Baa    -0.0052    -0.698    -0.249    -0.233 -0.5142 -0.0195  0.8575
     4 C(13)  Bbb    -0.0038    -0.507    -0.181    -0.169 -0.2182  0.9698 -0.1088
              Bcc     0.0090     1.204     0.430     0.402  0.8295  0.2430  0.5029
 
              Baa    -0.0049    -0.657    -0.235    -0.219 -0.2238  0.9697  0.0980
     5 C(13)  Bbb    -0.0017    -0.230    -0.082    -0.077 -0.3355 -0.1711  0.9264
              Bcc     0.0066     0.888     0.317     0.296  0.9151  0.1745  0.3636
 
              Baa    -0.0036    -0.489    -0.174    -0.163 -0.1848 -0.0767  0.9798
     6 C(13)  Bbb    -0.0018    -0.246    -0.088    -0.082 -0.2605  0.9651  0.0264
              Bcc     0.0055     0.735     0.262     0.245  0.9476  0.2504  0.1983
 
              Baa    -0.0452    -6.064    -2.164    -2.023 -0.3181  0.8763 -0.3619
     7 C(13)  Bbb    -0.0302    -4.046    -1.444    -1.350  0.1654  0.4271  0.8889
              Bcc     0.0753    10.110     3.608     3.372  0.9335  0.2229 -0.2808
 
              Baa    -0.0197    -2.649    -0.945    -0.884 -0.4915  0.7097 -0.5048
     8 C(13)  Bbb    -0.0108    -1.450    -0.517    -0.484  0.5054  0.7045  0.4983
              Bcc     0.0305     4.099     1.463     1.367  0.7092 -0.0102 -0.7049
 
              Baa    -0.0065    -0.877    -0.313    -0.292  0.7592 -0.0538  0.6486
     9 C(13)  Bbb    -0.0058    -0.775    -0.277    -0.259 -0.1572  0.9519  0.2629
              Bcc     0.0123     1.652     0.589     0.551 -0.6316 -0.3016  0.7143
 
              Baa    -0.0073    -0.982    -0.350    -0.328  0.8299 -0.0896  0.5507
    10 C(13)  Bbb    -0.0065    -0.871    -0.311    -0.291 -0.2778  0.7896  0.5472
              Bcc     0.0138     1.853     0.661     0.618 -0.4838 -0.6071  0.6304
 
              Baa    -0.0172    -2.304    -0.822    -0.768  0.1722  0.4016  0.8995
    11 C(13)  Bbb    -0.0145    -1.943    -0.693    -0.648  0.9080 -0.4188  0.0131
              Bcc     0.0316     4.247     1.515     1.417  0.3819  0.8145 -0.4368
 
              Baa    -0.0240    -3.221    -1.149    -1.075  0.7744 -0.4408 -0.4539
    12 C(13)  Bbb    -0.0216    -2.894    -1.033    -0.965  0.5745  0.1890  0.7964
              Bcc     0.0456     6.116     2.182     2.040  0.2652  0.8775 -0.3996
 
              Baa    -0.0107    -1.433    -0.511    -0.478  0.1575  0.1894  0.9692
    13 C(13)  Bbb    -0.0088    -1.178    -0.420    -0.393  0.9841 -0.1121 -0.1380
              Bcc     0.0195     2.611     0.932     0.871  0.0825  0.9755 -0.2040
 
              Baa    -0.2783    20.135     7.185     6.716  0.8638 -0.3110 -0.3965
    14 O(17)  Bbb     0.0231    -1.668    -0.595    -0.556  0.1328 -0.6186  0.7744
              Bcc     0.2552   -18.467    -6.590    -6.160  0.4861  0.7216  0.4930
 
              Baa    -0.1367    -2.367    -0.845    -0.790  0.2038 -0.1318  0.9701
    15 Fe(57) Bbb    -0.0217    -0.376    -0.134    -0.126  0.7323 -0.6371 -0.2404
              Bcc     0.1585     2.743     0.979     0.915  0.6498  0.7594 -0.0334
 
              Baa    -0.1597    -8.356    -2.982    -2.787  0.3516  0.8197 -0.4522
    16 Cl(35) Bbb    -0.1413    -7.395    -2.639    -2.467  0.9159 -0.4011 -0.0149
              Bcc     0.3009    15.751     5.620     5.254  0.1936  0.4089  0.8918
 
              Baa    -0.0059    -0.795    -0.284    -0.265  0.8716 -0.4258 -0.2429
    17 C(13)  Bbb    -0.0050    -0.676    -0.241    -0.226  0.1620 -0.2175  0.9625
              Bcc     0.0110     1.471     0.525     0.491  0.4627  0.8783  0.1206
 
              Baa    -0.1698    -8.888    -3.172    -2.965  0.8133  0.5534  0.1794
    18 Cl(35) Bbb    -0.1141    -5.970    -2.130    -1.991 -0.5027  0.5132  0.6956
              Bcc     0.2839    14.858     5.302     4.956  0.2929 -0.6560  0.6957
 
              Baa    -0.2143   -11.214    -4.001    -3.741  0.6250  0.7635 -0.1625
    19 Cl(35) Bbb    -0.1230    -6.439    -2.298    -2.148  0.3407 -0.0796  0.9368
              Bcc     0.3373    17.653     6.299     5.888  0.7023 -0.6409 -0.3099
 
              Baa    -0.0209   -11.135    -3.973    -3.714  0.6419 -0.6100 -0.4646
    20 H(1)   Bbb    -0.0173    -9.216    -3.288    -3.074  0.2393  0.7350 -0.6344
              Bcc     0.0381    20.351     7.262     6.788  0.7285  0.2961  0.6178
 
              Baa    -0.0041    -2.164    -0.772    -0.722  0.6335 -0.5328 -0.5611
    21 H(1)   Bbb    -0.0038    -2.030    -0.724    -0.677  0.2432  0.8255 -0.5093
              Bcc     0.0079     4.194     1.497     1.399  0.7345  0.1862  0.6525
 
              Baa    -0.0018    -0.985    -0.352    -0.329 -0.2995  0.9275  0.2236
    22 H(1)   Bbb    -0.0017    -0.910    -0.325    -0.304 -0.3302 -0.3206  0.8878
              Bcc     0.0036     1.895     0.676     0.632  0.8951  0.1921  0.4023
 
              Baa    -0.0019    -1.016    -0.363    -0.339 -0.0962  0.0687  0.9930
    23 H(1)   Bbb    -0.0018    -0.976    -0.348    -0.326 -0.2224  0.9709 -0.0888
              Bcc     0.0037     1.992     0.711     0.664  0.9702  0.2294  0.0781
 
              Baa    -0.0039    -2.107    -0.752    -0.703  0.1222  0.2386  0.9634
    24 H(1)   Bbb    -0.0039    -2.062    -0.736    -0.688 -0.3154  0.9297 -0.1903
              Bcc     0.0078     4.169     1.488     1.391  0.9411  0.2806 -0.1889
 
              Baa    -0.0270   -14.402    -5.139    -4.804 -0.4931  0.7592 -0.4247
    25 H(1)   Bbb    -0.0209   -11.168    -3.985    -3.725  0.5661  0.6507  0.5060
              Bcc     0.0479    25.571     9.124     8.530 -0.6606 -0.0091  0.7507
 
              Baa    -0.0081    -1.092    -0.390    -0.364  0.4423  0.3852  0.8099
    26 C(13)  Bbb    -0.0075    -1.004    -0.358    -0.335 -0.0528  0.9127 -0.4052
              Bcc     0.0156     2.096     0.748     0.699  0.8953 -0.1365 -0.4240
 
              Baa    -0.0053    -2.822    -1.007    -0.941 -0.6635  0.6942 -0.2789
    27 H(1)   Bbb    -0.0047    -2.512    -0.896    -0.838  0.5092  0.6922  0.5115
              Bcc     0.0100     5.334     1.903     1.779 -0.5481 -0.1974  0.8128
 
              Baa    -0.0041    -2.205    -0.787    -0.736  0.6595 -0.4702  0.5865
    28 H(1)   Bbb    -0.0039    -2.073    -0.740    -0.692  0.1096  0.8320  0.5438
              Bcc     0.0080     4.279     1.527     1.427  0.7437  0.2943 -0.6003
 
              Baa    -0.0101    -5.370    -1.916    -1.791  0.7867 -0.5890 -0.1850
    29 H(1)   Bbb    -0.0089    -4.729    -1.687    -1.577  0.5497  0.5318  0.6442
              Bcc     0.0189    10.099     3.604     3.369 -0.2811 -0.6085  0.7421
 
              Baa    -0.0041    -2.196    -0.784    -0.733  0.8363 -0.5476  0.0284
    30 H(1)   Bbb    -0.0037    -1.958    -0.699    -0.653  0.3492  0.5718  0.7424
              Bcc     0.0078     4.155     1.483     1.386 -0.4227 -0.6109  0.6694
 
              Baa    -0.0066    -3.499    -1.249    -1.167  0.0956  0.3175  0.9434
    31 H(1)   Bbb    -0.0047    -2.532    -0.904    -0.845 -0.6491  0.7384 -0.1827
              Bcc     0.0113     6.031     2.152     2.012  0.7546  0.5949 -0.2767
 
              Baa    -0.0044    -2.364    -0.844    -0.789  0.7082 -0.5024 -0.4960
    32 H(1)   Bbb    -0.0041    -2.169    -0.774    -0.723  0.2914 -0.4319  0.8535
              Bcc     0.0085     4.533     1.617     1.512  0.6430  0.7490  0.1595
 
              Baa    -0.0069    -3.707    -1.323    -1.236  0.7241 -0.5254  0.4468
    33 H(1)   Bbb    -0.0062    -3.324    -1.186    -1.109 -0.5566 -0.0626  0.8284
              Bcc     0.0132     7.031     2.509     2.345  0.4073  0.8485  0.3378
 
              Baa    -0.0035    -1.891    -0.675    -0.631  0.7659 -0.3801  0.5185
    34 H(1)   Bbb    -0.0033    -1.772    -0.632    -0.591 -0.5304  0.0824  0.8438
              Bcc     0.0069     3.663     1.307     1.222  0.3635  0.9213  0.1385
 
              Baa    -0.0069    -3.693    -1.318    -1.232  0.2993  0.0448  0.9531
    35 H(1)   Bbb    -0.0057    -3.030    -1.081    -1.011  0.9542 -0.0173 -0.2988
              Bcc     0.0126     6.723     2.399     2.243  0.0031  0.9988 -0.0480
 
              Baa    -0.0253   -13.506    -4.819    -4.505  0.2587  0.1272  0.9575
    36 H(1)   Bbb    -0.0194   -10.338    -3.689    -3.448  0.9660 -0.0367 -0.2561
              Bcc     0.0447    23.844     8.508     7.954  0.0025  0.9912 -0.1324
 
              Baa    -0.0083    -4.445    -1.586    -1.483 -0.1630  0.4210  0.8923
    37 H(1)   Bbb    -0.0072    -3.864    -1.379    -1.289  0.9865  0.0577  0.1530
              Bcc     0.0156     8.310     2.965     2.772  0.0129  0.9052 -0.4248
 
              Baa    -0.0104     0.755     0.270     0.252  0.4659  0.8120  0.3516
    38 O(17)  Bbb    -0.0099     0.714     0.255     0.238  0.1073 -0.4463  0.8884
              Bcc     0.0203    -1.469    -0.524    -0.490  0.8783 -0.3762 -0.2950
 
              Baa    -0.0057     0.414     0.148     0.138  0.1428  0.9885  0.0490
    39 O(17)  Bbb    -0.0007     0.054     0.019     0.018  0.2559 -0.0847  0.9630
              Bcc     0.0065    -0.468    -0.167    -0.156  0.9561 -0.1250 -0.2651
 
              Baa    -0.0049    -0.652    -0.233    -0.217  0.4871  0.6394  0.5949
    40 C(13)  Bbb    -0.0047    -0.626    -0.223    -0.209 -0.1747 -0.5961  0.7837
              Bcc     0.0095     1.278     0.456     0.426  0.8557 -0.4857 -0.1786
 
              Baa    -0.0052    -0.703    -0.251    -0.235  0.6725  0.7171  0.1830
    41 C(13)  Bbb    -0.0048    -0.640    -0.228    -0.213 -0.0924 -0.1640  0.9821
              Bcc     0.0100     1.343     0.479     0.448  0.7343 -0.6774 -0.0441
 
              Baa    -0.0036    -1.935    -0.691    -0.646  0.2942  0.5715  0.7661
    42 H(1)   Bbb    -0.0035    -1.867    -0.666    -0.623  0.2394  0.7319 -0.6380
              Bcc     0.0071     3.802     1.357     1.268  0.9253 -0.3711 -0.0785
 
              Baa    -0.0034    -1.800    -0.642    -0.600  0.5880  0.6260  0.5122
    43 H(1)   Bbb    -0.0033    -1.780    -0.635    -0.594 -0.0580 -0.5990  0.7987
              Bcc     0.0067     3.580     1.277     1.194  0.8068 -0.4993 -0.3159
 
              Baa    -0.0030    -1.583    -0.565    -0.528  0.6624  0.6827  0.3083
    44 H(1)   Bbb    -0.0029    -1.528    -0.545    -0.510 -0.2217 -0.2145  0.9512
              Bcc     0.0058     3.110     1.110     1.037  0.7156 -0.6985  0.0093
 
              Baa    -0.0060    -3.200    -1.142    -1.067  0.8014  0.5979 -0.0157
    45 H(1)   Bbb    -0.0056    -2.977    -1.062    -0.993  0.0906 -0.0953  0.9913
              Bcc     0.0116     6.177     2.204     2.060 -0.5912  0.7959  0.1305
 
              Baa    -0.0069    -3.694    -1.318    -1.232  0.5500  0.7300  0.4056
    46 H(1)   Bbb    -0.0063    -3.363    -1.200    -1.122 -0.3686 -0.2236  0.9023
              Bcc     0.0132     7.057     2.518     2.354  0.7494 -0.6458  0.1461
 

 ---------------------------------------------------------------------------------

 No NMR shielding tensors so no spin-rotation constants.
 Leave Link  601 at Sun Jun 20 12:00:57 2021, MaxMem=  2147483648 cpu:              89.7 elap:               5.8
 (Enter /SFS/product/gaussian/g16.a03/x86_64/avx/g16/l9999.exe)
 1\1\GINC-KTCHPCPX012\SP\UB3LYP\Jul-CC-pVDZ\C17H22Cl3Fe1O3(6)\KWANEU\20
 -Jun-2021\0\\#p ub3lyp jul-cc-pvdz pop=cm5 scrf=(pcm,solvent=water) gu
 ess=read geom=allcheck\\title\\0,6\C,0,2.9763074573,-0.845354262,0.331
 0158967\C,0,1.6130693728,-0.7063488389,0.6505419791\C,0,1.2510580958,-
 0.5012800739,1.9907932025\C,0,2.2273743795,-0.446228195,2.9897468771\C
 ,0,3.5778092715,-0.5949302721,2.6647934532\C,0,3.9493148979,-0.7898803
 367,1.328825251\C,0,0.529931809,-0.7393265277,-0.4127849375\C,0,0.7747
 93267,0.0862782645,-1.7464853908\C,0,1.0832920122,-0.8314999407,-2.931
 7095887\C,0,0.3117247126,-2.117561091,-2.6383699781\C,0,0.6918877349,-
 2.4564160461,-1.209888966\C,0,-0.0768627154,-3.2311869135,-0.337712731
 2\C,0,-1.5289479701,-3.4082906632,-0.5098284908\O,0,-0.6944041809,-0.6
 322369378,0.0548401621\Fe,0,-2.2141572261,0.5290608613,0.271814159\Cl,
 0,-2.6993296865,1.4265922259,-1.6994337751\C,0,0.5266340571,-3.7852124
 651,0.905007607\Cl,0,-1.7269893562,2.0281960936,1.8189264404\Cl,0,-3.8
 146252747,-0.8597035318,0.9508361965\H,0,0.2035255642,-0.3554956413,2.
 2449283973\H,0,1.9268761051,-0.2764109337,4.0245053225\H,0,4.339788499
 7,-0.5505896735,3.4444471968\H,0,5.0017463293,-0.8927749464,1.06127515
 65\H,0,3.2935498568,-0.9793277628,-0.7025952031\H,0,-0.1976005377,0.56
 48595663,-1.9149513742\C,0,1.788370086,1.2147543361,-1.5827617473\H,0,
 0.7867377667,-0.3639607671,-3.8789039476\H,0,2.1631126517,-1.026339594
 7,-2.9912282724\H,0,-0.7681543143,-1.9471634515,-2.7353954023\H,0,0.58
 79224567,-2.9356285749,-3.3194163999\H,0,1.767638864,-2.5923991087,-1.
 0829360769\H,0,1.5859658403,-3.5383225466,1.0203561357\H,0,-0.03595641
 39,-3.4206095543,1.7808195861\H,0,0.4068930426,-4.8810424064,0.9031909
 733\H,0,-1.9189149837,-4.2507071171,0.0735138908\H,0,-2.0023390864,-2.
 4869737574,-0.1052382674\H,0,-1.8405116954,-3.4866827295,-1.5569489106
 \O,0,1.3044658078,2.1714375733,-0.7810196161\O,0,2.8729294683,1.255363
 1936,-2.1277663801\C,0,2.1641895485,3.3204103477,-0.5337840028\C,0,1.3
 824796349,4.302032286,0.3144002889\H,0,3.0729197011,2.9615435726,-0.03
 10024519\H,0,2.4565442642,3.7431413715,-1.5041426036\H,0,2.0139326482,
 5.176196064,0.5299456027\H,0,0.48046184,4.6435771345,-0.2105915241\H,0
 ,1.0748913974,3.8460647706,1.2643912635\\Version=ES64L-G16RevA.03\Stat
 e=6-A\HF=-3531.4472525\S2=8.761447\S2-1=0.\S2A=8.750041\RMSD=8.459e-09
 \Dipole=3.7038239,-4.0494592,-0.3891879\Quadrupole=-19.592188,20.31346
 76,-0.7212796,4.2958775,9.9871391,3.0671065\PG=C01 [X(C17H22Cl3Fe1O3)]
 \\@


 IN THE WOODS WE RETURN TO REASON AND FAITH.

                                 -- EMERSON
 Job cpu time:       0 days  5 hours 18 minutes  5.8 seconds.
 Elapsed time:       0 days  0 hours 19 minutes 58.2 seconds.
 File lengths (MBytes):  RWF=    670 Int=      0 D2E=      0 Chk=     57 Scr=      1
 Normal termination of Gaussian 16 at Sun Jun 20 12:00:57 2021.
