 Entering Gaussian System, Link 0=g16
 Input=prenyl-first_betaine_grid-CC_160_CO_300-b3lyp_d3bj-juldz-gas.gjf
 Output=prenyl-first_betaine_grid-CC_160_CO_300-b3lyp_d3bj-juldz-gas.out
 Initial command:
 /SFS/product/gaussian/g16.a03/x86_64/avx/g16/l1.exe "/scratch/kwaneu.2874224.bmbhpcps002/Gau-68052.inp" -scrdir="/scratch/kwaneu.2874224.bmbhpcps002/"
 Entering Link 1 = /SFS/product/gaussian/g16.a03/x86_64/avx/g16/l1.exe PID=     68053.
  
 Copyright (c) 1988,1990,1992,1993,1995,1998,2003,2009,2016,
            Gaussian, Inc.  All Rights Reserved.
  
 This is part of the Gaussian(R) 16 program.  It is based on
 the Gaussian(R) 09 system (copyright 2009, Gaussian, Inc.),
 the Gaussian(R) 03 system (copyright 2003, Gaussian, Inc.),
 the Gaussian(R) 98 system (copyright 1998, Gaussian, Inc.),
 the Gaussian(R) 94 system (copyright 1995, Gaussian, Inc.),
 the Gaussian 92(TM) system (copyright 1992, Gaussian, Inc.),
 the Gaussian 90(TM) system (copyright 1990, Gaussian, Inc.),
 the Gaussian 88(TM) system (copyright 1988, Gaussian, Inc.),
 the Gaussian 86(TM) system (copyright 1986, Carnegie Mellon
 University), and the Gaussian 82(TM) system (copyright 1983,
 Carnegie Mellon University). Gaussian is a federally registered
 trademark of Gaussian, Inc.
  
 This software contains proprietary and confidential information,
 including trade secrets, belonging to Gaussian, Inc.
  
 This software is provided under written license and may be
 used, copied, transmitted, or stored only in accord with that
 written license.
  
 The following legend is applicable only to US Government
 contracts under FAR:
  
                    RESTRICTED RIGHTS LEGEND
  
 Use, reproduction and disclosure by the US Government is
 subject to restrictions as set forth in subparagraphs (a)
 and (c) of the Commercial Computer Software - Restricted
 Rights clause in FAR 52.227-19.
  
 Gaussian, Inc.
 340 Quinnipiac St., Bldg. 40, Wallingford CT 06492
  
  
 ---------------------------------------------------------------
 Warning -- This program may not be used in any manner that
 competes with the business of Gaussian, Inc. or will provide
 assistance to any competitor of Gaussian, Inc.  The licensee
 of this program is prohibited from giving any competitor of
 Gaussian, Inc. access to this program.  By using this program,
 the user acknowledges that Gaussian, Inc. is engaged in the
 business of creating and licensing software in the field of
 computational chemistry and represents and warrants to the
 licensee that it is not a competitor of Gaussian, Inc. and that
 it will not use this program in any manner prohibited above.
 ---------------------------------------------------------------
  

 Cite this work as:
 Gaussian 16, Revision A.03,
 M. J. Frisch, G. W. Trucks, H. B. Schlegel, G. E. Scuseria, 
 M. A. Robb, J. R. Cheeseman, G. Scalmani, V. Barone, 
 G. A. Petersson, H. Nakatsuji, X. Li, M. Caricato, A. V. Marenich, 
 J. Bloino, B. G. Janesko, R. Gomperts, B. Mennucci, H. P. Hratchian, 
 J. V. Ortiz, A. F. Izmaylov, J. L. Sonnenberg, D. Williams-Young, 
 F. Ding, F. Lipparini, F. Egidi, J. Goings, B. Peng, A. Petrone, 
 T. Henderson, D. Ranasinghe, V. G. Zakrzewski, J. Gao, N. Rega, 
 G. Zheng, W. Liang, M. Hada, M. Ehara, K. Toyota, R. Fukuda, 
 J. Hasegawa, M. Ishida, T. Nakajima, Y. Honda, O. Kitao, H. Nakai, 
 T. Vreven, K. Throssell, J. A. Montgomery, Jr., J. E. Peralta, 
 F. Ogliaro, M. J. Bearpark, J. J. Heyd, E. N. Brothers, K. N. Kudin, 
 V. N. Staroverov, T. A. Keith, R. Kobayashi, J. Normand, 
 K. Raghavachari, A. P. Rendell, J. C. Burant, S. S. Iyengar, 
 J. Tomasi, M. Cossi, J. M. Millam, M. Klene, C. Adamo, R. Cammi, 
 J. W. Ochterski, R. L. Martin, K. Morokuma, O. Farkas, 
 J. B. Foresman, and D. J. Fox, Gaussian, Inc., Wallingford CT, 2016.
 
 ******************************************
 Gaussian 16:  ES64L-G16RevA.03 25-Dec-2016
                19-Jun-2021 
 ******************************************
 %chk=checkpoint.chk
 %nprocshared=16
 Will use up to   16 processors via shared memory.
 %mem=16GB
 -----------------------------------------------------------
 #p opt=modredundant freq=noraman ub3lyp jul-cc-pvdz pop=cm5
 -----------------------------------------------------------
 1/18=120,19=15,26=3,38=1/1,3;
 2/9=110,12=2,17=6,18=5,40=1/2;
 3/5=16,7=50,11=2,25=1,30=1,71=1,74=-5,116=2/1,2,3;
 4//1;
 5/5=2,38=5/2;
 6/7=2,8=2,9=2,10=2,28=1,79=1/1;
 7//1,2,3,16;
 1/18=20,19=15,26=3/3(2);
 2/9=110/2;
 99//99;
 2/9=110/2;
 3/5=16,7=50,11=2,25=1,30=1,71=1,74=-5,116=2/1,2,3;
 4/5=5,16=3,69=1/1;
 5/5=2,38=5/2;
 7//1,2,3,16;
 1/18=20,19=15,26=3/3(-5);
 2/9=110/2;
 6/7=2,8=2,9=2,10=2,19=2,28=1,79=1/1;
 99/9=1/99;
 Leave Link    1 at Sat Jun 19 21:34:33 2021, MaxMem=  2147483648 cpu:               1.4 elap:               0.1
 (Enter /SFS/product/gaussian/g16.a03/x86_64/avx/g16/l101.exe)
 -----
 title
 -----
 Symbolic Z-matrix:
 Charge =  0 Multiplicity = 6
 6                     1.76758  -1.81861   1.74745 
 6                     1.22596  -0.72328   1.05628 
 6                     1.48952   0.56347   1.54922 
 6                     2.25723   0.74665   2.69862 
 6                     2.7843   -0.35087   3.37941 
 6                     2.53741  -1.63496   2.89701 
 6                     0.41177  -0.85334  -0.25353 
 6                     1.38709  -1.02802  -1.48875 
 6                     1.78728  -2.49977  -1.48802 
 6                     0.52766  -3.28343  -1.06383 
 6                    -0.37069  -2.24859  -0.2214 
 6                    -1.67697  -2.42225  -0.86346 
 6                    -2.04859  -1.75216  -2.10302 
 8                    -0.38601   0.25497  -0.45608 
 26                   -1.79443   1.15051   0.30337 
 17                   -3.32212   1.33819  -1.35275 
 6                    -2.67091  -3.28361  -0.1917 
 17                   -1.23609   3.11413   1.12462 
 17                   -2.65275  -0.29302   1.80243 
 1                     1.08436   1.42541   1.03453 
 1                     2.4339    1.75441   3.06386 
 1                     3.37858  -0.20768   4.27751 
 1                     2.93961  -2.50146   3.4149 
 1                     1.59937  -2.83653   1.4087 
 1                     0.79546  -0.77095  -2.37426 
 6                     2.59054  -0.09557  -1.46566 
 1                     2.15331  -2.83353  -2.4634 
 1                     2.59656  -2.64925  -0.76899 
 1                    -0.00191  -3.65494  -1.94891 
 1                     0.73975  -4.15666  -0.44116 
 1                    -0.4475   -2.59206   0.81029 
 1                    -2.20509  -4.0879    0.38619 
 1                    -3.14657  -2.61423   0.55207 
 1                    -3.44363  -3.6669   -0.86056 
 1                    -2.77977  -2.31002  -2.69348 
 1                    -2.5655   -0.80685  -1.78221 
 1                    -1.20706  -1.40806  -2.70325 
 8                     2.22886   1.16594  -1.74385 
 8                     3.72795  -0.44953  -1.23426 
 6                     3.27874   2.16495  -1.68364 
 6                     2.64106   3.50915  -1.97725 
 1                     3.73196   2.12887  -0.68828 
 1                     4.05184   1.90168  -2.41281 
 1                     3.40207   4.29606  -1.93386 
 1                     2.19098   3.51966  -2.97504 
 1                     1.86066   3.74008  -1.2456 
 
 The following ModRedundant input section has been read:
 B       7      11 F                                                           
 B      12      14 F                                                           
 
 ITRead=  0  0  0  0  0  0  0  0  0  0  0  0  0  0  0  0  0  0  0  0
 ITRead=  0  0  0  0  0  0  0  0  0  0  0  0  0  0  0  0  0  0  0  0
 ITRead=  0  0  0  0  0  0
 MicOpt= -1 -1 -1 -1 -1 -1 -1 -1 -1 -1 -1 -1 -1 -1 -1 -1 -1 -1 -1 -1
 MicOpt= -1 -1 -1 -1 -1 -1 -1 -1 -1 -1 -1 -1 -1 -1 -1 -1 -1 -1 -1 -1
 MicOpt= -1 -1 -1 -1 -1 -1
 NAtoms=     46 NQM=       46 NQMF=       0 NMMI=      0 NMMIF=      0
                NMic=       0 NMicF=      0.
                    Isotopes and Nuclear Properties:
 (Nuclear quadrupole moments (NQMom) in fm**2, nuclear magnetic moments (NMagM)
  in nuclear magnetons)

  Atom         1           2           3           4           5           6           7           8           9          10
 IAtWgt=          12          12          12          12          12          12          12          12          12          12
 AtmWgt=  12.0000000  12.0000000  12.0000000  12.0000000  12.0000000  12.0000000  12.0000000  12.0000000  12.0000000  12.0000000
 NucSpn=           0           0           0           0           0           0           0           0           0           0
 AtZEff=  -0.0000000  -0.0000000  -0.0000000  -0.0000000  -0.0000000  -0.0000000  -0.0000000  -0.0000000  -0.0000000  -0.0000000
 NQMom=    0.0000000   0.0000000   0.0000000   0.0000000   0.0000000   0.0000000   0.0000000   0.0000000   0.0000000   0.0000000
 NMagM=    0.0000000   0.0000000   0.0000000   0.0000000   0.0000000   0.0000000   0.0000000   0.0000000   0.0000000   0.0000000
 AtZNuc=   6.0000000   6.0000000   6.0000000   6.0000000   6.0000000   6.0000000   6.0000000   6.0000000   6.0000000   6.0000000

  Atom        11          12          13          14          15          16          17          18          19          20
 IAtWgt=          12          12          12          16          56          35          12          35          35           1
 AtmWgt=  12.0000000  12.0000000  12.0000000  15.9949146  55.9349393  34.9688527  12.0000000  34.9688527  34.9688527   1.0078250
 NucSpn=           0           0           0           0           0           3           0           3           3           1
 AtZEff=  -0.0000000  -0.0000000  -0.0000000  -0.0000000  -0.0000000  -0.0000000  -0.0000000  -0.0000000  -0.0000000  -0.0000000
 NQMom=    0.0000000   0.0000000   0.0000000   0.0000000   0.0000000  -8.1650000   0.0000000  -8.1650000  -8.1650000   0.0000000
 NMagM=    0.0000000   0.0000000   0.0000000   0.0000000   0.0000000   0.8218740   0.0000000   0.8218740   0.8218740   2.7928460
 AtZNuc=   6.0000000   6.0000000   6.0000000   8.0000000  26.0000000  17.0000000   6.0000000  17.0000000  17.0000000   1.0000000

  Atom        21          22          23          24          25          26          27          28          29          30
 IAtWgt=           1           1           1           1           1          12           1           1           1           1
 AtmWgt=   1.0078250   1.0078250   1.0078250   1.0078250   1.0078250  12.0000000   1.0078250   1.0078250   1.0078250   1.0078250
 NucSpn=           1           1           1           1           1           0           1           1           1           1
 AtZEff=  -0.0000000  -0.0000000  -0.0000000  -0.0000000  -0.0000000  -0.0000000  -0.0000000  -0.0000000  -0.0000000  -0.0000000
 NQMom=    0.0000000   0.0000000   0.0000000   0.0000000   0.0000000   0.0000000   0.0000000   0.0000000   0.0000000   0.0000000
 NMagM=    2.7928460   2.7928460   2.7928460   2.7928460   2.7928460   0.0000000   2.7928460   2.7928460   2.7928460   2.7928460
 AtZNuc=   1.0000000   1.0000000   1.0000000   1.0000000   1.0000000   6.0000000   1.0000000   1.0000000   1.0000000   1.0000000

  Atom        31          32          33          34          35          36          37          38          39          40
 IAtWgt=           1           1           1           1           1           1           1          16          16          12
 AtmWgt=   1.0078250   1.0078250   1.0078250   1.0078250   1.0078250   1.0078250   1.0078250  15.9949146  15.9949146  12.0000000
 NucSpn=           1           1           1           1           1           1           1           0           0           0
 AtZEff=  -0.0000000  -0.0000000  -0.0000000  -0.0000000  -0.0000000  -0.0000000  -0.0000000  -0.0000000  -0.0000000  -0.0000000
 NQMom=    0.0000000   0.0000000   0.0000000   0.0000000   0.0000000   0.0000000   0.0000000   0.0000000   0.0000000   0.0000000
 NMagM=    2.7928460   2.7928460   2.7928460   2.7928460   2.7928460   2.7928460   2.7928460   0.0000000   0.0000000   0.0000000
 AtZNuc=   1.0000000   1.0000000   1.0000000   1.0000000   1.0000000   1.0000000   1.0000000   8.0000000   8.0000000   6.0000000

  Atom        41          42          43          44          45          46
 IAtWgt=          12           1           1           1           1           1
 AtmWgt=  12.0000000   1.0078250   1.0078250   1.0078250   1.0078250   1.0078250
 NucSpn=           0           1           1           1           1           1
 AtZEff=  -0.0000000  -0.0000000  -0.0000000  -0.0000000  -0.0000000  -0.0000000
 NQMom=    0.0000000   0.0000000   0.0000000   0.0000000   0.0000000   0.0000000
 NMagM=    0.0000000   2.7928460   2.7928460   2.7928460   2.7928460   2.7928460
 AtZNuc=   6.0000000   1.0000000   1.0000000   1.0000000   1.0000000   1.0000000
 Leave Link  101 at Sat Jun 19 21:34:34 2021, MaxMem=  2147483648 cpu:               5.4 elap:               0.4
 (Enter /SFS/product/gaussian/g16.a03/x86_64/avx/g16/l103.exe)

 GradGradGradGradGradGradGradGradGradGradGradGradGradGradGradGradGradGrad
 Berny optimization.
 Initialization pass.
                           ----------------------------
                           !    Initial Parameters    !
                           ! (Angstroms and Degrees)  !
 --------------------------                            --------------------------
 ! Name  Definition              Value          Derivative Info.                !
 --------------------------------------------------------------------------------
 ! R1    R(1,2)                  1.4039         estimate D2E/DX2                !
 ! R2    R(1,6)                  1.3957         estimate D2E/DX2                !
 ! R3    R(1,24)                 1.0859         estimate D2E/DX2                !
 ! R4    R(2,3)                  1.4029         estimate D2E/DX2                !
 ! R5    R(2,7)                  1.5477         estimate D2E/DX2                !
 ! R6    R(3,4)                  1.3943         estimate D2E/DX2                !
 ! R7    R(3,20)                 1.0826         estimate D2E/DX2                !
 ! R8    R(4,5)                  1.3949         estimate D2E/DX2                !
 ! R9    R(4,21)                 1.0864         estimate D2E/DX2                !
 ! R10   R(5,6)                  1.3938         estimate D2E/DX2                !
 ! R11   R(5,22)                 1.0864         estimate D2E/DX2                !
 ! R12   R(6,23)                 1.0866         estimate D2E/DX2                !
 ! R13   R(7,8)                  1.5835         estimate D2E/DX2                !
 ! R14   R(7,11)                 1.6            Frozen                          !
 ! R15   R(7,14)                 1.3805         estimate D2E/DX2                !
 ! R16   R(8,9)                  1.5252         estimate D2E/DX2                !
 ! R17   R(8,25)                 1.0956         estimate D2E/DX2                !
 ! R18   R(8,26)                 1.5226         estimate D2E/DX2                !
 ! R19   R(9,10)                 1.543          estimate D2E/DX2                !
 ! R20   R(9,27)                 1.094          estimate D2E/DX2                !
 ! R21   R(9,28)                 1.0928         estimate D2E/DX2                !
 ! R22   R(10,11)                1.6086         estimate D2E/DX2                !
 ! R23   R(10,29)                1.0963         estimate D2E/DX2                !
 ! R24   R(10,30)                1.0933         estimate D2E/DX2                !
 ! R25   R(11,12)                1.4659         estimate D2E/DX2                !
 ! R26   R(11,31)                1.0901         estimate D2E/DX2                !
 ! R27   R(12,13)                1.4573         estimate D2E/DX2                !
 ! R28   R(12,14)                3.0            Frozen                          !
 ! R29   R(12,17)                1.4769         estimate D2E/DX2                !
 ! R30   R(13,35)                1.0929         estimate D2E/DX2                !
 ! R31   R(13,36)                1.1242         estimate D2E/DX2                !
 ! R32   R(13,37)                1.0894         estimate D2E/DX2                !
 ! R33   R(14,15)                1.8337         estimate D2E/DX2                !
 ! R34   R(15,16)                2.2609         estimate D2E/DX2                !
 ! R35   R(15,18)                2.2005         estimate D2E/DX2                !
 ! R36   R(15,19)                2.2511         estimate D2E/DX2                !
 ! R37   R(17,32)                1.0944         estimate D2E/DX2                !
 ! R38   R(17,33)                1.1079         estimate D2E/DX2                !
 ! R39   R(17,34)                1.0915         estimate D2E/DX2                !
 ! R40   R(26,38)                1.3415         estimate D2E/DX2                !
 ! R41   R(26,39)                1.2135         estimate D2E/DX2                !
 ! R42   R(38,40)                1.4505         estimate D2E/DX2                !
 ! R43   R(40,41)                1.5165         estimate D2E/DX2                !
 ! R44   R(40,42)                1.0943         estimate D2E/DX2                !
 ! R45   R(40,43)                1.0948         estimate D2E/DX2                !
 ! R46   R(41,44)                1.0956         estimate D2E/DX2                !
 ! R47   R(41,45)                1.0946         estimate D2E/DX2                !
 ! R48   R(41,46)                1.0944         estimate D2E/DX2                !
 ! A1    A(2,1,6)              121.0418         estimate D2E/DX2                !
 ! A2    A(2,1,24)             121.2001         estimate D2E/DX2                !
 ! A3    A(6,1,24)             117.7578         estimate D2E/DX2                !
 ! A4    A(1,2,3)              118.0443         estimate D2E/DX2                !
 ! A5    A(1,2,7)              123.6453         estimate D2E/DX2                !
 ! A6    A(3,2,7)              118.246          estimate D2E/DX2                !
 ! A7    A(2,3,4)              120.9034         estimate D2E/DX2                !
 ! A8    A(2,3,20)             119.5311         estimate D2E/DX2                !
 ! A9    A(4,3,20)             119.5636         estimate D2E/DX2                !
 ! A10   A(3,4,5)              120.4642         estimate D2E/DX2                !
 ! A11   A(3,4,21)             119.2463         estimate D2E/DX2                !
 ! A12   A(5,4,21)             120.2875         estimate D2E/DX2                !
 ! A13   A(4,5,6)              119.2775         estimate D2E/DX2                !
 ! A14   A(4,5,22)             120.4273         estimate D2E/DX2                !
 ! A15   A(6,5,22)             120.295          estimate D2E/DX2                !
 ! A16   A(1,6,5)              120.2667         estimate D2E/DX2                !
 ! A17   A(1,6,23)             119.4581         estimate D2E/DX2                !
 ! A18   A(5,6,23)             120.2748         estimate D2E/DX2                !
 ! A19   A(2,7,8)              110.2066         estimate D2E/DX2                !
 ! A20   A(2,7,11)             108.2735         estimate D2E/DX2                !
 ! A21   A(2,7,14)             111.1436         estimate D2E/DX2                !
 ! A22   A(8,7,11)             102.749          estimate D2E/DX2                !
 ! A23   A(8,7,14)             109.2712         estimate D2E/DX2                !
 ! A24   A(11,7,14)            114.8608         estimate D2E/DX2                !
 ! A25   A(7,8,9)              105.526          estimate D2E/DX2                !
 ! A26   A(7,8,25)             105.7832         estimate D2E/DX2                !
 ! A27   A(7,8,26)             114.044          estimate D2E/DX2                !
 ! A28   A(9,8,25)             111.6233         estimate D2E/DX2                !
 ! A29   A(9,8,26)             112.5545         estimate D2E/DX2                !
 ! A30   A(25,8,26)            107.181          estimate D2E/DX2                !
 ! A31   A(8,9,10)             106.0235         estimate D2E/DX2                !
 ! A32   A(8,9,27)             112.4435         estimate D2E/DX2                !
 ! A33   A(8,9,28)             109.0628         estimate D2E/DX2                !
 ! A34   A(10,9,27)            111.3043         estimate D2E/DX2                !
 ! A35   A(10,9,28)            110.7443         estimate D2E/DX2                !
 ! A36   A(27,9,28)            107.2846         estimate D2E/DX2                !
 ! A37   A(9,10,11)            105.852          estimate D2E/DX2                !
 ! A38   A(9,10,29)            110.152          estimate D2E/DX2                !
 ! A39   A(9,10,30)            113.8208         estimate D2E/DX2                !
 ! A40   A(11,10,29)           111.78           estimate D2E/DX2                !
 ! A41   A(11,10,30)           108.8995         estimate D2E/DX2                !
 ! A42   A(29,10,30)           106.4314         estimate D2E/DX2                !
 ! A43   A(7,11,10)            106.1029         estimate D2E/DX2                !
 ! A44   A(7,11,12)            122.0267         estimate D2E/DX2                !
 ! A45   A(7,11,31)            109.1609         estimate D2E/DX2                !
 ! A46   A(10,11,12)           101.074          estimate D2E/DX2                !
 ! A47   A(10,11,31)           109.4087         estimate D2E/DX2                !
 ! A48   A(12,11,31)           108.3262         estimate D2E/DX2                !
 ! A49   A(11,12,13)           123.048          estimate D2E/DX2                !
 ! A50   A(11,12,17)           118.0086         estimate D2E/DX2                !
 ! A51   A(13,12,17)           118.9123         estimate D2E/DX2                !
 ! A52   A(12,13,35)           113.2933         estimate D2E/DX2                !
 ! A53   A(12,13,36)           105.1399         estimate D2E/DX2                !
 ! A54   A(12,13,37)           114.6394         estimate D2E/DX2                !
 ! A55   A(35,13,36)           106.0088         estimate D2E/DX2                !
 ! A56   A(35,13,37)           112.3549         estimate D2E/DX2                !
 ! A57   A(36,13,37)           104.2894         estimate D2E/DX2                !
 ! A58   A(7,14,15)            140.8215         estimate D2E/DX2                !
 ! A59   A(14,15,16)           104.8418         estimate D2E/DX2                !
 ! A60   A(14,15,18)           113.2975         estimate D2E/DX2                !
 ! A61   A(14,15,19)           104.8021         estimate D2E/DX2                !
 ! A62   A(16,15,18)           111.7619         estimate D2E/DX2                !
 ! A63   A(16,15,19)           106.4618         estimate D2E/DX2                !
 ! A64   A(18,15,19)           114.8624         estimate D2E/DX2                !
 ! A65   A(12,17,32)           112.4784         estimate D2E/DX2                !
 ! A66   A(12,17,33)           103.9993         estimate D2E/DX2                !
 ! A67   A(12,17,34)           113.736          estimate D2E/DX2                !
 ! A68   A(32,17,33)           105.7992         estimate D2E/DX2                !
 ! A69   A(32,17,34)           111.5193         estimate D2E/DX2                !
 ! A70   A(33,17,34)           108.6387         estimate D2E/DX2                !
 ! A71   A(8,26,38)            111.0793         estimate D2E/DX2                !
 ! A72   A(8,26,39)            124.409          estimate D2E/DX2                !
 ! A73   A(38,26,39)           124.5102         estimate D2E/DX2                !
 ! A74   A(26,38,40)           116.3548         estimate D2E/DX2                !
 ! A75   A(38,40,41)           107.3436         estimate D2E/DX2                !
 ! A76   A(38,40,42)           108.3509         estimate D2E/DX2                !
 ! A77   A(38,40,43)           108.5327         estimate D2E/DX2                !
 ! A78   A(41,40,42)           112.3026         estimate D2E/DX2                !
 ! A79   A(41,40,43)           112.4032         estimate D2E/DX2                !
 ! A80   A(42,40,43)           107.7823         estimate D2E/DX2                !
 ! A81   A(40,41,44)           109.6891         estimate D2E/DX2                !
 ! A82   A(40,41,45)           110.9704         estimate D2E/DX2                !
 ! A83   A(40,41,46)           110.944          estimate D2E/DX2                !
 ! A84   A(44,41,45)           108.349          estimate D2E/DX2                !
 ! A85   A(44,41,46)           108.4995         estimate D2E/DX2                !
 ! A86   A(45,41,46)           108.311          estimate D2E/DX2                !
 ! D1    D(6,1,2,3)              0.4729         estimate D2E/DX2                !
 ! D2    D(6,1,2,7)            177.4977         estimate D2E/DX2                !
 ! D3    D(24,1,2,3)          -179.7479         estimate D2E/DX2                !
 ! D4    D(24,1,2,7)            -2.7231         estimate D2E/DX2                !
 ! D5    D(2,1,6,5)             -0.1057         estimate D2E/DX2                !
 ! D6    D(2,1,6,23)           179.6682         estimate D2E/DX2                !
 ! D7    D(24,1,6,5)          -179.8923         estimate D2E/DX2                !
 ! D8    D(24,1,6,23)           -0.1184         estimate D2E/DX2                !
 ! D9    D(1,2,3,4)             -0.5529         estimate D2E/DX2                !
 ! D10   D(1,2,3,20)           179.9542         estimate D2E/DX2                !
 ! D11   D(7,2,3,4)           -177.7414         estimate D2E/DX2                !
 ! D12   D(7,2,3,20)             2.7657         estimate D2E/DX2                !
 ! D13   D(1,2,7,8)            -80.3454         estimate D2E/DX2                !
 ! D14   D(1,2,7,11)            31.3195         estimate D2E/DX2                !
 ! D15   D(1,2,7,14)           158.3617         estimate D2E/DX2                !
 ! D16   D(3,2,7,8)             96.6738         estimate D2E/DX2                !
 ! D17   D(3,2,7,11)          -151.6613         estimate D2E/DX2                !
 ! D18   D(3,2,7,14)           -24.6191         estimate D2E/DX2                !
 ! D19   D(2,3,4,5)              0.2677         estimate D2E/DX2                !
 ! D20   D(2,3,4,21)          -179.2162         estimate D2E/DX2                !
 ! D21   D(20,3,4,5)           179.7605         estimate D2E/DX2                !
 ! D22   D(20,3,4,21)            0.2765         estimate D2E/DX2                !
 ! D23   D(3,4,5,6)              0.113          estimate D2E/DX2                !
 ! D24   D(3,4,5,22)          -179.7179         estimate D2E/DX2                !
 ! D25   D(21,4,5,6)           179.5915         estimate D2E/DX2                !
 ! D26   D(21,4,5,22)           -0.2393         estimate D2E/DX2                !
 ! D27   D(4,5,6,1)             -0.1929         estimate D2E/DX2                !
 ! D28   D(4,5,6,23)          -179.9649         estimate D2E/DX2                !
 ! D29   D(22,5,6,1)           179.6382         estimate D2E/DX2                !
 ! D30   D(22,5,6,23)           -0.1338         estimate D2E/DX2                !
 ! D31   D(2,7,8,9)             80.4639         estimate D2E/DX2                !
 ! D32   D(2,7,8,25)          -161.1136         estimate D2E/DX2                !
 ! D33   D(2,7,8,26)           -43.5821         estimate D2E/DX2                !
 ! D34   D(11,7,8,9)           -34.7399         estimate D2E/DX2                !
 ! D35   D(11,7,8,25)           83.6826         estimate D2E/DX2                !
 ! D36   D(11,7,8,26)         -158.7859         estimate D2E/DX2                !
 ! D37   D(14,7,8,9)          -157.1337         estimate D2E/DX2                !
 ! D38   D(14,7,8,25)          -38.7111         estimate D2E/DX2                !
 ! D39   D(14,7,8,26)           78.8203         estimate D2E/DX2                !
 ! D40   D(2,7,11,10)          -97.3368         estimate D2E/DX2                !
 ! D41   D(2,7,11,12)          148.0562         estimate D2E/DX2                !
 ! D42   D(2,7,11,31)           20.4686         estimate D2E/DX2                !
 ! D43   D(8,7,11,10)           19.2565         estimate D2E/DX2                !
 ! D44   D(8,7,11,12)          -95.3504         estimate D2E/DX2                !
 ! D45   D(8,7,11,31)          137.062          estimate D2E/DX2                !
 ! D46   D(14,7,11,10)         137.797          estimate D2E/DX2                !
 ! D47   D(14,7,11,12)          23.1901         estimate D2E/DX2                !
 ! D48   D(14,7,11,31)        -104.3976         estimate D2E/DX2                !
 ! D49   D(2,7,14,15)          -63.0428         estimate D2E/DX2                !
 ! D50   D(8,7,14,15)          175.118          estimate D2E/DX2                !
 ! D51   D(11,7,14,15)          60.305          estimate D2E/DX2                !
 ! D52   D(7,8,9,10)            37.4564         estimate D2E/DX2                !
 ! D53   D(7,8,9,27)           159.3006         estimate D2E/DX2                !
 ! D54   D(7,8,9,28)           -81.8274         estimate D2E/DX2                !
 ! D55   D(25,8,9,10)          -76.9871         estimate D2E/DX2                !
 ! D56   D(25,8,9,27)           44.8571         estimate D2E/DX2                !
 ! D57   D(25,8,9,28)          163.7291         estimate D2E/DX2                !
 ! D58   D(26,8,9,10)          162.4353         estimate D2E/DX2                !
 ! D59   D(26,8,9,27)          -75.7205         estimate D2E/DX2                !
 ! D60   D(26,8,9,28)           43.1515         estimate D2E/DX2                !
 ! D61   D(7,8,26,38)          -72.6181         estimate D2E/DX2                !
 ! D62   D(7,8,26,39)          107.8133         estimate D2E/DX2                !
 ! D63   D(9,8,26,38)          167.2043         estimate D2E/DX2                !
 ! D64   D(9,8,26,39)          -12.3643         estimate D2E/DX2                !
 ! D65   D(25,8,26,38)          44.1061         estimate D2E/DX2                !
 ! D66   D(25,8,26,39)        -135.4624         estimate D2E/DX2                !
 ! D67   D(8,9,10,11)          -24.3335         estimate D2E/DX2                !
 ! D68   D(8,9,10,29)           96.6686         estimate D2E/DX2                !
 ! D69   D(8,9,10,30)         -143.8997         estimate D2E/DX2                !
 ! D70   D(27,9,10,11)        -146.9037         estimate D2E/DX2                !
 ! D71   D(27,9,10,29)         -25.9016         estimate D2E/DX2                !
 ! D72   D(27,9,10,30)          93.5301         estimate D2E/DX2                !
 ! D73   D(28,9,10,11)          93.8397         estimate D2E/DX2                !
 ! D74   D(28,9,10,29)        -145.1583         estimate D2E/DX2                !
 ! D75   D(28,9,10,30)         -25.7266         estimate D2E/DX2                !
 ! D76   D(9,10,11,7)            2.3936         estimate D2E/DX2                !
 ! D77   D(9,10,11,12)         130.6328         estimate D2E/DX2                !
 ! D78   D(9,10,11,31)        -115.2469         estimate D2E/DX2                !
 ! D79   D(29,10,11,7)        -117.5482         estimate D2E/DX2                !
 ! D80   D(29,10,11,12)         10.691          estimate D2E/DX2                !
 ! D81   D(29,10,11,31)        124.8113         estimate D2E/DX2                !
 ! D82   D(30,10,11,7)         125.1442         estimate D2E/DX2                !
 ! D83   D(30,10,11,12)       -106.6166         estimate D2E/DX2                !
 ! D84   D(30,10,11,31)          7.5037         estimate D2E/DX2                !
 ! D85   D(7,11,12,13)          34.9398         estimate D2E/DX2                !
 ! D86   D(7,11,12,17)        -143.0054         estimate D2E/DX2                !
 ! D87   D(10,11,12,13)        -82.176          estimate D2E/DX2                !
 ! D88   D(10,11,12,17)         99.8788         estimate D2E/DX2                !
 ! D89   D(31,11,12,13)        162.8929         estimate D2E/DX2                !
 ! D90   D(31,11,12,17)        -15.0522         estimate D2E/DX2                !
 ! D91   D(11,12,13,35)        151.6624         estimate D2E/DX2                !
 ! D92   D(11,12,13,36)        -93.0259         estimate D2E/DX2                !
 ! D93   D(11,12,13,37)         20.8909         estimate D2E/DX2                !
 ! D94   D(17,12,13,35)        -30.4101         estimate D2E/DX2                !
 ! D95   D(17,12,13,36)         84.9016         estimate D2E/DX2                !
 ! D96   D(17,12,13,37)       -161.1816         estimate D2E/DX2                !
 ! D97   D(11,12,17,32)        -30.4823         estimate D2E/DX2                !
 ! D98   D(11,12,17,33)         83.5237         estimate D2E/DX2                !
 ! D99   D(11,12,17,34)       -158.4779         estimate D2E/DX2                !
 ! D100  D(13,12,17,32)        151.4853         estimate D2E/DX2                !
 ! D101  D(13,12,17,33)        -94.5087         estimate D2E/DX2                !
 ! D102  D(13,12,17,34)         23.4897         estimate D2E/DX2                !
 ! D103  D(7,14,15,16)        -126.8264         estimate D2E/DX2                !
 ! D104  D(7,14,15,18)         111.0529         estimate D2E/DX2                !
 ! D105  D(7,14,15,19)         -14.9106         estimate D2E/DX2                !
 ! D106  D(8,26,38,40)         176.8778         estimate D2E/DX2                !
 ! D107  D(39,26,38,40)         -3.5541         estimate D2E/DX2                !
 ! D108  D(26,38,40,41)       -177.8651         estimate D2E/DX2                !
 ! D109  D(26,38,40,42)        -56.3672         estimate D2E/DX2                !
 ! D110  D(26,38,40,43)         60.4124         estimate D2E/DX2                !
 ! D111  D(38,40,41,44)        179.5657         estimate D2E/DX2                !
 ! D112  D(38,40,41,45)        -60.7501         estimate D2E/DX2                !
 ! D113  D(38,40,41,46)         59.7112         estimate D2E/DX2                !
 ! D114  D(42,40,41,44)         60.5794         estimate D2E/DX2                !
 ! D115  D(42,40,41,45)       -179.7365         estimate D2E/DX2                !
 ! D116  D(42,40,41,46)        -59.2751         estimate D2E/DX2                !
 ! D117  D(43,40,41,44)        -61.1653         estimate D2E/DX2                !
 ! D118  D(43,40,41,45)         58.5189         estimate D2E/DX2                !
 ! D119  D(43,40,41,46)        178.9802         estimate D2E/DX2                !
 --------------------------------------------------------------------------------
 Trust Radius=3.00D-01 FncErr=1.00D-07 GrdErr=1.00D-06 EigMax=2.50D+02 EigMin=1.00D-04
 Number of steps in this run=    263 maximum allowed number of steps=    276.
 GradGradGradGradGradGradGradGradGradGradGradGradGradGradGradGradGradGrad

 Leave Link  103 at Sat Jun 19 21:34:34 2021, MaxMem=  2147483648 cpu:               0.2 elap:               0.1
 (Enter /SFS/product/gaussian/g16.a03/x86_64/avx/g16/l202.exe)
                          Input orientation:                          
 ---------------------------------------------------------------------
 Center     Atomic      Atomic             Coordinates (Angstroms)
 Number     Number       Type             X           Y           Z
 ---------------------------------------------------------------------
      1          6           0        1.767584   -1.818608    1.747445
      2          6           0        1.225960   -0.723284    1.056283
      3          6           0        1.489522    0.563471    1.549219
      4          6           0        2.257233    0.746652    2.698623
      5          6           0        2.784295   -0.350868    3.379407
      6          6           0        2.537412   -1.634958    2.897006
      7          6           0        0.411774   -0.853343   -0.253525
      8          6           0        1.387092   -1.028015   -1.488746
      9          6           0        1.787276   -2.499773   -1.488019
     10          6           0        0.527657   -3.283433   -1.063826
     11          6           0       -0.370694   -2.248591   -0.221403
     12          6           0       -1.676974   -2.422245   -0.863455
     13          6           0       -2.048590   -1.752155   -2.103021
     14          8           0       -0.386014    0.254966   -0.456076
     15         26           0       -1.794427    1.150505    0.303373
     16         17           0       -3.322121    1.338189   -1.352752
     17          6           0       -2.670912   -3.283611   -0.191695
     18         17           0       -1.236094    3.114129    1.124621
     19         17           0       -2.652748   -0.293017    1.802428
     20          1           0        1.084356    1.425410    1.034526
     21          1           0        2.433895    1.754414    3.063865
     22          1           0        3.378575   -0.207682    4.277510
     23          1           0        2.939609   -2.501463    3.414899
     24          1           0        1.599367   -2.836526    1.408699
     25          1           0        0.795458   -0.770947   -2.374262
     26          6           0        2.590535   -0.095565   -1.465660
     27          1           0        2.153310   -2.833533   -2.463400
     28          1           0        2.596564   -2.649251   -0.768989
     29          1           0       -0.001909   -3.654942   -1.948905
     30          1           0        0.739754   -4.156656   -0.441157
     31          1           0       -0.447504   -2.592055    0.810290
     32          1           0       -2.205091   -4.087900    0.386186
     33          1           0       -3.146574   -2.614230    0.552068
     34          1           0       -3.443630   -3.666904   -0.860564
     35          1           0       -2.779766   -2.310019   -2.693476
     36          1           0       -2.565495   -0.806848   -1.782206
     37          1           0       -1.207062   -1.408057   -2.703252
     38          8           0        2.228862    1.165940   -1.743849
     39          8           0        3.727947   -0.449534   -1.234255
     40          6           0        3.278735    2.164947   -1.683639
     41          6           0        2.641058    3.509149   -1.977252
     42          1           0        3.731963    2.128867   -0.688278
     43          1           0        4.051842    1.901679   -2.412808
     44          1           0        3.402070    4.296062   -1.933864
     45          1           0        2.190985    3.519662   -2.975036
     46          1           0        1.860656    3.740080   -1.245595
 ---------------------------------------------------------------------
                    Distance matrix (angstroms):
                    1          2          3          4          5
     1  C    0.000000
     2  C    1.403850   0.000000
     3  C    2.406431   1.402922   0.000000
     4  C    2.779398   2.433417   1.394297   0.000000
     5  C    2.418938   2.822057   2.421165   1.394923   0.000000
     6  C    1.395655   2.437071   2.783468   2.406226   1.393754
     7  C    2.602660   1.547712   2.533533   3.831564   4.368012
     8  C    3.353020   2.568267   3.431115   4.630405   5.109757
     9  C    3.306448   3.153484   4.323995   5.318656   5.413287
    10  C    3.403877   3.396594   4.748880   5.778325   5.782272
    11  C    2.938279   2.551146   3.808307   4.940044   5.149868
    12  C    4.364190   3.872840   4.976162   6.181286   6.495799
    13  C    5.421595   4.665025   5.587416   6.916642   7.441599
    14  O    3.713920   2.417160   2.762973   4.144953   5.012866
    15  Fe   4.856840   3.633276   3.561048   4.724010   5.716712
    16  Cl   6.744011   5.544201   5.672172   6.920459   7.907880
    17  C    5.060311   4.826835   5.927903   6.991679   7.149338
    18  Cl   5.808777   4.559838   3.757010   4.503972   5.766610
    19  Cl   4.676514   3.973190   4.237462   5.098234   5.661417
    20  H    3.390974   2.153465   1.082593   2.146060   3.397561
    21  H    3.865672   3.410056   2.145772   1.086368   2.157443
    22  H    3.404644   3.908440   3.406871   2.158945   1.086398
    23  H    2.149497   3.414906   3.870056   3.395429   2.156488
    24  H    1.085911   2.174723   3.404672   3.864694   3.386184
    25  H    4.362464   3.457780   4.201916   5.493092   6.102184
    26  C    3.737669   2.935352   3.276592   4.261651   4.855656
    27  H    4.348571   4.207291   5.299185   6.282914   6.379668
    28  H    2.776619   2.986557   4.113540   4.865351   4.746261
    29  H    4.490683   4.374178   5.679458   6.788024   6.860812
    30  H    3.363463   3.777137   5.177195   6.016925   5.767225
    31  H    2.526479   2.520575   3.775636   4.693439   4.697638
    32  H    4.773349   4.851987   6.052938   6.973707   6.915110
    33  H    5.119657   4.790508   5.708369   6.715978   6.949235
    34  H    6.113482   5.843310   6.931026   8.040344   8.231677
    35  H    6.375081   5.711765   6.669650   7.986822   8.466224
    36  H    5.679583   4.736996   5.423959   6.763867   7.447847
    37  H    5.368964   4.530189   5.407587   6.769370   7.351688
    38  O    4.616215   3.523595   3.428395   4.462305   5.371868
    39  O    3.822031   3.403152   3.712742   4.365935   4.710211
    40  C    5.470341   4.479167   4.027081   4.717971   5.675230
    41  C    6.559064   5.396140   4.736988   5.444494   6.604093
    42  H    5.037270   4.178314   3.533468   3.944166   4.857285
    43  H    6.030429   5.187546   4.904482   5.539083   6.342744
    44  H    7.322074   6.234602   5.451783   5.947176   7.085651
    45  H    7.139903   5.931728   5.449771   6.315408   7.464045
    46  H    6.313950   5.061926   4.247302   4.967368   6.243365
                    6          7          8          9         10
     6  C    0.000000
     7  C    3.880091   0.000000
     8  C    4.574542   1.583517   0.000000
     9  C    4.532003   2.475220   1.525195   0.000000
    10  C    4.737592   2.564245   2.450734   1.542953   0.000000
    11  C    4.307911   1.600002   2.487122   2.514805   1.608605
    12  C    5.702801   2.682599   3.423940   3.520954   2.375330
    13  C    6.785678   3.206539   3.564495   3.956138   3.172032
    14  O    4.833362   1.380522   2.419990   3.657415   3.704649
    15  Fe   5.766330   3.031974   4.252023   5.418691   5.188556
    16  Cl   7.825227   4.466888   5.272011   6.391728   6.021931
    17  C    6.275729   3.925937   4.820524   4.708535   3.315337
    18  Cl   6.319377   4.511717   5.555911   6.890758   6.987769
    19  Cl   5.471441   3.732587   5.262353   5.950683   5.222353
    20  H    3.866013   2.702620   3.532399   4.718516   5.185190
    21  H    3.395055   4.679150   5.437276   6.263854   6.786124
    22  H    2.156493   5.454270   6.155376   6.405251   6.791012
    23  H    1.086649   4.750114   5.350429   5.036515   5.146646
    24  H    2.130435   2.847171   3.422128   2.922274   2.731605
    25  H    5.618468   2.156740   1.095561   2.181277   2.846321
    26  C    4.626598   2.605858   1.522587   2.534944   3.818303
    27  H    5.506185   3.440588   2.190191   1.093958   2.191795
    28  H    3.804183   2.874769   2.146923   1.092838   2.183917
    29  H    5.831924   3.300667   3.006961   2.178994   1.096277
    30  H    4.553446   3.324854   3.362274   2.222270   1.093261
    31  H    3.765653   2.212053   3.331296   3.207021   2.222893
    32  H    5.900210   4.209462   5.077602   4.687621   3.196500
    33  H    6.226187   4.051116   5.218729   5.340218   4.069265
    34  H    7.349898   4.811316   5.540237   5.396135   3.994933
    35  H    7.744777   4.273312   4.523009   4.727262   3.813442
    36  H    6.972837   3.347112   3.969632   4.679653   4.027050
    37  H    6.740583   2.988227   2.889479   3.410967   3.035458
    38  O    5.429343   3.098448   2.363703   3.701067   4.811803
    39  O    4.459812   3.481651   2.424667   2.834445   4.278070
    40  C    5.997595   4.401678   3.716356   4.901258   6.134936
    41  C    7.087381   5.193484   4.732539   6.088960   7.172167
    42  H    5.333628   4.483998   4.013113   5.083867   6.300921
    43  H    6.557090   5.050024   4.066680   5.035501   6.412879
    44  H    7.698177   6.187227   5.709997   6.999265   8.152789
    45  H    7.821189   5.449347   4.851460   6.213517   7.259579
    46  H    6.819837   4.917621   4.797720   6.244992   7.151200
                   11         12         13         14         15
    11  C    0.000000
    12  C    1.465863   0.000000
    13  C    2.569488   1.457272   0.000000
    14  O    2.514578   2.999999   3.083038   0.000000
    15  Fe   3.722400   3.760296   3.778990   1.833679   0.000000
    16  Cl   4.780781   4.133616   3.425640   3.255476   2.260934
    17  C    2.522529   1.476863   2.527016   4.220448   4.546944
    18  Cl   5.596380   5.899005   5.895638   3.375804   2.200455
    19  Cl   3.623249   3.548616   4.212674   3.246415   2.251141
    20  H    4.146422   5.102129   5.454949   2.398712   2.982876
    21  H    5.889207   7.054613   7.686703   4.752917   5.085639
    22  H    6.201818   7.542704   8.517669   6.065724   6.663211
    23  H    4.923895   6.294714   7.476031   5.800182   6.740145
    24  H    2.623745   4.008581   5.178381   4.120248   5.351261
    25  H    2.859745   3.335003   3.020753   2.475442   4.191564
    26  C    3.866856   4.897726   4.967092   3.162590   4.889791
    27  H    3.426267   4.171338   4.353759   4.473963   6.253976
    28  H    3.043846   4.280605   4.915473   4.174705   5.904990
    29  H    2.257895   2.345972   2.798795   4.202791   5.601625
    30  H    2.218580   3.004512   4.039589   4.553019   5.928099
    31  H    1.090072   2.083712   3.428745   3.116567   4.009728
    32  H    2.667815   2.148236   3.417067   4.783193   5.255130
    33  H    2.904730   2.049460   2.999707   4.107229   4.007915
    34  H    3.444281   2.161078   2.675089   4.989358   5.223222
    35  H    3.452325   2.139561   1.092917   4.161148   4.682651
    36  H    3.054813   2.059874   1.124152   2.763369   2.962333
    37  H    2.750561   2.152730   1.089426   2.913686   3.991370
    38  O    4.553521   5.376404   5.190460   3.053819   4.514223
    39  O    4.589263   5.765609   5.984977   4.245769   5.951558
    40  C    5.910650   6.802506   6.625705   4.311070   5.542047
    41  C    6.730916   7.420740   7.049109   4.697536   5.517063
    42  H    6.017633   7.071061   7.104831   4.530249   5.699259
    43  H    6.448707   7.342761   7.117706   5.122014   6.490051
    44  H    7.745886   8.489883   8.143662   5.732704   6.473279
    45  H    6.886032   7.397712   6.821031   4.862543   5.678413
    46  H    6.472409   7.115835   6.795736   4.221005   4.739708
                   16         17         18         19         20
    16  Cl   0.000000
    17  C    4.809695   0.000000
    18  Cl   3.693623   6.687486   0.000000
    19  Cl   3.614423   3.594511   3.751663   0.000000
    20  H    5.012359   6.146587   2.871302   4.184329   0.000000
    21  H    7.267150   7.876511   4.367873   5.626467   2.459210
    22  H    8.887570   8.125972   6.501562   6.519982   4.295041
    23  H    8.756865   6.715446   7.363202   6.225091   4.952623
    24  H    7.019608   4.582186   6.597790   4.970407   4.309216
    25  H    4.737763   4.805497   5.609207   5.437213   4.065376
    26  C    6.085055   6.282472   5.626258   6.181537   3.291333
    27  H    6.972600   5.351293   7.728948   6.910116   5.613978
    28  H    7.160397   5.336852   7.175763   6.302325   4.705561
    29  H    6.025825   3.217025   7.535920   5.692274   5.990894
    30  H    6.893704   3.529459   7.695450   5.609853   5.784103
    31  H    5.328132   2.534910   5.768987   3.336617   4.305450
    32  H    5.806385   1.094448   7.304345   4.075202   6.452704
    33  H    4.390988   1.107930   6.065628   2.682405   5.869602
    34  H    5.030703   1.091509   7.402471   4.370370   7.072884
    35  H    3.924425   2.686752   6.810446   4.929258   6.540861
    36  H    2.314756   2.945368   5.058756   3.622325   5.122340
    37  H    3.720106   3.459549   5.924831   4.861530   5.220164
    38  O    5.567409   6.798196   4.901987   6.207637   3.016055
    39  O    7.274163   7.075614   6.550244   7.068183   3.956179
    40  C    6.660654   8.204327   5.401014   7.305939   3.570803
    41  C    6.376721   8.806068   4.980960   7.534376   3.979459
    42  H    7.129292   8.398709   5.379492   7.268678   3.236159
    43  H    7.471049   8.775876   6.476550   8.218055   4.573502
    44  H    7.368952   9.867508   5.680129   8.466425   4.735375
    45  H    6.146948   8.813033   5.358779   7.798874   4.656942
    46  H    5.713295   8.424847   3.949633   6.776956   3.340552
                   21         22         23         24         25
    21  H    0.000000
    22  H    2.493025   0.000000
    23  H    4.300170   2.489622   0.000000
    24  H    4.951034   4.278607   2.435848   0.000000
    25  H    6.215718   7.157921   6.411432   4.384482   0.000000
    26  C    4.895258   5.798067   5.452527   4.093558   2.122263
    27  H    7.188786   7.337318   5.939944   3.911523   2.471026
    28  H    5.840334   5.660384   4.200529   2.402457   3.057599
    29  H    7.766733   7.879056   6.225226   3.808857   3.022276
    30  H    7.077856   6.695042   4.737952   2.429742   3.899105
    31  H    5.680920   5.687331   4.273725   2.146518   3.873340
    32  H    7.926083   7.834272   6.177202   4.133445   5.256001
    33  H    7.519030   7.889738   6.726823   4.827752   5.244112
    34  H    8.907139   9.214581   7.770687   5.592039   5.352356
    35  H    8.766348   9.536227   8.370194   6.023442   3.905492
    36  H    7.418785   8.509473   7.758079   5.625615   3.412891
    37  H    7.517807   8.438010   7.471425   5.179258   2.127024
    38  O    4.847933   6.282153   6.369277   5.133669   2.490702
    39  O    5.000579   5.528120   5.142618   4.148950   3.162659
    40  C    4.839534   6.416746   6.919933   6.115355   3.906802
    41  C    5.341804   7.313058   8.080339   7.267556   4.677935
    42  H    3.987953   5.499399   6.237294   5.796586   4.458085
    43  H    5.712564   7.047201   7.388294   6.562708   4.212891
    44  H    5.689871   7.672381   8.661956   8.080611   5.715152
    45  H    6.296303   8.240321   8.811677   7.743918   4.551676
    46  H    4.779427   6.956550   7.863918   7.096851   4.770524
                   26         27         28         29         30
    26  C    0.000000
    27  H    2.946713   0.000000
    28  H    2.647017   1.761097   0.000000
    29  H    4.429837   2.363131   3.025835   0.000000
    30  H    4.579024   2.799690   2.414019   1.753592   0.000000
    31  H    4.543357   4.188030   3.429831   2.990224   2.328879
    32  H    6.508925   5.356233   5.143931   3.239462   3.059630
    33  H    6.582501   6.101632   5.893221   4.150526   4.297571
    34  H    7.037880   5.881269   6.126006   3.609719   4.232784
    35  H    5.937295   4.966109   5.720459   3.174853   4.568373
    36  H    5.214477   5.180598   5.573860   3.835544   4.893291
    37  H    4.204285   3.658088   4.444042   2.658933   4.057334
    38  O    1.341488   4.064388   3.954901   5.315947   5.678422
    39  O    1.213486   3.110262   2.516993   4.969627   4.827117
    40  C    2.372983   5.182607   4.947570   6.686112   6.924800
    41  C    3.641187   6.379957   6.275968   7.636117   8.046062
    42  H    2.618259   5.501692   4.911828   6.998816   6.965787
    43  H    2.649810   5.101884   5.052815   6.893775   7.180582
    44  H    4.490456   7.257474   7.088240   8.649033   8.986909
    45  H    3.937985   6.373875   6.564040   7.572098   8.212945
    46  H    3.910668   6.691867   6.449207   7.658338   8.016357
                   31         32         33         34         35
    31  H    0.000000
    32  H    2.346599   0.000000
    33  H    2.711485   1.756591   0.000000
    34  H    3.594972   1.807098   1.786587   0.000000
    35  H    4.218455   3.602142   3.280343   2.375167   0.000000
    36  H    3.793927   3.949319   3.008840   3.130569   1.770833
    37  H    3.784674   4.209780   3.976640   3.674252   1.813017
    38  O    5.273432   7.197209   6.961051   7.504248   6.170125
    39  O    5.119077   7.145941   7.425355   7.869093   6.923948
    40  C    6.537095   8.570567   8.314055   8.937457   7.599377
    41  C    7.384734   9.315909   8.797154   9.474500   7.985050
    42  H    6.480799   8.663214   8.446875   9.225496   8.131860
    43  H    7.129244   9.102672   9.000062   9.465763   8.030445
    44  H    8.354385  10.349575   9.839549  10.555776   9.079230
    45  H    7.657898   9.407353   8.863105   9.373719   7.666343
    46  H    7.046290   8.970523   8.287412   9.118504   7.761029
                   36         37         38         39         40
    36  H    0.000000
    37  H    1.747890   0.000000
    38  O    5.184518   4.399033   0.000000
    39  O    6.327348   5.237464   2.262012   0.000000
    40  C    6.557157   5.824804   1.450474   2.690585   0.000000
    41  C    6.765653   6.286018   2.390609   4.171875   1.516483
    42  H    7.033710   6.400306   2.073830   2.635576   1.094286
    43  H    7.177947   6.220513   2.076553   2.649924   1.094848
    44  H    7.853313   7.373807   3.348162   4.807944   2.149296
    45  H    6.539544   5.991912   2.656551   4.598596   2.164754
    46  H    6.368149   6.167574   2.647646   4.586913   2.164226
                   41         42         43         44         45
    41  C    0.000000
    42  H    2.180987   0.000000
    43  H    2.182654   1.768599   0.000000
    44  H    1.095561   2.521319   2.526789   0.000000
    45  H    1.094646   3.088395   2.529181   1.775827   0.000000
    46  H    1.094385   2.531482   3.089239   1.777298   1.774449
                   46
    46  H    0.000000
 Stoichiometry    C17H22Cl3FeO3(6)
 Framework group  C1[X(C17H22Cl3FeO3)]
 Deg. of freedom   132
 Full point group                 C1      NOp   1
 Largest Abelian subgroup         C1      NOp   1
 Largest concise Abelian subgroup C1      NOp   1
                         Standard orientation:                         
 ---------------------------------------------------------------------
 Center     Atomic      Atomic             Coordinates (Angstroms)
 Number     Number       Type             X           Y           Z
 ---------------------------------------------------------------------
      1          6           0       -1.767584    1.818608    1.747445
      2          6           0       -1.225960    0.723284    1.056283
      3          6           0       -1.489522   -0.563471    1.549219
      4          6           0       -2.257233   -0.746652    2.698623
      5          6           0       -2.784295    0.350868    3.379407
      6          6           0       -2.537412    1.634958    2.897006
      7          6           0       -0.411774    0.853343   -0.253525
      8          6           0       -1.387092    1.028015   -1.488746
      9          6           0       -1.787276    2.499773   -1.488019
     10          6           0       -0.527657    3.283433   -1.063826
     11          6           0        0.370694    2.248591   -0.221403
     12          6           0        1.676974    2.422245   -0.863455
     13          6           0        2.048590    1.752155   -2.103021
     14          8           0        0.386014   -0.254966   -0.456076
     15         26           0        1.794427   -1.150505    0.303373
     16         17           0        3.322121   -1.338189   -1.352752
     17          6           0        2.670912    3.283611   -0.191695
     18         17           0        1.236094   -3.114129    1.124621
     19         17           0        2.652748    0.293017    1.802428
     20          1           0       -1.084356   -1.425410    1.034526
     21          1           0       -2.433895   -1.754414    3.063865
     22          1           0       -3.378575    0.207682    4.277510
     23          1           0       -2.939609    2.501463    3.414899
     24          1           0       -1.599367    2.836526    1.408699
     25          1           0       -0.795458    0.770947   -2.374262
     26          6           0       -2.590535    0.095565   -1.465660
     27          1           0       -2.153310    2.833533   -2.463400
     28          1           0       -2.596564    2.649251   -0.768989
     29          1           0        0.001909    3.654942   -1.948905
     30          1           0       -0.739754    4.156656   -0.441157
     31          1           0        0.447504    2.592055    0.810290
     32          1           0        2.205091    4.087900    0.386186
     33          1           0        3.146574    2.614230    0.552068
     34          1           0        3.443630    3.666904   -0.860564
     35          1           0        2.779766    2.310019   -2.693476
     36          1           0        2.565495    0.806848   -1.782206
     37          1           0        1.207062    1.408057   -2.703252
     38          8           0       -2.228862   -1.165940   -1.743849
     39          8           0       -3.727947    0.449534   -1.234255
     40          6           0       -3.278735   -2.164947   -1.683639
     41          6           0       -2.641058   -3.509149   -1.977252
     42          1           0       -3.731963   -2.128867   -0.688278
     43          1           0       -4.051842   -1.901679   -2.412808
     44          1           0       -3.402070   -4.296062   -1.933864
     45          1           0       -2.190985   -3.519662   -2.975036
     46          1           0       -1.860656   -3.740080   -1.245595
 ---------------------------------------------------------------------
 Rotational constants (GHZ):           0.2000002           0.1578954           0.1388023
 Leave Link  202 at Sat Jun 19 21:34:34 2021, MaxMem=  2147483648 cpu:               0.2 elap:               0.0
 (Enter /SFS/product/gaussian/g16.a03/x86_64/avx/g16/l301.exe)
 Standard basis: Jul-CC-pVDZ (5D, 7F)
 Ernie: Thresh=  0.10000D-02 Tol=  0.10000D-05 Strict=F.
 Ernie:  134 primitive shells out of 958 were deleted.
 There are   766 symmetry adapted cartesian basis functions of A   symmetry.
 There are   710 symmetry adapted basis functions of A   symmetry.
   710 basis functions,  1571 primitive gaussians,   766 cartesian basis functions
   115 alpha electrons      110 beta electrons
       nuclear repulsion energy      3335.5744120918 Hartrees.
 IExCor=  402 DFT=T Ex+Corr=B3LYP ExCW=0 ScaHFX=  0.200000
 ScaDFX=  0.800000  0.720000  1.000000  0.810000 ScalE2=  1.000000  1.000000
 IRadAn=      5 IRanWt=     -1 IRanGd=            0 ICorTp=0 IEmpDi=  4
 NAtoms=   46 NActive=   46 NUniq=   46 SFac= 1.00D+00 NAtFMM=   60 NAOKFM=F Big=F
 Integral buffers will be    131072 words long.
 Raffenetti 2 integral format.
 Two-electron integral symmetry is turned on.
 Leave Link  301 at Sat Jun 19 21:34:34 2021, MaxMem=  2147483648 cpu:               0.9 elap:               0.1
 (Enter /SFS/product/gaussian/g16.a03/x86_64/avx/g16/l302.exe)
 NPDir=0 NMtPBC=     1 NCelOv=     1 NCel=       1 NClECP=     1 NCelD=      1
         NCelK=      1 NCelE2=     1 NClLst=     1 CellRange=     0.0.
 One-electron integrals computed using PRISM.
 One-electron integral symmetry used in STVInt
 NBasis=   710 RedAO= T EigKep=  1.43D-06  NBF=   710
 NBsUse=   710 1.00D-06 EigRej= -1.00D+00 NBFU=   710
 Precomputing XC quadrature grid using
 IXCGrd= 4 IRadAn=           5 IRanWt=          -1 IRanGd=           0 AccXCQ= 0.00D+00.
 Generated NRdTot=       0 NPtTot=           0 NUsed=           0 NTot=          32
 NSgBfM=   765   765   765   765   765 MxSgAt=    46 MxSgA2=    46.
 Leave Link  302 at Sat Jun 19 21:34:35 2021, MaxMem=  2147483648 cpu:              17.3 elap:               1.1
 (Enter /SFS/product/gaussian/g16.a03/x86_64/avx/g16/l303.exe)
 DipDrv:  MaxL=1.
 Leave Link  303 at Sat Jun 19 21:34:36 2021, MaxMem=  2147483648 cpu:               2.4 elap:               0.2
 (Enter /SFS/product/gaussian/g16.a03/x86_64/avx/g16/l401.exe)
 ExpMin= 1.40D-02 ExpMax= 4.32D+06 ExpMxC= 4.91D+03 IAcc=3 IRadAn=         5 AccDes= 0.00D+00
 Harris functional with IExCor=  402 and IRadAn=       5 diagonalized for initial guess.
 HarFok:  IExCor=  402 AccDes= 0.00D+00 IRadAn=         5 IDoV= 1 UseB2=F ITyADJ=14
 ICtDFT=  3500011 ScaDFX=  1.000000  1.000000  1.000000  1.000000
 FoFCou: FMM=F IPFlag=           0 FMFlag=      100000 FMFlg1=           0
         NFxFlg=           0 DoJE=T BraDBF=F KetDBF=T FulRan=T
         wScrn=  0.000000 ICntrl=       500 IOpCl=  0 I1Cent=   200000004 NGrid=           0
         NMat0=    1 NMatS0=      1 NMatT0=    0 NMatD0=    1 NMtDS0=    0 NMtDT0=    0
 Petite list used in FoFCou.
 Harris En= -3531.08512484864    
 JPrj=0 DoOrth=F DoCkMO=F.
 Initial guess <Sx>= 0.0000 <Sy>= 0.0000 <Sz>= 2.5000 <S**2>= 8.7500 S= 2.5000
 Leave Link  401 at Sat Jun 19 21:34:43 2021, MaxMem=  2147483648 cpu:             108.7 elap:               6.9
 (Enter /SFS/product/gaussian/g16.a03/x86_64/avx/g16/l502.exe)
 Integral symmetry usage will be decided dynamically.
 UHF open shell SCF:
 Using DIIS extrapolation, IDIIS=  1040.
 NGot=  2147483648 LenX=  2146290678 LenY=  2145703156
 Requested convergence on RMS density matrix=1.00D-08 within 128 cycles.
 Requested convergence on MAX density matrix=1.00D-06.
 Requested convergence on             energy=1.00D-06.
 No special actions if energy rises.
 Fock matrices will be formed incrementally for  20 cycles.

 Cycle   1  Pass 1  IDiag  1:
 FoFJK:  IHMeth= 1 ICntrl=       0 DoSepK=F KAlg= 0 I1Cent=           0 FoldK=F
 IRaf= 920000000 NMat=       1 IRICut=       1 DoRegI=T DoRafI=F ISym2E= 0 IDoP0=0 IntGTp=1.
 FoFCou: FMM=F IPFlag=           0 FMFlag=      100000 FMFlg1=           0
         NFxFlg=           0 DoJE=F BraDBF=F KetDBF=F FulRan=T
         wScrn=  0.000000 ICntrl=         0 IOpCl=  1 I1Cent=           0 NGrid=           0
         NMat0=    1 NMatS0=      1 NMatT0=    0 NMatD0=    1 NMtDS0=    0 NMtDT0=    0
 Symmetry not used in FoFCou.
 E= -3530.34152480626    
 DIIS: error= 1.79D-02 at cycle   1 NSaved=   1.
 NSaved= 1 IEnMin= 1 EnMin= -3530.34152480626     IErMin= 1 ErrMin= 1.79D-02
 ErrMax= 1.79D-02  0.00D+00 EMaxC= 1.00D-01 BMatC= 4.74D+00 BMatP= 4.74D+00
 IDIUse=3 WtCom= 8.21D-01 WtEn= 1.79D-01
 Coeff-Com:  0.100D+01
 Coeff-En:   0.100D+01
 Coeff:      0.100D+01
 Gap=     0.078 Goal=   None    Shift=    0.000
 Gap=    -0.072 Goal=   None    Shift=    0.000
 GapD=   -0.072 DampG=0.250 DampE=0.250 DampFc=0.1250 IDamp=-1.
 Damping current iteration by 1.25D-01
 RMSDP=3.28D-02 MaxDP=9.25D+00              OVMax= 8.20D-01

 Cycle   2  Pass 1  IDiag  1:
 RMSU=  2.34D-03    CP:  9.55D-01
 E= -3530.67631093096     Delta-E=       -0.334786124701 Rises=F Damp=T
 DIIS: error= 7.42D-03 at cycle   2 NSaved=   2.
 NSaved= 2 IEnMin= 2 EnMin= -3530.67631093096     IErMin= 2 ErrMin= 7.42D-03
 ErrMax= 7.42D-03  0.00D+00 EMaxC= 1.00D-01 BMatC= 1.26D+00 BMatP= 4.74D+00
 IDIUse=3 WtCom= 9.26D-01 WtEn= 7.42D-02
 Coeff-Com: -0.449D+00 0.145D+01
 Coeff-En:   0.000D+00 0.100D+01
 Coeff:     -0.416D+00 0.142D+01
 Gap=     0.437 Goal=   None    Shift=    0.000
 Gap=    -0.037 Goal=   None    Shift=    0.000
 RMSDP=2.73D-02 MaxDP=8.82D+00 DE=-3.35D-01 OVMax= 9.80D-01

 Cycle   3  Pass 1  IDiag  1:
 RMSU=  7.98D-03    CP:  6.16D-01  2.99D+00
 E= -3530.20886695785     Delta-E=        0.467443973104 Rises=F Damp=F
 DIIS: error= 2.78D-02 at cycle   3 NSaved=   3.
 NSaved= 3 IEnMin= 2 EnMin= -3530.67631093096     IErMin= 2 ErrMin= 7.42D-03
 ErrMax= 2.78D-02  0.00D+00 EMaxC= 1.00D-01 BMatC= 5.31D+00 BMatP= 1.26D+00
 IDIUse=2 WtCom= 0.00D+00 WtEn= 1.00D+00
 Coeff-En:   0.000D+00 0.704D+00 0.296D+00
 Coeff:      0.000D+00 0.704D+00 0.296D+00
 Gap=    -0.279 Goal=   None    Shift=    0.000
 Gap=     0.299 Goal=   None    Shift=    0.000
 RMSDP=8.28D-03 MaxDP=7.98D-01 DE= 4.67D-01 OVMax= 7.65D-01

 Cycle   4  Pass 1  IDiag  1:
 RMSU=  6.05D-03    CP:  6.30D-01  3.00D+00  3.08D-01
 E= -3521.60242299734     Delta-E=        8.606443960514 Rises=F Damp=F
 DIIS: error= 6.83D-02 at cycle   4 NSaved=   4.
 NSaved= 4 IEnMin= 2 EnMin= -3530.67631093096     IErMin= 2 ErrMin= 7.42D-03
 ErrMax= 6.83D-02  0.00D+00 EMaxC= 1.00D-01 BMatC= 4.88D+01 BMatP= 1.26D+00
 IDIUse=2 WtCom= 0.00D+00 WtEn= 1.00D+00
 EnCoef did   100 forward-backward iterations
 Coeff-En:   0.321D+00 0.424D-01 0.462D+00 0.174D+00
 Coeff:      0.321D+00 0.424D-01 0.462D+00 0.174D+00
 Gap=     0.157 Goal=   None    Shift=    0.000
 Gap=     0.021 Goal=   None    Shift=    0.000
 RMSDP=6.09D-03 MaxDP=1.31D+00 DE= 8.61D+00 OVMax= 9.53D-01

 Cycle   5  Pass 1  IDiag  1:
 RMSU=  4.58D-03    CP:  6.51D-01  2.99D+00  5.36D-01  4.79D-01
 E= -3530.02997207342     Delta-E=       -8.427549076079 Rises=F Damp=F
 DIIS: error= 4.25D-02 at cycle   5 NSaved=   5.
 NSaved= 5 IEnMin= 2 EnMin= -3530.67631093096     IErMin= 2 ErrMin= 7.42D-03
 ErrMax= 4.25D-02  0.00D+00 EMaxC= 1.00D-01 BMatC= 9.07D+00 BMatP= 1.26D+00
 IDIUse=2 WtCom= 0.00D+00 WtEn= 1.00D+00
 EnCoef did     4 forward-backward iterations
 Coeff-En:   0.172D-01 0.000D+00 0.510D+00 0.000D+00 0.473D+00
 Coeff:      0.172D-01 0.000D+00 0.510D+00 0.000D+00 0.473D+00
 Gap=     0.090 Goal=   None    Shift=    0.000
 Gap=     0.129 Goal=   None    Shift=    0.000
 RMSDP=4.69D-03 MaxDP=6.73D-01 DE=-8.43D+00 OVMax= 3.57D-01

 Cycle   6  Pass 1  IDiag  1:
 RMSU=  3.70D-03    CP:  6.71D-01  2.61D+00  4.97D-01  3.10D-01  5.61D-01
 E= -3531.24903001771     Delta-E=       -1.219057944289 Rises=F Damp=F
 DIIS: error= 5.27D-03 at cycle   6 NSaved=   6.
 NSaved= 6 IEnMin= 6 EnMin= -3531.24903001771     IErMin= 6 ErrMin= 5.27D-03
 ErrMax= 5.27D-03  0.00D+00 EMaxC= 1.00D-01 BMatC= 5.71D-01 BMatP= 1.26D+00
 IDIUse=3 WtCom= 9.47D-01 WtEn= 5.27D-02
 EnCoef did     8 forward-backward iterations
 Coeff-Com: -0.430D+00 0.782D+00 0.267D+00-0.441D-02 0.732D-01 0.312D+00
 Coeff-En:   0.000D+00 0.000D+00 0.132D-01 0.000D+00 0.105D+00 0.882D+00
 Coeff:     -0.407D+00 0.741D+00 0.253D+00-0.418D-02 0.749D-01 0.342D+00
 Gap=     0.105 Goal=   None    Shift=    0.000
 Gap=     0.149 Goal=   None    Shift=    0.000
 RMSDP=3.96D-03 MaxDP=5.90D-01 DE=-1.22D+00 OVMax= 2.11D-01

 Cycle   7  Pass 1  IDiag  1:
 RMSU=  1.57D-03    CP:  6.48D-01  2.68D+00  6.05D-01  4.01D-01  7.70D-01
                    CP:  2.28D-01
 E= -3531.29439610745     Delta-E=       -0.045366089742 Rises=F Damp=F
 DIIS: error= 6.27D-03 at cycle   7 NSaved=   7.
 NSaved= 7 IEnMin= 7 EnMin= -3531.29439610745     IErMin= 6 ErrMin= 5.27D-03
 ErrMax= 6.27D-03  0.00D+00 EMaxC= 1.00D-01 BMatC= 4.37D-01 BMatP= 5.71D-01
 IDIUse=3 WtCom= 9.47D-01 WtEn= 5.27D-02
 Coeff-Com: -0.209D+00 0.309D+00 0.953D-01 0.655D-02-0.851D-01 0.316D+00
 Coeff-Com:  0.567D+00
 Coeff-En:   0.000D+00 0.000D+00 0.000D+00 0.000D+00 0.000D+00 0.419D+00
 Coeff-En:   0.581D+00
 Coeff:     -0.198D+00 0.293D+00 0.903D-01 0.621D-02-0.806D-01 0.321D+00
 Coeff:      0.568D+00
 Gap=     0.063 Goal=   None    Shift=    0.000
 Gap=     0.154 Goal=   None    Shift=    0.000
 RMSDP=1.60D-03 MaxDP=2.77D-01 DE=-4.54D-02 OVMax= 1.00D-01

 Cycle   8  Pass 1  IDiag  1:
 RMSU=  1.04D-03    CP:  6.50D-01  2.64D+00  5.91D-01  3.67D-01  6.80D-01
                    CP:  5.22D-01  9.27D-01
 E= -3531.39340316354     Delta-E=       -0.099007056093 Rises=F Damp=F
 DIIS: error= 1.38D-03 at cycle   8 NSaved=   8.
 NSaved= 8 IEnMin= 8 EnMin= -3531.39340316354     IErMin= 8 ErrMin= 1.38D-03
 ErrMax= 1.38D-03  0.00D+00 EMaxC= 1.00D-01 BMatC= 2.89D-02 BMatP= 4.37D-01
 IDIUse=3 WtCom= 9.86D-01 WtEn= 1.38D-02
 Coeff-Com: -0.111D+00 0.150D+00 0.332D-01 0.658D-02-0.492D-01 0.169D+00
 Coeff-Com:  0.303D+00 0.498D+00
 Coeff-En:   0.000D+00 0.000D+00 0.000D+00 0.000D+00 0.000D+00 0.000D+00
 Coeff-En:   0.000D+00 0.100D+01
 Coeff:     -0.109D+00 0.148D+00 0.328D-01 0.649D-02-0.485D-01 0.167D+00
 Coeff:      0.299D+00 0.505D+00
 Gap=     0.087 Goal=   None    Shift=    0.000
 Gap=     0.121 Goal=   None    Shift=    0.000
 RMSDP=5.53D-04 MaxDP=8.02D-02 DE=-9.90D-02 OVMax= 3.68D-02

 Cycle   9  Pass 1  IDiag  1:
 RMSU=  4.92D-04    CP:  6.49D-01  2.63D+00  5.77D-01  3.69D-01  6.69D-01
                    CP:  5.68D-01  9.44D-01  9.15D-01
 E= -3531.39918045724     Delta-E=       -0.005777293692 Rises=F Damp=F
 DIIS: error= 9.80D-04 at cycle   9 NSaved=   9.
 NSaved= 9 IEnMin= 9 EnMin= -3531.39918045724     IErMin= 9 ErrMin= 9.80D-04
 ErrMax= 9.80D-04  0.00D+00 EMaxC= 1.00D-01 BMatC= 1.23D-02 BMatP= 2.89D-02
 IDIUse=3 WtCom= 9.90D-01 WtEn= 9.80D-03
 Coeff-Com: -0.428D-01 0.524D-01-0.530D-02 0.311D-02 0.549D-02 0.111D-01
 Coeff-Com: -0.147D-01 0.270D+00 0.721D+00
 Coeff-En:   0.000D+00 0.000D+00 0.000D+00 0.000D+00 0.000D+00 0.000D+00
 Coeff-En:   0.000D+00 0.000D+00 0.100D+01
 Coeff:     -0.424D-01 0.519D-01-0.525D-02 0.308D-02 0.544D-02 0.110D-01
 Coeff:     -0.146D-01 0.267D+00 0.724D+00
 Gap=     0.101 Goal=   None    Shift=    0.000
 Gap=     0.108 Goal=   None    Shift=    0.000
 RMSDP=3.21D-04 MaxDP=6.93D-02 DE=-5.78D-03 OVMax= 2.21D-02

 Cycle  10  Pass 1  IDiag  1:
 RMSU=  2.76D-04    CP:  6.50D-01  2.64D+00  5.68D-01  3.73D-01  6.73D-01
                    CP:  5.73D-01  9.78D-01  9.94D-01  1.17D+00
 E= -3531.40117738608     Delta-E=       -0.001996928843 Rises=F Damp=F
 DIIS: error= 5.82D-04 at cycle  10 NSaved=  10.
 NSaved=10 IEnMin=10 EnMin= -3531.40117738608     IErMin=10 ErrMin= 5.82D-04
 ErrMax= 5.82D-04  0.00D+00 EMaxC= 1.00D-01 BMatC= 4.29D-03 BMatP= 1.23D-02
 IDIUse=3 WtCom= 9.94D-01 WtEn= 5.82D-03
 Coeff-Com: -0.537D-03-0.324D-02-0.152D-01 0.103D-02 0.212D-01-0.412D-01
 Coeff-Com: -0.890D-01-0.923D-02 0.446D+00 0.690D+00
 Coeff-En:   0.000D+00 0.000D+00 0.000D+00 0.000D+00 0.000D+00 0.000D+00
 Coeff-En:   0.000D+00 0.000D+00 0.000D+00 0.100D+01
 Coeff:     -0.534D-03-0.322D-02-0.151D-01 0.102D-02 0.211D-01-0.409D-01
 Coeff:     -0.885D-01-0.918D-02 0.444D+00 0.692D+00
 Gap=     0.100 Goal=   None    Shift=    0.000
 Gap=     0.102 Goal=   None    Shift=    0.000
 RMSDP=2.30D-04 MaxDP=4.30D-02 DE=-2.00D-03 OVMax= 1.04D-02

 Cycle  11  Pass 1  IDiag  1:
 RMSU=  1.64D-04    CP:  6.51D-01  2.66D+00  5.62D-01  3.75D-01  6.77D-01
                    CP:  5.86D-01  9.72D-01  1.08D+00  1.28D+00  1.18D+00
 E= -3531.40171831354     Delta-E=       -0.000540927456 Rises=F Damp=F
 DIIS: error= 2.85D-04 at cycle  11 NSaved=  11.
 NSaved=11 IEnMin=11 EnMin= -3531.40171831354     IErMin=11 ErrMin= 2.85D-04
 ErrMax= 2.85D-04  0.00D+00 EMaxC= 1.00D-01 BMatC= 1.20D-03 BMatP= 4.29D-03
 IDIUse=3 WtCom= 9.97D-01 WtEn= 2.85D-03
 Coeff-Com:  0.385D-02-0.438D-02-0.444D-02 0.207D-03 0.233D-02-0.762D-02
 Coeff-Com:  0.131D-01-0.653D-01-0.168D-01 0.450D+00 0.629D+00
 Coeff-En:   0.000D+00 0.000D+00 0.000D+00 0.000D+00 0.000D+00 0.000D+00
 Coeff-En:   0.000D+00 0.000D+00 0.000D+00 0.179D+00 0.821D+00
 Coeff:      0.384D-02-0.436D-02-0.442D-02 0.206D-03 0.233D-02-0.760D-02
 Coeff:      0.131D-01-0.651D-01-0.167D-01 0.449D+00 0.630D+00
 Gap=     0.102 Goal=   None    Shift=    0.000
 Gap=     0.103 Goal=   None    Shift=    0.000
 RMSDP=1.20D-04 MaxDP=2.48D-02 DE=-5.41D-04 OVMax= 7.28D-03

 Cycle  12  Pass 1  IDiag  1:
 RMSU=  7.36D-05    CP:  6.50D-01  2.65D+00  5.62D-01  3.75D-01  6.77D-01
                    CP:  5.75D-01  9.78D-01  1.06D+00  1.36D+00  1.17D+00
                    CP:  6.31D-01
 E= -3531.40199601391     Delta-E=       -0.000277700377 Rises=F Damp=F
 DIIS: error= 1.04D-04 at cycle  12 NSaved=  12.
 NSaved=12 IEnMin=12 EnMin= -3531.40199601391     IErMin=12 ErrMin= 1.04D-04
 ErrMax= 1.04D-04  0.00D+00 EMaxC= 1.00D-01 BMatC= 1.35D-04 BMatP= 1.20D-03
 IDIUse=3 WtCom= 9.99D-01 WtEn= 1.04D-03
 Coeff-Com:  0.170D-02-0.140D-02-0.867D-03 0.884D-04-0.136D-02 0.167D-02
 Coeff-Com:  0.222D-01-0.344D-01-0.620D-01 0.180D+00 0.371D+00 0.524D+00
 Coeff-En:   0.000D+00 0.000D+00 0.000D+00 0.000D+00 0.000D+00 0.000D+00
 Coeff-En:   0.000D+00 0.000D+00 0.000D+00 0.000D+00 0.000D+00 0.100D+01
 Coeff:      0.170D-02-0.140D-02-0.866D-03 0.883D-04-0.135D-02 0.167D-02
 Coeff:      0.222D-01-0.344D-01-0.619D-01 0.179D+00 0.371D+00 0.524D+00
 Gap=     0.102 Goal=   None    Shift=    0.000
 Gap=     0.104 Goal=   None    Shift=    0.000
 RMSDP=5.14D-05 MaxDP=1.76D-02 DE=-2.78D-04 OVMax= 2.20D-03

 Cycle  13  Pass 1  IDiag  1:
 RMSU=  2.85D-05    CP:  6.51D-01  2.65D+00  5.62D-01  3.76D-01  6.79D-01
                    CP:  5.74D-01  9.78D-01  1.04D+00  1.34D+00  1.22D+00
                    CP:  7.42D-01  8.18D-01
 E= -3531.40203358973     Delta-E=       -0.000037575816 Rises=F Damp=F
 DIIS: error= 3.22D-05 at cycle  13 NSaved=  13.
 NSaved=13 IEnMin=13 EnMin= -3531.40203358973     IErMin=13 ErrMin= 3.22D-05
 ErrMax= 3.22D-05  0.00D+00 EMaxC= 1.00D-01 BMatC= 8.11D-06 BMatP= 1.35D-04
 IDIUse=1 WtCom= 1.00D+00 WtEn= 0.00D+00
 Coeff-Com:  0.796D-03-0.860D-03-0.197D-03-0.175D-04-0.428D-03 0.502D-03
 Coeff-Com:  0.526D-02-0.581D-02-0.191D-01 0.234D-01 0.701D-01 0.216D+00
 Coeff-Com:  0.711D+00
 Coeff:      0.796D-03-0.860D-03-0.197D-03-0.175D-04-0.428D-03 0.502D-03
 Coeff:      0.526D-02-0.581D-02-0.191D-01 0.234D-01 0.701D-01 0.216D+00
 Coeff:      0.711D+00
 Gap=     0.102 Goal=   None    Shift=    0.000
 Gap=     0.103 Goal=   None    Shift=    0.000
 RMSDP=1.74D-05 MaxDP=3.95D-03 DE=-3.76D-05 OVMax= 9.07D-04

 Cycle  14  Pass 1  IDiag  1:
 RMSU=  1.35D-05    CP:  6.51D-01  2.65D+00  5.62D-01  3.76D-01  6.80D-01
                    CP:  5.74D-01  9.78D-01  1.05D+00  1.34D+00  1.25D+00
                    CP:  7.77D-01  8.68D-01  9.48D-01
 E= -3531.40203653736     Delta-E=       -0.000002947636 Rises=F Damp=F
 DIIS: error= 1.91D-05 at cycle  14 NSaved=  14.
 NSaved=14 IEnMin=14 EnMin= -3531.40203653736     IErMin=14 ErrMin= 1.91D-05
 ErrMax= 1.91D-05  0.00D+00 EMaxC= 1.00D-01 BMatC= 4.43D-06 BMatP= 8.11D-06
 IDIUse=1 WtCom= 1.00D+00 WtEn= 0.00D+00
 Coeff-Com:  0.506D-04-0.120D-03 0.187D-03-0.360D-04 0.994D-04-0.138D-03
 Coeff-Com: -0.348D-02 0.693D-02 0.839D-02-0.328D-01-0.675D-01-0.189D-01
 Coeff-Com:  0.409D+00 0.699D+00
 Coeff:      0.506D-04-0.120D-03 0.187D-03-0.360D-04 0.994D-04-0.138D-03
 Coeff:     -0.348D-02 0.693D-02 0.839D-02-0.328D-01-0.675D-01-0.189D-01
 Coeff:      0.409D+00 0.699D+00
 Gap=     0.102 Goal=   None    Shift=    0.000
 Gap=     0.103 Goal=   None    Shift=    0.000
 RMSDP=9.45D-06 MaxDP=1.24D-03 DE=-2.95D-06 OVMax= 6.90D-04

 Cycle  15  Pass 1  IDiag  1:
 RMSU=  6.42D-06    CP:  6.51D-01  2.65D+00  5.62D-01  3.76D-01  6.79D-01
                    CP:  5.74D-01  9.78D-01  1.05D+00  1.35D+00  1.25D+00
                    CP:  7.79D-01  9.20D-01  1.10D+00  9.48D-01
 E= -3531.40203807280     Delta-E=       -0.000001535436 Rises=F Damp=F
 DIIS: error= 6.76D-06 at cycle  15 NSaved=  15.
 NSaved=15 IEnMin=15 EnMin= -3531.40203807280     IErMin=15 ErrMin= 6.76D-06
 ErrMax= 6.76D-06  0.00D+00 EMaxC= 1.00D-01 BMatC= 8.15D-07 BMatP= 4.43D-06
 IDIUse=1 WtCom= 1.00D+00 WtEn= 0.00D+00
 Coeff-Com: -0.302D-04 0.651D-04 0.774D-04-0.250D-04 0.223D-03-0.702D-03
 Coeff-Com: -0.363D-02 0.428D-02 0.995D-02-0.168D-01-0.486D-01-0.555D-01
 Coeff-Com:  0.364D-01 0.304D+00 0.770D+00
 Coeff:     -0.302D-04 0.651D-04 0.774D-04-0.250D-04 0.223D-03-0.702D-03
 Coeff:     -0.363D-02 0.428D-02 0.995D-02-0.168D-01-0.486D-01-0.555D-01
 Coeff:      0.364D-01 0.304D+00 0.770D+00
 Gap=     0.102 Goal=   None    Shift=    0.000
 Gap=     0.103 Goal=   None    Shift=    0.000
 RMSDP=5.07D-06 MaxDP=6.64D-04 DE=-1.54D-06 OVMax= 3.51D-04

 Cycle  16  Pass 1  IDiag  1:
 RMSU=  3.08D-06    CP:  6.51D-01  2.65D+00  5.62D-01  3.76D-01  6.79D-01
                    CP:  5.74D-01  9.79D-01  1.05D+00  1.35D+00  1.25D+00
                    CP:  7.81D-01  9.45D-01  1.17D+00  1.11D+00  9.93D-01
 E= -3531.40203834885     Delta-E=       -0.000000276053 Rises=F Damp=F
 DIIS: error= 5.87D-06 at cycle  16 NSaved=  16.
 NSaved=16 IEnMin=16 EnMin= -3531.40203834885     IErMin=16 ErrMin= 5.87D-06
 ErrMax= 5.87D-06  0.00D+00 EMaxC= 1.00D-01 BMatC= 2.27D-07 BMatP= 8.15D-07
 IDIUse=1 WtCom= 1.00D+00 WtEn= 0.00D+00
 Coeff-Com: -0.386D-04 0.110D-03 0.292D-04-0.730D-05 0.716D-04-0.331D-03
 Coeff-Com: -0.115D-02 0.968D-03 0.381D-02-0.130D-02-0.122D-01-0.259D-01
 Coeff-Com: -0.770D-01 0.726D-02 0.459D+00 0.647D+00
 Coeff:     -0.386D-04 0.110D-03 0.292D-04-0.730D-05 0.716D-04-0.331D-03
 Coeff:     -0.115D-02 0.968D-03 0.381D-02-0.130D-02-0.122D-01-0.259D-01
 Coeff:     -0.770D-01 0.726D-02 0.459D+00 0.647D+00
 Gap=     0.102 Goal=   None    Shift=    0.000
 Gap=     0.103 Goal=   None    Shift=    0.000
 RMSDP=2.35D-06 MaxDP=4.25D-04 DE=-2.76D-07 OVMax= 1.47D-04

 Cycle  17  Pass 1  IDiag  1:
 RMSU=  1.43D-06    CP:  6.51D-01  2.65D+00  5.62D-01  3.76D-01  6.79D-01
                    CP:  5.74D-01  9.79D-01  1.05D+00  1.35D+00  1.25D+00
                    CP:  7.84D-01  9.58D-01  1.19D+00  1.13D+00  1.15D+00
                    CP:  7.71D-01
 E= -3531.40203841637     Delta-E=       -0.000000067519 Rises=F Damp=F
 DIIS: error= 2.34D-06 at cycle  17 NSaved=  17.
 NSaved=17 IEnMin=17 EnMin= -3531.40203841637     IErMin=17 ErrMin= 2.34D-06
 ErrMax= 2.34D-06  0.00D+00 EMaxC= 1.00D-01 BMatC= 2.05D-08 BMatP= 2.27D-07
 IDIUse=1 WtCom= 1.00D+00 WtEn= 0.00D+00
 Coeff-Com:  0.911D-05 0.145D-04-0.366D-05-0.627D-06 0.126D-04-0.918D-04
 Coeff-Com: -0.860D-04-0.222D-03 0.318D-03 0.185D-02 0.142D-02-0.304D-02
 Coeff-Com: -0.410D-01-0.430D-01 0.101D+00 0.333D+00 0.650D+00
 Coeff:      0.911D-05 0.145D-04-0.366D-05-0.627D-06 0.126D-04-0.918D-04
 Coeff:     -0.860D-04-0.222D-03 0.318D-03 0.185D-02 0.142D-02-0.304D-02
 Coeff:     -0.410D-01-0.430D-01 0.101D+00 0.333D+00 0.650D+00
 Gap=     0.102 Goal=   None    Shift=    0.000
 Gap=     0.103 Goal=   None    Shift=    0.000
 RMSDP=8.26D-07 MaxDP=2.24D-04 DE=-6.75D-08 OVMax= 4.22D-05

 Cycle  18  Pass 1  IDiag  1:
 RMSU=  5.00D-07    CP:  6.51D-01  2.65D+00  5.62D-01  3.76D-01  6.79D-01
                    CP:  5.74D-01  9.79D-01  1.05D+00  1.35D+00  1.25D+00
                    CP:  7.85D-01  9.59D-01  1.20D+00  1.15D+00  1.18D+00
                    CP:  8.53D-01  8.42D-01
 E= -3531.40203842360     Delta-E=       -0.000000007221 Rises=F Damp=F
 DIIS: error= 6.63D-07 at cycle  18 NSaved=  18.
 NSaved=18 IEnMin=18 EnMin= -3531.40203842360     IErMin=18 ErrMin= 6.63D-07
 ErrMax= 6.63D-07  0.00D+00 EMaxC= 1.00D-01 BMatC= 3.58D-09 BMatP= 2.05D-08
 IDIUse=1 WtCom= 1.00D+00 WtEn= 0.00D+00
 Coeff-Com:  0.163D-04-0.170D-04-0.764D-05 0.535D-06 0.252D-05-0.167D-04
 Coeff-Com:  0.730D-04-0.255D-03-0.298D-03 0.946D-03 0.216D-02 0.156D-02
 Coeff-Com: -0.105D-01-0.220D-01-0.557D-02 0.932D-01 0.325D+00 0.616D+00
 Coeff:      0.163D-04-0.170D-04-0.764D-05 0.535D-06 0.252D-05-0.167D-04
 Coeff:      0.730D-04-0.255D-03-0.298D-03 0.946D-03 0.216D-02 0.156D-02
 Coeff:     -0.105D-01-0.220D-01-0.557D-02 0.932D-01 0.325D+00 0.616D+00
 Gap=     0.102 Goal=   None    Shift=    0.000
 Gap=     0.103 Goal=   None    Shift=    0.000
 RMSDP=3.19D-07 MaxDP=7.14D-05 DE=-7.22D-09 OVMax= 2.35D-05

 Cycle  19  Pass 1  IDiag  1:
 RMSU=  2.52D-07    CP:  6.51D-01  2.65D+00  5.62D-01  3.76D-01  6.79D-01
                    CP:  5.74D-01  9.79D-01  1.05D+00  1.35D+00  1.25D+00
                    CP:  7.85D-01  9.59D-01  1.20D+00  1.15D+00  1.19D+00
                    CP:  8.73D-01  9.03D-01  1.01D+00
 E= -3531.40203842479     Delta-E=       -0.000000001197 Rises=F Damp=F
 DIIS: error= 3.72D-07 at cycle  19 NSaved=  19.
 NSaved=19 IEnMin=19 EnMin= -3531.40203842479     IErMin=19 ErrMin= 3.72D-07
 ErrMax= 3.72D-07  0.00D+00 EMaxC= 1.00D-01 BMatC= 9.41D-10 BMatP= 3.58D-09
 IDIUse=1 WtCom= 1.00D+00 WtEn= 0.00D+00
 Coeff-Com: -0.508D-05 0.447D-05 0.214D-05 0.499D-06-0.513D-05 0.215D-04
 Coeff-Com:  0.738D-04-0.616D-04-0.236D-03-0.796D-04 0.644D-03 0.117D-02
 Coeff-Com:  0.399D-02-0.805D-03-0.195D-01-0.221D-01 0.475D-02 0.277D+00
 Coeff-Com:  0.756D+00
 Coeff:     -0.508D-05 0.447D-05 0.214D-05 0.499D-06-0.513D-05 0.215D-04
 Coeff:      0.738D-04-0.616D-04-0.236D-03-0.796D-04 0.644D-03 0.117D-02
 Coeff:      0.399D-02-0.805D-03-0.195D-01-0.221D-01 0.475D-02 0.277D+00
 Coeff:      0.756D+00
 Gap=     0.102 Goal=   None    Shift=    0.000
[...]
    12   Atom       -0.012761      0.021724     -0.008962
    13   Atom       -0.011971      0.007561      0.004411
    14   Atom        0.097943     -0.322699      0.224756
    15   Atom        0.044796     -0.079285      0.034489
    16   Atom        0.069054     -0.176707      0.107652
    17   Atom       -0.006727      0.013563     -0.006836
    18   Atom       -0.181881      0.205551     -0.023670
    19   Atom       -0.095717      0.024586      0.071131
    20   Atom        0.039008     -0.021591     -0.017417
    21   Atom        0.005161     -0.004908     -0.000253
    22   Atom        0.001720     -0.002044      0.000324
    23   Atom        0.000983     -0.000239     -0.000744
    24   Atom        0.000654      0.003441     -0.004094
    25   Atom        0.000604     -0.006151      0.005547
    26   Atom        0.010058     -0.005520     -0.004538
    27   Atom        0.000443      0.000572     -0.001015
    28   Atom        0.002565      0.000871     -0.003435
    29   Atom       -0.002987      0.005061     -0.002074
    30   Atom       -0.001727      0.005289     -0.003562
    31   Atom       -0.008104      0.018175     -0.010071
    32   Atom       -0.005113      0.010239     -0.005126
    33   Atom       -0.008492      0.019266     -0.010774
    34   Atom       -0.003565      0.007519     -0.003954
    35   Atom       -0.005990      0.003581      0.002409
    36   Atom       -0.019591      0.005358      0.014234
    37   Atom       -0.009778      0.000581      0.009196
    38   Atom        0.011510     -0.007722     -0.003788
    39   Atom        0.003480     -0.004295      0.000815
    40   Atom        0.006113     -0.003390     -0.002724
    41   Atom        0.003617     -0.001611     -0.002007
    42   Atom        0.006779     -0.003213     -0.003566
    43   Atom        0.003747     -0.002365     -0.001382
    44   Atom        0.002322     -0.000700     -0.001622
    45   Atom        0.001742     -0.001593     -0.000149
    46   Atom        0.004449     -0.000482     -0.003967
 --------------------------------------------------------
                        XY            XZ            YZ
 --------------------------------------------------------
     1   Atom       -0.009175     -0.005704      0.005412
     2   Atom       -0.018648     -0.016431      0.006554
     3   Atom       -0.005764     -0.016239      0.001491
     4   Atom       -0.001388     -0.008451      0.000808
     5   Atom       -0.002444     -0.005510      0.001568
     6   Atom       -0.004050     -0.004277      0.002607
     7   Atom       -0.062877      0.004050     -0.000390
     8   Atom       -0.017499      0.022339     -0.011264
     9   Atom       -0.007292      0.003669     -0.003806
    10   Atom       -0.005367      0.001743     -0.003832
    11   Atom       -0.005869      0.003651     -0.003746
    12   Atom       -0.002921      0.002320     -0.015127
    13   Atom        0.001751     -0.001748     -0.018626
    14   Atom        0.202241      0.192169     -0.168569
    15   Atom       -0.022901      0.106312      0.023995
    16   Atom        0.005931     -0.308252      0.077351
    17   Atom        0.004187     -0.000146     -0.004259
    18   Atom        0.034509     -0.048526     -0.102100
    19   Atom        0.141216      0.134985      0.226575
    20   Atom        0.007386     -0.019128     -0.004810
    21   Atom        0.001236     -0.007218     -0.000997
    22   Atom       -0.001174     -0.003374      0.000934
    23   Atom       -0.002743     -0.002380      0.001957
    24   Atom       -0.006866     -0.002020      0.002649
    25   Atom       -0.008912      0.013011     -0.008873
    26   Atom       -0.003567      0.005751     -0.001632
    27   Atom       -0.003858      0.002911     -0.002783
    28   Atom       -0.005634      0.001256     -0.001119
    29   Atom       -0.003329      0.001667     -0.004623
    30   Atom       -0.004172      0.000664     -0.001194
    31   Atom       -0.009866     -0.000179      0.004207
    32   Atom        0.001335      0.000126     -0.000527
    33   Atom        0.011228      0.000079     -0.001594
    34   Atom        0.004596     -0.001429     -0.003998
    35   Atom        0.002577     -0.002695     -0.009885
    36   Atom        0.008509     -0.013428     -0.034792
    37   Atom       -0.003046      0.003331     -0.015944
    38   Atom        0.001375      0.009129      0.000539
    39   Atom       -0.002069      0.001308     -0.003887
    40   Atom        0.002374      0.003765      0.000804
    41   Atom        0.004013      0.003874      0.001992
    42   Atom        0.002175      0.001694      0.000267
    43   Atom        0.000953      0.002790      0.000407
    44   Atom        0.002855      0.002044      0.001180
    45   Atom        0.003109      0.004259      0.002494
    46   Atom        0.007323      0.004678      0.003077
 --------------------------------------------------------


 ---------------------------------------------------------------------------------
              Anisotropic Spin Dipole Couplings in Principal Axis System
 ---------------------------------------------------------------------------------

       Atom             a.u.   MegaHertz   Gauss  10(-4) cm-1        Axes

              Baa    -0.0074    -0.993    -0.354    -0.331  0.6975  0.7161  0.0269
     1 C(13)  Bbb    -0.0070    -0.941    -0.336    -0.314  0.2699 -0.2973  0.9158
              Bcc     0.0144     1.934     0.690     0.645  0.6639 -0.6315 -0.4006
 
              Baa    -0.0214    -2.871    -1.024    -0.958  0.5222  0.8367  0.1650
     2 C(13)  Bbb    -0.0111    -1.490    -0.532    -0.497  0.3077 -0.3653  0.8786
              Bcc     0.0325     4.361     1.556     1.455  0.7954 -0.4080 -0.4482
 
              Baa    -0.0155    -2.083    -0.743    -0.695  0.4095  0.5806  0.7037
     3 C(13)  Bbb    -0.0133    -1.788    -0.638    -0.596 -0.1413  0.8024 -0.5798
              Bcc     0.0288     3.871     1.381     1.291  0.9013 -0.1379 -0.4106
 
              Baa    -0.0066    -0.883    -0.315    -0.295  0.1334  0.9893  0.0589
     4 C(13)  Bbb    -0.0062    -0.835    -0.298    -0.279  0.5131 -0.1198  0.8499
              Bcc     0.0128     1.718     0.613     0.573  0.8479 -0.0831 -0.5236
 
              Baa    -0.0044    -0.594    -0.212    -0.198  0.6373  0.2318  0.7349
     5 C(13)  Bbb    -0.0034    -0.458    -0.164    -0.153  0.0601  0.9359 -0.3472
              Bcc     0.0078     1.052     0.375     0.351  0.7682 -0.2655 -0.5825
 
              Baa    -0.0042    -0.568    -0.203    -0.189  0.3534  0.8986 -0.2602
     6 C(13)  Bbb    -0.0038    -0.506    -0.181    -0.169  0.5495  0.0257  0.8351
              Bcc     0.0080     1.074     0.383     0.358  0.7571 -0.4380 -0.4847
 
              Baa    -0.0451    -6.057    -2.161    -2.020  0.6926  0.6176 -0.3726
     7 C(13)  Bbb    -0.0372    -4.996    -1.783    -1.667  0.2601  0.2680  0.9276
              Bcc     0.0824    11.053     3.944     3.687 -0.6728  0.7394 -0.0250
 
              Baa    -0.0198    -2.650    -0.946    -0.884  0.6100  0.7233 -0.3236
     8 C(13)  Bbb    -0.0180    -2.414    -0.861    -0.805 -0.2506  0.5635  0.7872
              Bcc     0.0377     5.064     1.807     1.689  0.7517 -0.3992  0.5250
 
              Baa    -0.0070    -0.943    -0.337    -0.315 -0.3438  0.0924  0.9345
     9 C(13)  Bbb    -0.0047    -0.634    -0.226    -0.212  0.7204  0.6643  0.1994
              Bcc     0.0118     1.578     0.563     0.526 -0.6023  0.7418 -0.2950
 
              Baa    -0.0059    -0.790    -0.282    -0.263 -0.1105  0.2399  0.9645
    10 C(13)  Bbb    -0.0048    -0.638    -0.228    -0.213  0.9102  0.4141  0.0013
              Bcc     0.0106     1.428     0.510     0.476 -0.3991  0.8780 -0.2641
 
              Baa    -0.0219    -2.936    -1.048    -0.979 -0.3278  0.0297  0.9443
    11 C(13)  Bbb    -0.0116    -1.557    -0.555    -0.519  0.9352  0.1520  0.3199
              Bcc     0.0335     4.493     1.603     1.499 -0.1340  0.9879 -0.0776
 
              Baa    -0.0156    -2.092    -0.747    -0.698 -0.3789  0.3220  0.8676
    12 C(13)  Bbb    -0.0126    -1.697    -0.606    -0.566  0.9213  0.2195  0.3209
              Bcc     0.0282     3.789     1.352     1.264 -0.0871  0.9209 -0.3799
 
              Baa    -0.0127    -1.707    -0.609    -0.570  0.1707  0.6584  0.7331
    13 C(13)  Bbb    -0.0121    -1.626    -0.580    -0.542  0.9830 -0.1644 -0.0813
              Bcc     0.0248     3.334     1.190     1.112  0.0670  0.7345 -0.6753
 
              Baa    -0.4802    34.745    12.398    11.590 -0.4051  0.8581  0.3156
    14 O(17)  Bbb     0.1158    -8.382    -2.991    -2.796  0.7172  0.5123 -0.4724
              Bcc     0.3643   -26.364    -9.407    -8.794  0.5671 -0.0350  0.8229
 
              Baa    -0.1068    -1.849    -0.660    -0.617  0.4404  0.7697 -0.4621
    15 Fe(57) Bbb    -0.0393    -0.680    -0.243    -0.227 -0.5309  0.6383  0.5574
              Bcc     0.1461     2.529     0.902     0.844  0.7240 -0.0001  0.6898
 
              Baa    -0.2613   -13.676    -4.880    -4.562  0.5615 -0.5795  0.5907
    16 Cl(35) Bbb    -0.1407    -7.363    -2.627    -2.456  0.4776  0.8099  0.3405
              Bcc     0.4020    21.039     7.507     7.018 -0.6757  0.0909  0.7315
 
              Baa    -0.0083    -1.110    -0.396    -0.370 -0.6465  0.2636  0.7159
    17 C(13)  Bbb    -0.0069    -0.929    -0.332    -0.310  0.7400 -0.0114  0.6725
              Bcc     0.0152     2.039     0.728     0.680  0.1855  0.9646 -0.1877
 
              Baa    -0.1957   -10.241    -3.654    -3.416  0.9648 -0.0162  0.2626
    18 Cl(35) Bbb    -0.0545    -2.852    -1.018    -0.951 -0.2367  0.3821  0.8933
              Bcc     0.2502    13.093     4.672     4.367  0.1148  0.9240 -0.3649
 
              Baa    -0.1928   -10.091    -3.601    -3.366 -0.6430  0.7119 -0.2823
    19 Cl(35) Bbb    -0.1663    -8.706    -3.106    -2.904 -0.6567 -0.3230  0.6815
              Bcc     0.3591    18.797     6.707     6.270  0.3940  0.6236  0.6752
 
              Baa    -0.0254   -13.555    -4.837    -4.521  0.1453  0.6544  0.7421
    20 H(1)   Bbb    -0.0205   -10.959    -3.911    -3.656 -0.2858  0.7458 -0.6017
              Bcc     0.0459    24.514     8.747     8.177  0.9472  0.1246 -0.2954
 
              Baa    -0.0053    -2.833    -1.011    -0.945  0.4766  0.4325  0.7654
    21 H(1)   Bbb    -0.0050    -2.677    -0.955    -0.893 -0.3245  0.8957 -0.3042
              Bcc     0.0103     5.510     1.966     1.838  0.8171  0.1034 -0.5672
 
              Baa    -0.0024    -1.296    -0.462    -0.432  0.6522  0.2789  0.7049
    22 H(1)   Bbb    -0.0024    -1.264    -0.451    -0.422 -0.0209  0.9361 -0.3510
              Bcc     0.0048     2.560     0.913     0.854  0.7578 -0.2142 -0.6164
 
              Baa    -0.0025    -1.318    -0.470    -0.440  0.1989  0.7730 -0.6024
    23 H(1)   Bbb    -0.0024    -1.282    -0.457    -0.428  0.7033  0.3154  0.6370
              Bcc     0.0049     2.599     0.928     0.867  0.6825 -0.5504 -0.4810
 
              Baa    -0.0050    -2.688    -0.959    -0.897  0.5383  0.6157 -0.5755
    24 H(1)   Bbb    -0.0048    -2.566    -0.916    -0.856  0.5770  0.2284  0.7841
              Bcc     0.0098     5.254     1.875     1.753 -0.6142  0.7542  0.2323
 
              Baa    -0.0123    -6.566    -2.343    -2.190  0.5807  0.8139 -0.0187
    25 H(1)   Bbb    -0.0096    -5.126    -1.829    -1.710 -0.5567  0.4138  0.7203
              Bcc     0.0219    11.691     4.172     3.900  0.5940 -0.4079  0.6934
 
              Baa    -0.0068    -0.915    -0.326    -0.305 -0.1404  0.6025  0.7857
    26 C(13)  Bbb    -0.0061    -0.814    -0.290    -0.271  0.3585  0.7706 -0.5269
              Bcc     0.0129     1.728     0.617     0.577  0.9229 -0.2077  0.3242
 
              Baa    -0.0034    -1.815    -0.648    -0.605  0.7825  0.4987 -0.3727
    27 H(1)   Bbb    -0.0031    -1.663    -0.593    -0.555 -0.0022  0.6009  0.7993
              Bcc     0.0065     3.478     1.241     1.160 -0.6226  0.6247 -0.4713
 
              Baa    -0.0040    -2.125    -0.758    -0.709  0.6391  0.7635  0.0935
    28 H(1)   Bbb    -0.0037    -1.967    -0.702    -0.656 -0.1747  0.0257  0.9843
              Bcc     0.0077     4.092     1.460     1.365  0.7491 -0.6454  0.1497
 
              Baa    -0.0044    -2.321    -0.828    -0.774 -0.1541  0.3912  0.9073
    29 H(1)   Bbb    -0.0042    -2.233    -0.797    -0.745  0.9390  0.3437  0.0112
              Bcc     0.0085     4.554     1.625     1.519 -0.3074  0.8537 -0.4203
 
              Baa    -0.0038    -2.029    -0.724    -0.677 -0.5778 -0.1600  0.8003
    30 H(1)   Bbb    -0.0036    -1.920    -0.685    -0.641  0.6999  0.4073  0.5867
              Bcc     0.0074     3.949     1.409     1.317 -0.4199  0.8991 -0.1234
 
              Baa    -0.0122    -6.516    -2.325    -2.173  0.7526  0.3237 -0.5734
    31 H(1)   Bbb    -0.0098    -5.211    -1.859    -1.738  0.5810  0.0833  0.8096
              Bcc     0.0220    11.727     4.184     3.912 -0.3098  0.9425  0.1254
 
              Baa    -0.0054    -2.861    -1.021    -0.954  0.7831 -0.0878 -0.6157
    32 H(1)   Bbb    -0.0050    -2.673    -0.954    -0.892  0.6160 -0.0268  0.7873
              Bcc     0.0104     5.534     1.975     1.846  0.0856  0.9958 -0.0331
 
              Baa    -0.0127    -6.758    -2.411    -2.254  0.8906 -0.3288 -0.3141
    33 H(1)   Bbb    -0.0106    -5.676    -2.025    -1.893  0.3101 -0.0659  0.9484
              Bcc     0.0233    12.433     4.437     4.147  0.3326  0.9421 -0.0433
 
              Baa    -0.0052    -2.790    -0.995    -0.931  0.7838 -0.4247 -0.4531
    34 H(1)   Bbb    -0.0052    -2.775    -0.990    -0.926  0.5291  0.0745  0.8453
              Bcc     0.0104     5.565     1.986     1.856  0.3252  0.9023 -0.2831
 
              Baa    -0.0070    -3.745    -1.336    -1.249  0.5011  0.5219  0.6903
    35 H(1)   Bbb    -0.0066    -3.513    -1.254    -1.172  0.8450 -0.4672 -0.2602
              Bcc     0.0136     7.259     2.590     2.421  0.1867  0.7137 -0.6751
 
              Baa    -0.0269   -14.344    -5.118    -4.785  0.5383  0.5484  0.6399
    36 H(1)   Bbb    -0.0216   -11.531    -4.115    -3.846  0.8122 -0.5403 -0.2202
              Bcc     0.0485    25.875     9.233     8.631 -0.2250 -0.6382  0.7363
 
              Baa    -0.0117    -6.265    -2.235    -2.090  0.2790  0.7849  0.5533
    37 H(1)   Bbb    -0.0103    -5.495    -1.961    -1.833  0.9500 -0.1416 -0.2781
              Bcc     0.0220    11.760     4.196     3.923  0.1400 -0.6033  0.7852
 
              Baa    -0.0081     0.585     0.209     0.195 -0.4177  0.3289  0.8469
    38 O(17)  Bbb    -0.0078     0.563     0.201     0.188  0.0859  0.9423 -0.3235
              Bcc     0.0159    -1.148    -0.410    -0.383  0.9045  0.0624  0.4219
 
              Baa    -0.0065     0.473     0.169     0.158  0.1247  0.8863  0.4461
    39 O(17)  Bbb     0.0011    -0.081    -0.029    -0.027 -0.6388 -0.2723  0.7196
              Bcc     0.0054    -0.392    -0.140    -0.131  0.7592 -0.3747  0.5322
 
              Baa    -0.0041    -0.554    -0.198    -0.185 -0.3903  0.3085  0.8675
    40 C(13)  Bbb    -0.0039    -0.526    -0.188    -0.175 -0.0818  0.9268 -0.3665
              Bcc     0.0080     1.080     0.385     0.360  0.9170  0.2140  0.3365
 
              Baa    -0.0040    -0.535    -0.191    -0.179 -0.5153  0.1651  0.8409
    41 C(13)  Bbb    -0.0037    -0.503    -0.180    -0.168 -0.2960  0.8866 -0.3555
              Bcc     0.0077     1.039     0.371     0.346  0.8042  0.4321  0.4080
 
              Baa    -0.0039    -2.063    -0.736    -0.688 -0.2164  0.3485  0.9120
    42 H(1)   Bbb    -0.0036    -1.937    -0.691    -0.646 -0.1294  0.9156 -0.3806
              Bcc     0.0075     4.000     1.427     1.334  0.9677  0.2003  0.1530
 
              Baa    -0.0026    -1.391    -0.496    -0.464 -0.4126  0.1013  0.9053
    43 H(1)   Bbb    -0.0025    -1.338    -0.477    -0.446 -0.0839  0.9853 -0.1485
              Bcc     0.0051     2.729     0.974     0.910  0.9070  0.1373  0.3981
 
              Baa    -0.0025    -1.333    -0.476    -0.445 -0.4950  0.2372  0.8359
    44 H(1)   Bbb    -0.0024    -1.280    -0.457    -0.427 -0.3232  0.8427 -0.4306
              Bcc     0.0049     2.612     0.932     0.871  0.8065  0.4833  0.3404
 
              Baa    -0.0036    -1.902    -0.679    -0.635 -0.6269  0.0031  0.7791
    45 H(1)   Bbb    -0.0034    -1.836    -0.655    -0.612 -0.3258  0.9073 -0.2658
              Bcc     0.0070     3.738     1.334     1.247  0.7077  0.4205  0.5678
 
              Baa    -0.0061    -3.253    -1.161    -1.085 -0.5364  0.2595  0.8031
    46 H(1)   Bbb    -0.0056    -2.993    -1.068    -0.998 -0.3512  0.7967 -0.4919
              Bcc     0.0117     6.246     2.229     2.084  0.7674  0.5459  0.3362
 

 ---------------------------------------------------------------------------------

 No NMR shielding tensors so no spin-rotation constants.
 Leave Link  601 at Sun Jun 20 06:47:11 2021, MaxMem=  2147483648 cpu:              82.5 elap:               5.3
 (Enter /SFS/product/gaussian/g16.a03/x86_64/avx/g16/l9999.exe)
 1\1\GINC-KTCHPCPX033\SP\UB3LYP\Jul-CC-pVDZ\C17H22Cl3Fe1O3(6)\KWANEU\20
 -Jun-2021\0\\#p ub3lyp jul-cc-pvdz pop=cm5 scrf=(pcm,solvent=water) gu
 ess=read geom=allcheck\\title\\0,6\C,0,1.7547781499,-1.8363380132,1.76
 39480454\C,0,1.2213292466,-0.7302671624,1.0817367395\C,0,1.487964966,0
 .5501698974,1.591590787\C,0,2.2522196497,0.7176846215,2.7482293753\C,0
 ,2.7723924545,-0.3909563203,3.4206335863\C,0,2.5208174247,-1.670377958
 3,2.9213326738\C,0,0.4113739498,-0.8458619635,-0.230926516\C,0,1.39072
 81007,-1.0041256609,-1.4669110296\C,0,1.7901828707,-2.4772174846,-1.48
 69809475\C,0,0.5403644969,-3.2699698405,-1.0490526583\C,0,-0.369687258
 9,-2.2422470156,-0.2232783068\C,0,-1.6686639879,-2.4062982026,-0.89048
 05538\C,0,-2.0170446899,-1.7321464554,-2.1273285656\O,0,-0.3913874729,
 0.2662094123,-0.4148126038\Fe,0,-1.8571723457,1.0909921096,0.377893037
 9\Cl,0,-3.431690694,1.2024029979,-1.2574008579\C,0,-2.6776115235,-3.25
 32233331,-0.2293491525\Cl,0,-1.3594172361,3.0878528969,1.1784445535\Cl
 ,0,-2.6224687966,-0.3621390217,1.922446758\H,0,1.082690225,1.423598885
 ,1.0858340325\H,0,2.4318511643,1.7243233262,3.1282808402\H,0,3.3648780
 932,-0.2601128286,4.3272651631\H,0,2.9177713019,-2.5479624059,3.433835
 1401\H,0,1.5859855461,-2.8539858682,1.413453104\H,0,0.7956856687,-0.73
 40239926,-2.3496194102\C,0,2.5920876782,-0.0706662488,-1.4416317895\H,
 0,2.1409158335,-2.7967710178,-2.4762258996\H,0,2.6155857105,-2.6365909
 9,-0.7837634828\H,0,0.012146245,-3.6668154615,-1.9281539553\H,0,0.7692
 589205,-4.1337249401,-0.4136275748\H,0,-0.4698942265,-2.58383845,0.809
 9162313\H,0,-2.2247002203,-4.0754333993,0.3400090737\H,0,-3.125650848,
 -2.5751696381,0.5304937032\H,0,-3.4660245373,-3.6080409569,-0.90083337
 79\H,0,-2.7426642164,-2.2841764794,-2.7360206525\H,0,-2.5561831069,-0.
 7958726037,-1.7812576674\H,0,-1.1690969147,-1.3625217695,-2.7076621465
 \O,0,2.24377605,1.1803507178,-1.7810724995\O,0,3.7234919802,-0.4148898
 541,-1.1672975589\C,0,3.2994617319,2.1799647654,-1.7411102226\C,0,2.67
 74050593,3.5134883267,-2.1026241712\H,0,3.7325942563,2.1806018723,-0.7
 319396186\H,0,4.0862309445,1.8791678988,-2.4467397921\H,0,3.4503919189
 ,4.2950851588,-2.0755868391\H,0,2.2470100047,3.4870570542,-3.113272997
 9\H,0,1.8837294335,3.7829243963,-1.3928989967\\Version=ES64L-G16RevA.0
 3\State=6-A\HF=-3531.4387215\S2=8.76159\S2-1=0.\S2A=8.750042\RMSD=4.87
 1e-09\Dipole=1.0274513,-5.4449844,-2.2650007\Quadrupole=-17.8418844,16
 .5360671,1.3058173,24.3266738,8.5475309,3.5560626\PG=C01 [X(C17H22Cl3F
 e1O3)]\\@


 A FOOL CAN ASK MORE QUESTIONS THAN
 A WISE MAN CAN ANSWER.
 Job cpu time:       0 days  4 hours 32 minutes 48.0 seconds.
 Elapsed time:       0 days  0 hours 17 minutes  7.6 seconds.
 File lengths (MBytes):  RWF=    665 Int=      0 D2E=      0 Chk=     57 Scr=      1
 Normal termination of Gaussian 16 at Sun Jun 20 06:47:11 2021.
