 Entering Gaussian System, Link 0=g16
 Input=prenyl-first_betaine_grid-CC_190_CO_240-b3lyp_d3bj-juldz-gas.gjf
 Output=prenyl-first_betaine_grid-CC_190_CO_240-b3lyp_d3bj-juldz-gas.out
 Initial command:
 /SFS/product/gaussian/g16.a03/x86_64/avx/g16/l1.exe "/scratch/kwaneu.2874261.bmbhpcps002/Gau-3989.inp" -scrdir="/scratch/kwaneu.2874261.bmbhpcps002/"
 Entering Link 1 = /SFS/product/gaussian/g16.a03/x86_64/avx/g16/l1.exe PID=      3990.
  
 Copyright (c) 1988,1990,1992,1993,1995,1998,2003,2009,2016,
            Gaussian, Inc.  All Rights Reserved.
  
 This is part of the Gaussian(R) 16 program.  It is based on
 the Gaussian(R) 09 system (copyright 2009, Gaussian, Inc.),
 the Gaussian(R) 03 system (copyright 2003, Gaussian, Inc.),
 the Gaussian(R) 98 system (copyright 1998, Gaussian, Inc.),
 the Gaussian(R) 94 system (copyright 1995, Gaussian, Inc.),
 the Gaussian 92(TM) system (copyright 1992, Gaussian, Inc.),
 the Gaussian 90(TM) system (copyright 1990, Gaussian, Inc.),
 the Gaussian 88(TM) system (copyright 1988, Gaussian, Inc.),
 the Gaussian 86(TM) system (copyright 1986, Carnegie Mellon
 University), and the Gaussian 82(TM) system (copyright 1983,
 Carnegie Mellon University). Gaussian is a federally registered
 trademark of Gaussian, Inc.
  
 This software contains proprietary and confidential information,
 including trade secrets, belonging to Gaussian, Inc.
  
 This software is provided under written license and may be
 used, copied, transmitted, or stored only in accord with that
 written license.
  
 The following legend is applicable only to US Government
 contracts under FAR:
  
                    RESTRICTED RIGHTS LEGEND
  
 Use, reproduction and disclosure by the US Government is
 subject to restrictions as set forth in subparagraphs (a)
 and (c) of the Commercial Computer Software - Restricted
 Rights clause in FAR 52.227-19.
  
 Gaussian, Inc.
 340 Quinnipiac St., Bldg. 40, Wallingford CT 06492
  
  
 ---------------------------------------------------------------
 Warning -- This program may not be used in any manner that
 competes with the business of Gaussian, Inc. or will provide
 assistance to any competitor of Gaussian, Inc.  The licensee
 of this program is prohibited from giving any competitor of
 Gaussian, Inc. access to this program.  By using this program,
 the user acknowledges that Gaussian, Inc. is engaged in the
 business of creating and licensing software in the field of
 computational chemistry and represents and warrants to the
 licensee that it is not a competitor of Gaussian, Inc. and that
 it will not use this program in any manner prohibited above.
 ---------------------------------------------------------------
  

 Cite this work as:
 Gaussian 16, Revision A.03,
 M. J. Frisch, G. W. Trucks, H. B. Schlegel, G. E. Scuseria, 
 M. A. Robb, J. R. Cheeseman, G. Scalmani, V. Barone, 
 G. A. Petersson, H. Nakatsuji, X. Li, M. Caricato, A. V. Marenich, 
 J. Bloino, B. G. Janesko, R. Gomperts, B. Mennucci, H. P. Hratchian, 
 J. V. Ortiz, A. F. Izmaylov, J. L. Sonnenberg, D. Williams-Young, 
 F. Ding, F. Lipparini, F. Egidi, J. Goings, B. Peng, A. Petrone, 
 T. Henderson, D. Ranasinghe, V. G. Zakrzewski, J. Gao, N. Rega, 
 G. Zheng, W. Liang, M. Hada, M. Ehara, K. Toyota, R. Fukuda, 
 J. Hasegawa, M. Ishida, T. Nakajima, Y. Honda, O. Kitao, H. Nakai, 
 T. Vreven, K. Throssell, J. A. Montgomery, Jr., J. E. Peralta, 
 F. Ogliaro, M. J. Bearpark, J. J. Heyd, E. N. Brothers, K. N. Kudin, 
 V. N. Staroverov, T. A. Keith, R. Kobayashi, J. Normand, 
 K. Raghavachari, A. P. Rendell, J. C. Burant, S. S. Iyengar, 
 J. Tomasi, M. Cossi, J. M. Millam, M. Klene, C. Adamo, R. Cammi, 
 J. W. Ochterski, R. L. Martin, K. Morokuma, O. Farkas, 
 J. B. Foresman, and D. J. Fox, Gaussian, Inc., Wallingford CT, 2016.
 
 ******************************************
 Gaussian 16:  ES64L-G16RevA.03 25-Dec-2016
                19-Jun-2021 
 ******************************************
 %chk=checkpoint.chk
 %nprocshared=16
 Will use up to   16 processors via shared memory.
 %mem=16GB
 -----------------------------------------------------------
 #p opt=modredundant freq=noraman ub3lyp jul-cc-pvdz pop=cm5
 -----------------------------------------------------------
 1/18=120,19=15,26=3,38=1/1,3;
 2/9=110,12=2,17=6,18=5,40=1/2;
 3/5=16,7=50,11=2,25=1,30=1,71=1,74=-5,116=2/1,2,3;
 4//1;
 5/5=2,38=5/2;
 6/7=2,8=2,9=2,10=2,28=1,79=1/1;
 7//1,2,3,16;
 1/18=20,19=15,26=3/3(2);
 2/9=110/2;
 99//99;
 2/9=110/2;
 3/5=16,7=50,11=2,25=1,30=1,71=1,74=-5,116=2/1,2,3;
 4/5=5,16=3,69=1/1;
 5/5=2,38=5/2;
 7//1,2,3,16;
 1/18=20,19=15,26=3/3(-5);
 2/9=110/2;
 6/7=2,8=2,9=2,10=2,19=2,28=1,79=1/1;
 99/9=1/99;
 Leave Link    1 at Sat Jun 19 21:34:48 2021, MaxMem=  2147483648 cpu:               1.5 elap:               0.1
 (Enter /SFS/product/gaussian/g16.a03/x86_64/avx/g16/l101.exe)
 -----
 title
 -----
 Symbolic Z-matrix:
 Charge =  0 Multiplicity = 6
 6                     3.1569   -0.78065   0.45539 
 6                     1.77522  -0.70942   0.71345 
 6                     1.34499  -0.58473   2.0445 
 6                     2.26927  -0.53396   3.08808 
 6                     3.63537  -0.61081   2.82051 
 6                     4.07566  -0.73084   1.49887 
 6                     0.73704  -0.73308  -0.38852 
 6                     1.01027   0.11932  -1.68578 
 6                     1.74217  -0.69981  -2.75043 
 6                     1.11351  -2.09743  -2.68711 
 6                     0.95524  -2.4306   -1.21364 
 6                    -0.22323  -2.93098  -0.64847 
 6                    -1.53657  -2.89199  -1.34568 
 8                    -0.51223  -0.65658   0.06114 
 26                   -2.0553    0.34949   0.37682 
 17                   -2.77997   1.03252  -1.60598 
 6                    -0.21752  -3.52308   0.71279 
 17                   -1.68626   1.96198   1.83408 
 17                   -3.425    -1.16453   1.27788 
 1                     0.28659  -0.49958   2.25334 
 1                     1.91541  -0.42661   4.10933 
 1                     4.35557  -0.57081   3.63303 
 1                     5.13833  -0.78      1.27933 
 1                     3.52485  -0.86196  -0.56062 
 1                     0.00899   0.37723  -2.0453 
 6                     1.73684   1.42973  -1.3701 
 1                     1.63268  -0.24224  -3.73863 
 1                     2.81459  -0.73154  -2.53886 
 1                     0.14715  -2.09578  -3.19939 
 1                     1.7377   -2.85084  -3.18127 
 1                     1.86767  -2.77552  -0.73431 
 1                     0.77353  -3.55774   1.16778 
 1                    -0.90848  -2.95243   1.34834 
 1                    -0.62838  -4.54148   0.65802 
 1                    -1.61023  -3.81426  -1.94593 
 1                    -2.36943  -2.87954  -0.63923 
 1                    -1.63513  -2.04962  -2.03237 
 8                     0.89956   2.31657  -0.82347 
 8                     2.91033   1.63143  -1.6048 
 6                     1.45376   3.61581  -0.46997 
 6                     0.29642   4.56933  -0.2506 
 1                     2.05853   3.4837    0.43305 
 1                     2.11529   3.93615  -1.27906 
 1                     0.68606   5.55282   0.03565 
 1                    -0.29201   4.68402  -1.16638 
 1                    -0.36394   4.20752   0.54179 
 
 The following ModRedundant input section has been read:
 B       7      11 F                                                           
 B      12      14 F                                                           
 
 ITRead=  0  0  0  0  0  0  0  0  0  0  0  0  0  0  0  0  0  0  0  0
 ITRead=  0  0  0  0  0  0  0  0  0  0  0  0  0  0  0  0  0  0  0  0
 ITRead=  0  0  0  0  0  0
 MicOpt= -1 -1 -1 -1 -1 -1 -1 -1 -1 -1 -1 -1 -1 -1 -1 -1 -1 -1 -1 -1
 MicOpt= -1 -1 -1 -1 -1 -1 -1 -1 -1 -1 -1 -1 -1 -1 -1 -1 -1 -1 -1 -1
 MicOpt= -1 -1 -1 -1 -1 -1
 NAtoms=     46 NQM=       46 NQMF=       0 NMMI=      0 NMMIF=      0
                NMic=       0 NMicF=      0.
                    Isotopes and Nuclear Properties:
 (Nuclear quadrupole moments (NQMom) in fm**2, nuclear magnetic moments (NMagM)
  in nuclear magnetons)

  Atom         1           2           3           4           5           6           7           8           9          10
 IAtWgt=          12          12          12          12          12          12          12          12          12          12
 AtmWgt=  12.0000000  12.0000000  12.0000000  12.0000000  12.0000000  12.0000000  12.0000000  12.0000000  12.0000000  12.0000000
 NucSpn=           0           0           0           0           0           0           0           0           0           0
 AtZEff=  -0.0000000  -0.0000000  -0.0000000  -0.0000000  -0.0000000  -0.0000000  -0.0000000  -0.0000000  -0.0000000  -0.0000000
 NQMom=    0.0000000   0.0000000   0.0000000   0.0000000   0.0000000   0.0000000   0.0000000   0.0000000   0.0000000   0.0000000
 NMagM=    0.0000000   0.0000000   0.0000000   0.0000000   0.0000000   0.0000000   0.0000000   0.0000000   0.0000000   0.0000000
 AtZNuc=   6.0000000   6.0000000   6.0000000   6.0000000   6.0000000   6.0000000   6.0000000   6.0000000   6.0000000   6.0000000

  Atom        11          12          13          14          15          16          17          18          19          20
 IAtWgt=          12          12          12          16          56          35          12          35          35           1
 AtmWgt=  12.0000000  12.0000000  12.0000000  15.9949146  55.9349393  34.9688527  12.0000000  34.9688527  34.9688527   1.0078250
 NucSpn=           0           0           0           0           0           3           0           3           3           1
 AtZEff=  -0.0000000  -0.0000000  -0.0000000  -0.0000000  -0.0000000  -0.0000000  -0.0000000  -0.0000000  -0.0000000  -0.0000000
 NQMom=    0.0000000   0.0000000   0.0000000   0.0000000   0.0000000  -8.1650000   0.0000000  -8.1650000  -8.1650000   0.0000000
 NMagM=    0.0000000   0.0000000   0.0000000   0.0000000   0.0000000   0.8218740   0.0000000   0.8218740   0.8218740   2.7928460
 AtZNuc=   6.0000000   6.0000000   6.0000000   8.0000000  26.0000000  17.0000000   6.0000000  17.0000000  17.0000000   1.0000000

  Atom        21          22          23          24          25          26          27          28          29          30
 IAtWgt=           1           1           1           1           1          12           1           1           1           1
 AtmWgt=   1.0078250   1.0078250   1.0078250   1.0078250   1.0078250  12.0000000   1.0078250   1.0078250   1.0078250   1.0078250
 NucSpn=           1           1           1           1           1           0           1           1           1           1
 AtZEff=  -0.0000000  -0.0000000  -0.0000000  -0.0000000  -0.0000000  -0.0000000  -0.0000000  -0.0000000  -0.0000000  -0.0000000
 NQMom=    0.0000000   0.0000000   0.0000000   0.0000000   0.0000000   0.0000000   0.0000000   0.0000000   0.0000000   0.0000000
 NMagM=    2.7928460   2.7928460   2.7928460   2.7928460   2.7928460   0.0000000   2.7928460   2.7928460   2.7928460   2.7928460
 AtZNuc=   1.0000000   1.0000000   1.0000000   1.0000000   1.0000000   6.0000000   1.0000000   1.0000000   1.0000000   1.0000000

  Atom        31          32          33          34          35          36          37          38          39          40
 IAtWgt=           1           1           1           1           1           1           1          16          16          12
 AtmWgt=   1.0078250   1.0078250   1.0078250   1.0078250   1.0078250   1.0078250   1.0078250  15.9949146  15.9949146  12.0000000
 NucSpn=           1           1           1           1           1           1           1           0           0           0
 AtZEff=  -0.0000000  -0.0000000  -0.0000000  -0.0000000  -0.0000000  -0.0000000  -0.0000000  -0.0000000  -0.0000000  -0.0000000
 NQMom=    0.0000000   0.0000000   0.0000000   0.0000000   0.0000000   0.0000000   0.0000000   0.0000000   0.0000000   0.0000000
 NMagM=    2.7928460   2.7928460   2.7928460   2.7928460   2.7928460   2.7928460   2.7928460   0.0000000   0.0000000   0.0000000
 AtZNuc=   1.0000000   1.0000000   1.0000000   1.0000000   1.0000000   1.0000000   1.0000000   8.0000000   8.0000000   6.0000000

  Atom        41          42          43          44          45          46
 IAtWgt=          12           1           1           1           1           1
 AtmWgt=  12.0000000   1.0078250   1.0078250   1.0078250   1.0078250   1.0078250
 NucSpn=           0           1           1           1           1           1
 AtZEff=  -0.0000000  -0.0000000  -0.0000000  -0.0000000  -0.0000000  -0.0000000
 NQMom=    0.0000000   0.0000000   0.0000000   0.0000000   0.0000000   0.0000000
 NMagM=    0.0000000   2.7928460   2.7928460   2.7928460   2.7928460   2.7928460
 AtZNuc=   6.0000000   1.0000000   1.0000000   1.0000000   1.0000000   1.0000000
 Leave Link  101 at Sat Jun 19 21:34:48 2021, MaxMem=  2147483648 cpu:               5.4 elap:               0.4
 (Enter /SFS/product/gaussian/g16.a03/x86_64/avx/g16/l103.exe)

 GradGradGradGradGradGradGradGradGradGradGradGradGradGradGradGradGradGrad
 Berny optimization.
 Initialization pass.
                           ----------------------------
                           !    Initial Parameters    !
                           ! (Angstroms and Degrees)  !
 --------------------------                            --------------------------
 ! Name  Definition              Value          Derivative Info.                !
 --------------------------------------------------------------------------------
 ! R1    R(1,2)                  1.4074         estimate D2E/DX2                !
 ! R2    R(1,6)                  1.3912         estimate D2E/DX2                !
 ! R3    R(1,24)                 1.0836         estimate D2E/DX2                !
 ! R4    R(2,3)                  1.4044         estimate D2E/DX2                !
 ! R5    R(2,7)                  1.5142         estimate D2E/DX2                !
 ! R6    R(3,4)                  1.395          estimate D2E/DX2                !
 ! R7    R(3,20)                 1.0822         estimate D2E/DX2                !
 ! R8    R(4,5)                  1.3942         estimate D2E/DX2                !
 ! R9    R(4,21)                 1.0861         estimate D2E/DX2                !
 ! R10   R(5,6)                  1.3982         estimate D2E/DX2                !
 ! R11   R(5,22)                 1.0865         estimate D2E/DX2                !
 ! R12   R(6,23)                 1.0862         estimate D2E/DX2                !
 ! R13   R(7,8)                  1.5761         estimate D2E/DX2                !
 ! R14   R(7,11)                 1.9            Frozen                          !
 ! R15   R(7,14)                 1.3299         estimate D2E/DX2                !
 ! R16   R(8,9)                  1.5298         estimate D2E/DX2                !
 ! R17   R(8,25)                 1.0947         estimate D2E/DX2                !
 ! R18   R(8,26)                 1.5313         estimate D2E/DX2                !
 ! R19   R(9,10)                 1.5338         estimate D2E/DX2                !
 ! R20   R(9,27)                 1.0945         estimate D2E/DX2                !
 ! R21   R(9,28)                 1.0936         estimate D2E/DX2                !
 ! R22   R(10,11)                1.5189         estimate D2E/DX2                !
 ! R23   R(10,29)                1.0938         estimate D2E/DX2                !
 ! R24   R(10,30)                1.0961         estimate D2E/DX2                !
 ! R25   R(11,12)                1.3995         estimate D2E/DX2                !
 ! R26   R(11,31)                1.0869         estimate D2E/DX2                !
 ! R27   R(12,13)                1.4874         estimate D2E/DX2                !
 ! R28   R(12,14)                2.4            Frozen                          !
 ! R29   R(12,17)                1.4845         estimate D2E/DX2                !
 ! R30   R(13,35)                1.1029         estimate D2E/DX2                !
 ! R31   R(13,36)                1.0922         estimate D2E/DX2                !
 ! R32   R(13,37)                1.0913         estimate D2E/DX2                !
 ! R33   R(14,15)                1.8689         estimate D2E/DX2                !
 ! R34   R(15,16)                2.2188         estimate D2E/DX2                !
 ! R35   R(15,18)                2.2045         estimate D2E/DX2                !
 ! R36   R(15,19)                2.2316         estimate D2E/DX2                !
 ! R37   R(17,32)                1.0911         estimate D2E/DX2                !
 ! R38   R(17,33)                1.0986         estimate D2E/DX2                !
 ! R39   R(17,34)                1.0995         estimate D2E/DX2                !
 ! R40   R(26,38)                1.3365         estimate D2E/DX2                !
 ! R41   R(26,39)                1.2136         estimate D2E/DX2                !
 ! R42   R(38,40)                1.4561         estimate D2E/DX2                !
 ! R43   R(40,41)                1.5155         estimate D2E/DX2                !
 ! R44   R(40,42)                1.0948         estimate D2E/DX2                !
 ! R45   R(40,43)                1.0931         estimate D2E/DX2                !
 ! R46   R(41,44)                1.0959         estimate D2E/DX2                !
 ! R47   R(41,45)                1.0946         estimate D2E/DX2                !
 ! R48   R(41,46)                1.0931         estimate D2E/DX2                !
 ! A1    A(2,1,6)              120.5975         estimate D2E/DX2                !
 ! A2    A(2,1,24)             120.6016         estimate D2E/DX2                !
 ! A3    A(6,1,24)             118.796          estimate D2E/DX2                !
 ! A4    A(1,2,3)              118.6218         estimate D2E/DX2                !
 ! A5    A(1,2,7)              122.6077         estimate D2E/DX2                !
 ! A6    A(3,2,7)              118.758          estimate D2E/DX2                !
 ! A7    A(2,3,4)              120.6165         estimate D2E/DX2                !
 ! A8    A(2,3,20)             119.3079         estimate D2E/DX2                !
 ! A9    A(4,3,20)             120.0529         estimate D2E/DX2                !
 ! A10   A(3,4,5)              120.242          estimate D2E/DX2                !
 ! A11   A(3,4,21)             119.4155         estimate D2E/DX2                !
 ! A12   A(5,4,21)             120.3409         estimate D2E/DX2                !
 ! A13   A(4,5,6)              119.65           estimate D2E/DX2                !
 ! A14   A(4,5,22)             120.2624         estimate D2E/DX2                !
 ! A15   A(6,5,22)             120.0863         estimate D2E/DX2                !
 ! A16   A(1,6,5)              120.2711         estimate D2E/DX2                !
 ! A17   A(1,6,23)             119.5295         estimate D2E/DX2                !
 ! A18   A(5,6,23)             120.1984         estimate D2E/DX2                !
 ! A19   A(2,7,8)              118.1452         estimate D2E/DX2                !
 ! A20   A(2,7,14)             113.3962         estimate D2E/DX2                !
 ! A21   A(8,7,14)             114.2063         estimate D2E/DX2                !
 ! A22   A(7,8,9)              111.4802         estimate D2E/DX2                !
 ! A23   A(7,8,25)             103.838          estimate D2E/DX2                !
 ! A24   A(7,8,26)             112.0488         estimate D2E/DX2                !
 ! A25   A(9,8,25)             109.5852         estimate D2E/DX2                !
 ! A26   A(9,8,26)             112.0056         estimate D2E/DX2                !
 ! A27   A(25,8,26)            107.4631         estimate D2E/DX2                !
 ! A28   A(8,9,10)             105.2536         estimate D2E/DX2                !
 ! A29   A(8,9,27)             110.895          estimate D2E/DX2                !
 ! A30   A(8,9,28)             110.4927         estimate D2E/DX2                !
 ! A31   A(10,9,27)            112.1615         estimate D2E/DX2                !
 ! A32   A(10,9,28)            111.5626         estimate D2E/DX2                !
 ! A33   A(27,9,28)            106.5542         estimate D2E/DX2                !
 ! A34   A(9,10,11)            106.4165         estimate D2E/DX2                !
 ! A35   A(9,10,29)            109.9633         estimate D2E/DX2                !
 ! A36   A(9,10,30)            111.9813         estimate D2E/DX2                !
 ! A37   A(11,10,29)           111.2613         estimate D2E/DX2                !
 ! A38   A(11,10,30)           110.2379         estimate D2E/DX2                !
 ! A39   A(29,10,30)           107.0389         estimate D2E/DX2                !
 ! A40   A(10,11,12)           123.9115         estimate D2E/DX2                !
 ! A41   A(10,11,31)           114.2021         estimate D2E/DX2                !
 ! A42   A(12,11,31)           114.5416         estimate D2E/DX2                !
 ! A43   A(11,12,13)           123.014          estimate D2E/DX2                !
 ! A44   A(11,12,17)           120.6434         estimate D2E/DX2                !
 ! A45   A(13,12,17)           116.3386         estimate D2E/DX2                !
 ! A46   A(12,13,35)           106.987          estimate D2E/DX2                !
 ! A47   A(12,13,36)           111.7415         estimate D2E/DX2                !
 ! A48   A(12,13,37)           113.2618         estimate D2E/DX2                !
 ! A49   A(35,13,36)           108.0983         estimate D2E/DX2                !
 ! A50   A(35,13,37)           107.2777         estimate D2E/DX2                !
 ! A51   A(36,13,37)           109.2296         estimate D2E/DX2                !
 ! A52   A(7,14,15)            149.7278         estimate D2E/DX2                !
 ! A53   A(14,15,16)           106.5249         estimate D2E/DX2                !
 ! A54   A(14,15,18)           111.5422         estimate D2E/DX2                !
 ! A55   A(14,15,19)           102.1074         estimate D2E/DX2                !
 ! A56   A(16,15,18)           114.8486         estimate D2E/DX2                !
 ! A57   A(16,15,19)           111.6665         estimate D2E/DX2                !
 ! A58   A(18,15,19)           109.3949         estimate D2E/DX2                !
 ! A59   A(12,17,32)           113.489          estimate D2E/DX2                !
 ! A60   A(12,17,33)           108.7166         estimate D2E/DX2                !
 ! A61   A(12,17,34)           108.8034         estimate D2E/DX2                !
 ! A62   A(32,17,33)           110.2755         estimate D2E/DX2                !
 ! A63   A(32,17,34)           109.3158         estimate D2E/DX2                !
 ! A64   A(33,17,34)           105.9559         estimate D2E/DX2                !
 ! A65   A(8,26,38)            110.7876         estimate D2E/DX2                !
 ! A66   A(8,26,39)            124.1365         estimate D2E/DX2                !
 ! A67   A(38,26,39)           125.0693         estimate D2E/DX2                !
 ! A68   A(26,38,40)           116.9315         estimate D2E/DX2                !
 ! A69   A(38,40,41)           107.8119         estimate D2E/DX2                !
 ! A70   A(38,40,42)           107.6277         estimate D2E/DX2                !
 ! A71   A(38,40,43)           108.188          estimate D2E/DX2                !
 ! A72   A(41,40,42)           112.2332         estimate D2E/DX2                !
 ! A73   A(41,40,43)           112.6383         estimate D2E/DX2                !
 ! A74   A(42,40,43)           108.1532         estimate D2E/DX2                !
 ! A75   A(40,41,44)           109.3257         estimate D2E/DX2                !
 ! A76   A(40,41,45)           110.8162         estimate D2E/DX2                !
 ! A77   A(40,41,46)           110.9784         estimate D2E/DX2                !
 ! A78   A(44,41,45)           108.3994         estimate D2E/DX2                !
 ! A79   A(44,41,46)           108.8129         estimate D2E/DX2                !
 ! A80   A(45,41,46)           108.446          estimate D2E/DX2                !
 ! D1    D(6,1,2,3)              0.1153         estimate D2E/DX2                !
 ! D2    D(6,1,2,7)            178.8155         estimate D2E/DX2                !
 ! D3    D(24,1,2,3)          -179.0635         estimate D2E/DX2                !
 ! D4    D(24,1,2,7)            -0.3632         estimate D2E/DX2                !
 ! D5    D(2,1,6,5)              0.0848         estimate D2E/DX2                !
 ! D6    D(2,1,6,23)          -179.559          estimate D2E/DX2                !
 ! D7    D(24,1,6,5)           179.2782         estimate D2E/DX2                !
 ! D8    D(24,1,6,23)           -0.3656         estimate D2E/DX2                !
 ! D9    D(1,2,3,4)             -0.0604         estimate D2E/DX2                !
 ! D10   D(1,2,3,20)           178.2053         estimate D2E/DX2                !
 ! D11   D(7,2,3,4)           -178.8115         estimate D2E/DX2                !
 ! D12   D(7,2,3,20)            -0.5458         estimate D2E/DX2                !
 ! D13   D(1,2,7,8)            -42.4649         estimate D2E/DX2                !
 ! D14   D(1,2,7,14)           179.9632         estimate D2E/DX2                !
 ! D15   D(3,2,7,8)            136.2336         estimate D2E/DX2                !
 ! D16   D(3,2,7,14)            -1.3382         estimate D2E/DX2                !
 ! D17   D(2,3,4,5)             -0.1951         estimate D2E/DX2                !
 ! D18   D(2,3,4,21)           179.3486         estimate D2E/DX2                !
 ! D19   D(20,3,4,5)          -178.4479         estimate D2E/DX2                !
 ! D20   D(20,3,4,21)            1.0958         estimate D2E/DX2                !
 ! D21   D(3,4,5,6)              0.395          estimate D2E/DX2                !
 ! D22   D(3,4,5,22)           179.9695         estimate D2E/DX2                !
 ! D23   D(21,4,5,6)          -179.1445         estimate D2E/DX2                !
 ! D24   D(21,4,5,22)            0.43           estimate D2E/DX2                !
 ! D25   D(4,5,6,1)             -0.3404         estimate D2E/DX2                !
 ! D26   D(4,5,6,23)           179.301          estimate D2E/DX2                !
 ! D27   D(22,5,6,1)          -179.9157         estimate D2E/DX2                !
 ! D28   D(22,5,6,23)           -0.2743         estimate D2E/DX2                !
 ! D29   D(2,7,8,9)             90.9843         estimate D2E/DX2                !
 ! D30   D(2,7,8,25)          -151.1158         estimate D2E/DX2                !
 ! D31   D(2,7,8,26)           -35.444          estimate D2E/DX2                !
 ! D32   D(14,7,8,9)          -131.7723         estimate D2E/DX2                !
 ! D33   D(14,7,8,25)          -13.8724         estimate D2E/DX2                !
 ! D34   D(14,7,8,26)          101.7994         estimate D2E/DX2                !
 ! D35   D(2,7,14,15)          101.4472         estimate D2E/DX2                !
 ! D36   D(8,7,14,15)          -37.8424         estimate D2E/DX2                !
 ! D37   D(7,8,9,10)            39.3553         estimate D2E/DX2                !
 ! D38   D(7,8,9,27)           160.8636         estimate D2E/DX2                !
 ! D39   D(7,8,9,28)           -81.2148         estimate D2E/DX2                !
 ! D40   D(25,8,9,10)          -75.0269         estimate D2E/DX2                !
 ! D41   D(25,8,9,27)           46.4814         estimate D2E/DX2                !
 ! D42   D(25,8,9,28)          164.403          estimate D2E/DX2                !
 ! D43   D(26,8,9,10)          165.8072         estimate D2E/DX2                !
 ! D44   D(26,8,9,27)          -72.6844         estimate D2E/DX2                !
 ! D45   D(26,8,9,28)           45.2371         estimate D2E/DX2                !
 ! D46   D(7,8,26,38)          -75.3196         estimate D2E/DX2                !
 ! D47   D(7,8,26,39)          105.5779         estimate D2E/DX2                !
 ! D48   D(9,8,26,38)          158.5376         estimate D2E/DX2                !
 ! D49   D(9,8,26,39)          -20.565          estimate D2E/DX2                !
 ! D50   D(25,8,26,38)          38.1294         estimate D2E/DX2                !
 ! D51   D(25,8,26,39)        -140.9731         estimate D2E/DX2                !
 ! D52   D(8,9,10,11)          -42.538          estimate D2E/DX2                !
 ! D53   D(8,9,10,29)           78.0741         estimate D2E/DX2                !
 ! D54   D(8,9,10,30)         -163.0565         estimate D2E/DX2                !
 ! D55   D(27,9,10,11)        -163.2179         estimate D2E/DX2                !
 ! D56   D(27,9,10,29)         -42.6058         estimate D2E/DX2                !
 ! D57   D(27,9,10,30)          76.2636         estimate D2E/DX2                !
 ! D58   D(28,9,10,11)          77.3259         estimate D2E/DX2                !
 ! D59   D(28,9,10,29)        -162.062          estimate D2E/DX2                !
 ! D60   D(28,9,10,30)         -43.1926         estimate D2E/DX2                !
 ! D61   D(9,10,11,12)         131.7354         estimate D2E/DX2                !
 ! D62   D(9,10,11,31)         -79.958          estimate D2E/DX2                !
 ! D63   D(29,10,11,12)         11.9624         estimate D2E/DX2                !
 ! D64   D(29,10,11,31)        160.269          estimate D2E/DX2                !
 ! D65   D(30,10,11,12)       -106.6293         estimate D2E/DX2                !
 ! D66   D(30,10,11,31)         41.6773         estimate D2E/DX2                !
 ! D67   D(10,11,12,13)        -14.9261         estimate D2E/DX2                !
 ! D68   D(10,11,12,17)        165.8275         estimate D2E/DX2                !
 ! D69   D(31,11,12,13)       -163.1376         estimate D2E/DX2                !
 ! D70   D(31,11,12,17)         17.616          estimate D2E/DX2                !
 ! D71   D(11,12,13,35)         88.3041         estimate D2E/DX2                !
 ! D72   D(11,12,13,36)       -153.563          estimate D2E/DX2                !
 ! D73   D(11,12,13,37)        -29.6881         estimate D2E/DX2                !
 ! D74   D(17,12,13,35)        -92.4194         estimate D2E/DX2                !
 ! D75   D(17,12,13,36)         25.7135         estimate D2E/DX2                !
 ! D76   D(17,12,13,37)        149.5884         estimate D2E/DX2                !
 ! D77   D(11,12,17,32)         -2.5749         estimate D2E/DX2                !
 ! D78   D(11,12,17,33)        120.5304         estimate D2E/DX2                !
 ! D79   D(11,12,17,34)       -124.5106         estimate D2E/DX2                !
 ! D80   D(13,12,17,32)        178.1302         estimate D2E/DX2                !
 ! D81   D(13,12,17,33)        -58.7645         estimate D2E/DX2                !
 ! D82   D(13,12,17,34)         56.1945         estimate D2E/DX2                !
 ! D83   D(7,14,15,16)          62.482          estimate D2E/DX2                !
 ! D84   D(7,14,15,18)         -63.559          estimate D2E/DX2                !
 ! D85   D(7,14,15,19)         179.7089         estimate D2E/DX2                !
 ! D86   D(8,26,38,40)        -179.955          estimate D2E/DX2                !
 ! D87   D(39,26,38,40)         -0.8626         estimate D2E/DX2                !
 ! D88   D(26,38,40,41)        164.1492         estimate D2E/DX2                !
 ! D89   D(26,38,40,42)        -74.5789         estimate D2E/DX2                !
 ! D90   D(26,38,40,43)         42.0684         estimate D2E/DX2                !
 ! D91   D(38,40,41,44)        178.9591         estimate D2E/DX2                !
 ! D92   D(38,40,41,45)        -61.6231         estimate D2E/DX2                !
 ! D93   D(38,40,41,46)         58.9284         estimate D2E/DX2                !
 ! D94   D(42,40,41,44)         60.6023         estimate D2E/DX2                !
 ! D95   D(42,40,41,45)       -179.9798         estimate D2E/DX2                !
 ! D96   D(42,40,41,46)        -59.4283         estimate D2E/DX2                !
 ! D97   D(43,40,41,44)        -61.7521         estimate D2E/DX2                !
 ! D98   D(43,40,41,45)         57.6658         estimate D2E/DX2                !
 ! D99   D(43,40,41,46)        178.2173         estimate D2E/DX2                !
 --------------------------------------------------------------------------------
 Trust Radius=3.00D-01 FncErr=1.00D-07 GrdErr=1.00D-06 EigMax=2.50D+02 EigMin=1.00D-04
 Number of steps in this run=    237 maximum allowed number of steps=    276.
 GradGradGradGradGradGradGradGradGradGradGradGradGradGradGradGradGradGrad

 Leave Link  103 at Sat Jun 19 21:34:49 2021, MaxMem=  2147483648 cpu:               0.3 elap:               0.1
 (Enter /SFS/product/gaussian/g16.a03/x86_64/avx/g16/l202.exe)
                          Input orientation:                          
 ---------------------------------------------------------------------
 Center     Atomic      Atomic             Coordinates (Angstroms)
 Number     Number       Type             X           Y           Z
 ---------------------------------------------------------------------
      1          6           0        3.156901   -0.780650    0.455389
      2          6           0        1.775216   -0.709424    0.713451
      3          6           0        1.344993   -0.584732    2.044501
      4          6           0        2.269271   -0.533963    3.088080
      5          6           0        3.635366   -0.610812    2.820506
      6          6           0        4.075659   -0.730836    1.498867
      7          6           0        0.737041   -0.733075   -0.388521
      8          6           0        1.010266    0.119323   -1.685781
      9          6           0        1.742170   -0.699807   -2.750431
     10          6           0        1.113510   -2.097434   -2.687110
     11          6           0        0.955241   -2.430595   -1.213635
     12          6           0       -0.223225   -2.930984   -0.648473
     13          6           0       -1.536572   -2.891986   -1.345681
     14          8           0       -0.512226   -0.656578    0.061144
     15         26           0       -2.055297    0.349486    0.376818
     16         17           0       -2.779969    1.032522   -1.605976
     17          6           0       -0.217520   -3.523080    0.712785
     18         17           0       -1.686260    1.961980    1.834083
     19         17           0       -3.425003   -1.164526    1.277878
     20          1           0        0.286589   -0.499584    2.253339
     21          1           0        1.915409   -0.426609    4.109327
     22          1           0        4.355570   -0.570805    3.633026
     23          1           0        5.138329   -0.779998    1.279331
     24          1           0        3.524847   -0.861956   -0.560619
     25          1           0        0.008990    0.377234   -2.045302
     26          6           0        1.736839    1.429734   -1.370099
     27          1           0        1.632681   -0.242241   -3.738630
     28          1           0        2.814591   -0.731540   -2.538857
     29          1           0        0.147146   -2.095781   -3.199391
     30          1           0        1.737699   -2.850836   -3.181271
     31          1           0        1.867666   -2.775519   -0.734310
     32          1           0        0.773533   -3.557735    1.167784
     33          1           0       -0.908484   -2.952431    1.348337
     34          1           0       -0.628380   -4.541480    0.658016
     35          1           0       -1.610225   -3.814256   -1.945933
     36          1           0       -2.369431   -2.879536   -0.639230
     37          1           0       -1.635125   -2.049616   -2.032372
     38          8           0        0.899557    2.316573   -0.823470
     39          8           0        2.910333    1.631429   -1.604800
     40          6           0        1.453755    3.615805   -0.469965
     41          6           0        0.296424    4.569326   -0.250603
     42          1           0        2.058531    3.483700    0.433048
     43          1           0        2.115293    3.936149   -1.279061
     44          1           0        0.686060    5.552822    0.035652
     45          1           0       -0.292009    4.684019   -1.166376
     46          1           0       -0.363935    4.207519    0.541789
 ---------------------------------------------------------------------
                    Distance matrix (angstroms):
                    1          2          3          4          5
     1  C    0.000000
     2  C    1.407381   0.000000
     3  C    2.417989   1.404398   0.000000
     4  C    2.789230   2.431818   1.394964   0.000000
     5  C    2.418998   2.812395   2.418403   1.394173   0.000000
     6  C    1.391202   2.430921   2.788476   2.414000   1.398211
     7  C    2.563234   1.514169   2.512212   3.804488   4.325863
     8  C    3.162689   2.651091   3.810871   4.980123   5.266011
     9  C    3.505037   3.464053   4.812729   5.864601   5.884509
    10  C    3.972992   3.732056   4.972926   6.093689   6.237278
    11  C    3.217960   2.710802   3.764913   4.881459   5.173874
    12  C    4.155442   3.283890   3.900810   5.091176   5.683814
    13  C    5.452548   4.468953   5.012003   6.301028   7.022095
    14  O    3.692332   2.379220   2.718111   4.112676   4.981836
    15  Fe   5.333891   3.988413   3.900757   5.180088   6.267171
    16  Cl   6.540890   5.400354   5.740802   7.069856   7.965602
    17  C    4.355903   3.447848   3.584523   4.556421   5.269585
    18  Cl   5.734023   4.513760   3.964658   4.842362   5.992662
    19  Cl   6.644194   5.250521   4.865874   6.008261   7.248111
    20  H    3.398575   2.152045   1.082166   2.151512   3.398287
    21  H    3.875295   3.410515   2.147995   1.086135   2.157138
    22  H    3.402678   3.898892   3.403995   2.156610   1.086500
    23  H    2.145912   3.411119   3.874663   3.400529   2.159338
    24  H    1.083636   2.169730   3.408118   3.872603   3.392240
    25  H    4.183718   3.451246   4.408715   5.682496   6.148408
    26  C    3.199184   2.986411   3.983856   4.900505   5.032833
    27  H    4.494767   4.478795   5.800402   6.862530   6.867959
    28  H    3.014149   3.414425   4.815438   5.656751   5.423193
    29  H    4.913818   4.459028   5.587174   6.817256   7.114209
    30  H    4.418722   4.444762   5.709478   6.704866   6.681330
    31  H    2.656504   2.524541   3.576944   4.449329   4.521884
    32  H    3.728291   3.053304   3.151816   3.881748   4.427859
    33  H    4.694821   3.554772   3.341976   4.355895   5.319496
    34  H    5.339780   4.523826   4.633832   5.510153   6.189188
    35  H    6.139593   5.307873   5.923403   7.152070   7.777996
    36  H    6.011976   4.870034   5.124986   6.396257   7.292083
    37  H    5.546417   4.578874   5.258125   6.615175   7.307438
    38  O    4.040281   3.505077   4.103808   5.030099   5.415976
    39  O    3.181713   3.484591   4.547423   5.207975   5.013646
    40  C    4.804769   4.495711   4.896823   5.526783   5.783677
    41  C    6.107618   5.566096   5.738581   6.409562   6.885788
    42  H    4.403589   4.212028   4.433741   4.820293   4.995137
    43  H    5.132393   5.066271   5.663726   6.251202   6.308084
    44  H    6.811322   6.392292   6.491474   6.990910   7.378631
    45  H    6.662410   6.074240   6.383513   7.203325   7.704203
    46  H    6.106192   5.364864   5.305115   5.991579   6.663578
                    6          7          8          9         10
     6  C    0.000000
     7  C    3.835180   0.000000
     8  C    4.501265   1.576108   0.000000
     9  C    4.847955   2.567101   1.529751   0.000000
    10  C    5.307007   2.699392   2.434611   1.533814   0.000000
    11  C    4.470331   1.900000   2.593845   2.444714   1.518938
    12  C    5.285085   2.412569   3.449910   3.641312   2.576375
    13  C    6.652756   3.278165   3.958539   4.186779   3.074684
    14  O    4.808456   1.329932   2.443717   3.604043   3.503139
    15  Fe   6.325718   3.091089   3.702022   5.030055   5.041469
    16  Cl   7.729755   4.119331   3.899511   4.975991   5.111228
    17  C    5.181307   3.147728   4.530748   4.879049   3.919616
    18  Cl   6.368935   4.251550   4.801675   6.313241   6.690197
    19  Cl   7.516439   4.503959   5.486634   6.568327   6.098323
    20  H    3.870369   2.690139   4.052582   5.215028   5.257847
    21  H    3.402019   4.659733   5.890722   6.867382   7.044590
    22  H    2.158378   5.412294   6.321158   6.898915   7.265375
    23  H    1.086223   4.706938   5.161547   5.270608   5.802367
    24  H    2.135900   2.796085   2.924383   2.828340   3.444258
    25  H    5.506973   2.123150   1.094681   2.158967   2.784935
    26  C    4.285920   2.576982   1.531255   2.537773   3.816277
    27  H    5.799848   3.502331   2.175389   1.094482   2.194761
    28  H    4.230072   2.990010   2.169630   1.093553   2.186623
    29  H    6.274545   3.178983   2.818276   2.166659   1.093752
    30  H    5.644834   3.644953   3.404041   2.193757   1.096094
    31  H    3.747405   2.359970   3.165524   2.896390   2.200450
    32  H    4.359474   3.225232   4.660433   4.945545   4.136215
    33  H    5.458922   3.263429   4.724738   5.375889   4.593943
    34  H    6.111957   4.178943   5.468238   5.656454   4.494153
    35  H    7.328261   4.174789   4.733677   4.646026   3.303869
    36  H    7.122328   3.784220   4.637971   5.110152   4.115383
    37  H    6.842652   3.172176   3.438388   3.707252   2.825945
    38  O    4.976703   3.084793   2.362995   3.677190   4.796080
    39  O    4.070753   3.434154   2.429666   2.848111   4.278363
    40  C    5.444627   4.408296   3.728308   4.889603   6.137801
    41  C    6.740547   5.322464   4.729887   6.008584   7.144920
    42  H    4.792399   4.494719   4.111852   5.266531   6.463552
    43  H    5.774138   4.949171   3.994329   4.878139   6.276169
    44  H    7.287986   6.300399   5.708884   6.926254   8.131578
    45  H    7.449879   5.568564   4.775160   5.969313   7.090573
    46  H    6.709198   5.146561   4.854260   6.273455   7.236095
                   11         12         13         14         15
    11  C    0.000000
    12  C    1.399493   0.000000
    13  C    2.537607   1.487448   0.000000
    14  O    2.631664   2.400000   2.832930   0.000000
    15  Fe   4.395649   3.894765   3.707185   1.868926   0.000000
    16  Cl   5.108709   4.812809   4.124991   3.282530   2.218819
    17  C    2.505990   1.484464   2.524967   2.954373   4.299659
    18  Cl   5.963290   5.678437   5.804678   3.373205   2.204529
    19  Cl   5.195874   4.133108   3.665154   3.197299   2.231644
    20  H    4.024402   3.819965   4.690464   2.338476   3.118763
    21  H    5.768172   5.786390   6.910237   4.725895   5.504585
    22  H    6.205738   6.698287   8.055603   6.038306   7.249072
    23  H    5.141748   6.090109   7.476997   5.781694   7.337474
    24  H    3.080574   4.282130   5.509565   4.089832   5.786570
    25  H    3.077493   3.598522   3.683209   2.403653   3.182564
    26  C    3.941766   4.835127   5.421538   3.385181   4.312650
    27  H    3.409313   4.496976   4.774046   4.382988   5.557718
    28  H    2.846082   4.199932   5.002381   4.222953   5.778026
    29  H    2.169872   2.709598   2.627754   3.624523   4.859975
    30  H    2.158804   3.204171   3.753923   4.515549   6.106462
    31  H    1.086851   2.098419   3.460661   3.284287   5.137110
    32  H    2.640950   2.164517   3.478119   3.360735   4.888178
    33  H    3.210839   2.111230   2.766926   2.661734   3.627904
    34  H    3.235239   2.112998   2.749626   3.932202   5.102618
    35  H    3.005394   2.094598   1.102864   3.899345   4.788529
    36  H    3.403665   2.146842   1.092191   2.980147   3.399650
    37  H    2.743259   2.164589   1.091258   2.753955   3.425848
    38  O    4.763500   5.369182   5.773778   3.408123   3.747170
    39  O    4.524979   5.616882   6.348495   4.441200   5.497970
    40  C    6.112325   6.760516   7.215281   4.732908   4.868195
    41  C    7.096504   7.528810   7.760815   5.297280   4.871478
    42  H    6.237604   6.893785   7.532464   4.887638   5.172044
    43  H    6.471895   7.281746   7.743642   5.458310   5.744555
    44  H    8.085056   8.559777   8.840982   6.324017   5.891192
    45  H    7.223268   7.632904   7.679644   5.484275   4.927353
    46  H    6.991874   7.238422   7.439126   4.890036   4.215725
                   16         17         18         19         20
    16  Cl   0.000000
    17  C    5.718068   0.000000
    18  Cl   3.727479   5.787952   0.000000
    19  Cl   3.682350   4.021201   3.620446   0.000000
    20  H    5.161922   3.430592   3.182327   3.894815   0.000000
    21  H    7.539252   5.066953   4.884067   6.089468   2.470440
    22  H    8.996317   6.177126   6.793740   8.150861   4.297117
    23  H    8.620306   6.044054   7.375717   8.571961   4.956481
    24  H    6.665772   4.765338   6.392562   7.195279   4.305344
    25  H    2.898396   4.782343   4.520500   5.021241   4.395928
    26  C    4.540371   5.717368   4.718864   6.355044   4.353711
    27  H    5.064061   5.831144   6.850481   7.183045   6.146697
    28  H    5.939805   5.249721   6.829005   7.327174   5.423075
    29  H    4.570914   4.180345   6.720317   5.802880   5.683270
    30  H    6.162090   4.408908   7.748579   7.027172   6.096646
    31  H    6.071366   2.645927   6.455302   5.886981   4.075013
    32  H    6.433629   1.091060   6.079621   4.833971   3.281437
    33  H    5.301912   1.098635   4.999232   3.087788   2.874663
    34  H    6.389405   1.099520   6.693074   4.428222   4.440625
    35  H    4.997512   3.015492   6.903565   4.550543   5.676164
    36  H    4.050597   2.621605   5.479441   2.780431   4.591903
    37  H    3.315427   3.422950   5.571803   3.865851   4.945999
    38  O    3.974923   6.140805   3.724886   5.935953   4.215830
    39  O    5.721733   6.459383   5.750117   7.500912   5.129375
    40  C    5.088054   7.426691   4.231249   7.050447   5.071005
    41  C    4.879571   8.165739   3.882680   7.004451   5.653642
    42  H    5.794564   7.372491   4.278083   7.238017   4.724382
    43  H    5.701010   8.065331   5.295358   7.952968   5.957998
    44  H    5.928019   9.145871   4.664376   7.972875   6.458276
    45  H    4.440340   8.419814   4.284412   7.070750   6.236904
    46  H    4.531084   7.733876   2.908782   6.226623   5.050683
                   21         22         23         24         25
    21  H    0.000000
    22  H    2.490390   0.000000
    23  H    4.303600   2.489248   0.000000
    24  H    4.958650   4.285035   2.448562   0.000000
    25  H    6.493077   7.213525   6.221132   4.012621   0.000000
    26  C    5.788092   5.990924   4.844846   3.017296   2.132866
    27  H    7.855212   7.865328   6.144809   3.750212   2.426413
    28  H    6.715643   6.363379   4.469974   2.105920   3.056857
    29  H    7.702613   8.168127   6.833897   4.460303   2.732547
    30  H    7.685133   7.647642   5.979099   3.743976   3.833966
    31  H    5.383352   5.488538   4.328290   2.537349   3.887574
    32  H    4.445279   5.275430   5.174912   4.221887   5.137356
    33  H    4.687986   6.213068   6.425587   5.260097   4.842026
    34  H    5.942607   7.032546   6.913010   5.680956   5.648709
    35  H    7.782829   8.788371   8.071681   6.083102   4.494477
    36  H    6.850219   8.295062   8.028412   6.230515   4.270887
    37  H    7.277425   8.376875   7.645848   5.495626   2.931362
    38  O    5.734936   6.335719   5.654884   4.130894   2.459069
    39  O    6.154400   5.862880   4.370030   2.772167   3.191369
    40  C    6.125696   6.540854   5.996600   4.934368   3.880383
    41  C    6.825648   7.614472   7.375636   6.325950   4.569157
    42  H    5.368988   5.652898   5.327332   4.692780   4.471350
    43  H    6.936017   7.032786   6.158422   5.052209   4.205890
    44  H    7.338918   7.994073   7.840539   7.040144   5.619209
    45  H    7.669697   8.499849   8.082421   6.759672   4.405849
    46  H    6.276773   7.393366   7.462855   6.483634   4.637154
                   26         27         28         29         30
    26  C    0.000000
    27  H    2.901084   0.000000
    28  H    2.683030   1.753790   0.000000
    29  H    4.278164   2.435817   3.068016   0.000000
    30  H    4.647970   2.669540   2.462480   1.760766   0.000000
    31  H    4.255055   3.936833   2.886331   3.082022   2.451567
    32  H    5.678350   5.983605   5.088466   4.647783   4.510388
    33  H    5.795774   6.299197   5.822707   4.746581   5.246900
    34  H    6.735199   6.551820   6.048941   4.632761   4.816299
    35  H    6.247708   5.146794   5.425283   2.759106   3.696327
    36  H    5.997119   5.707758   5.924234   3.674487   4.830250
    37  H    4.890258   4.105664   4.668386   2.130858   3.652104
    38  O    1.336536   3.947551   3.987593   5.067543   5.741413
    39  O    1.213612   3.113883   2.542686   4.906120   4.893979
    40  C    2.381026   5.059714   5.003159   6.463684   7.017781
    41  C    3.631130   6.091231   6.298925   7.289807   8.107089
    42  H    2.752018   5.609535   5.212686   6.926660   7.300177
    43  H    2.536460   4.872508   4.885020   6.629136   7.058622
    44  H    4.481085   6.980262   7.117018   8.322083   9.059581
    45  H    3.840325   5.881238   6.392413   7.091664   8.059377
    46  H    3.972991   6.489131   6.632323   7.347736   8.252176
                   31         32         33         34         35
    31  H    0.000000
    32  H    2.329582   0.000000
    33  H    3.475014   1.796712   0.000000
    34  H    3.359678   1.786891   1.755015   0.000000
    35  H    3.826582   3.929801   3.476693   2.876356   0.000000
    36  H    4.239440   3.688289   2.467813   2.734257   1.776955
    37  H    3.805449   4.279843   3.573832   3.802777   1.766931
    38  O    5.184070   6.203908   5.978977   7.180688   6.719077
    39  O    4.611518   6.259438   6.657038   7.466434   7.085711
    40  C    6.410166   7.389493   7.213052   8.494052   8.171430
    41  C    7.526588   8.263690   7.783652   9.202589   8.763213
    42  H    6.370006   7.195336   7.145958   8.466027   8.507613
    43  H    6.738291   7.996604   7.968625   9.118673   8.625137
    44  H    8.446911   9.181047   8.752431  10.198530   9.845900
    45  H    7.777891   8.631929   8.063448   9.410174   8.635165
    46  H    7.441189   7.873047   7.225783   8.753766   8.490634
                   36         37         38         39         40
    36  H    0.000000
    37  H    1.780117   0.000000
    38  O    6.141643   5.191307   0.000000
    39  O    7.011208   5.864648   2.263431   0.000000
    40  C    7.538890   6.639224   1.456058   2.710575   0.000000
    41  C    7.921071   7.121515   2.401425   4.159039   1.515499
    42  H    7.826072   7.094997   2.069841   2.882585   1.094823
    43  H    8.183868   7.103696   2.075718   2.459660   1.093110
    44  H    8.994229   8.213506   3.355142   4.797478   2.144071
    45  H    7.861357   6.920676   2.672492   4.445843   2.161888
    46  H    7.459435   6.884328   2.652550   4.686674   2.162815
                   41         42         43         44         45
    41  C    0.000000
    42  H    2.179675   0.000000
    43  H    2.183329   1.771793   0.000000
    44  H    1.095912   2.514531   2.526818   0.000000
    45  H    1.094554   3.086092   2.523313   1.776600   0.000000
    46  H    1.093098   2.530628   3.087994   1.780029   1.774839
                   46
    46  H    0.000000
 Stoichiometry    C17H22Cl3FeO3(6)
 Framework group  C1[X(C17H22Cl3FeO3)]
 Deg. of freedom   132
 Full point group                 C1      NOp   1
 Largest Abelian subgroup         C1      NOp   1
 Largest concise Abelian subgroup C1      NOp   1
                         Standard orientation:                         
 ---------------------------------------------------------------------
 Center     Atomic      Atomic             Coordinates (Angstroms)
 Number     Number       Type             X           Y           Z
 ---------------------------------------------------------------------
      1          6           0        3.156901   -0.780651    0.455389
      2          6           0        1.775216   -0.709425    0.713451
      3          6           0        1.344993   -0.584732    2.044501
      4          6           0        2.269271   -0.533964    3.088080
      5          6           0        3.635366   -0.610813    2.820506
      6          6           0        4.075659   -0.730837    1.498867
      7          6           0        0.737041   -0.733075   -0.388521
      8          6           0        1.010266    0.119323   -1.685781
      9          6           0        1.742170   -0.699807   -2.750431
     10          6           0        1.113509   -2.097434   -2.687110
     11          6           0        0.955240   -2.430595   -1.213635
     12          6           0       -0.223226   -2.930984   -0.648473
     13          6           0       -1.536573   -2.891986   -1.345681
     14          8           0       -0.512226   -0.656578    0.061144
     15         26           0       -2.055297    0.349487    0.376818
     16         17           0       -2.779969    1.032523   -1.605976
     17          6           0       -0.217521   -3.523080    0.712785
     18         17           0       -1.686259    1.961980    1.834083
     19         17           0       -3.425003   -1.164525    1.277878
     20          1           0        0.286589   -0.499584    2.253339
     21          1           0        1.915409   -0.426610    4.109327
     22          1           0        4.355570   -0.570806    3.633026
     23          1           0        5.138329   -0.779999    1.279331
     24          1           0        3.524847   -0.861957   -0.560619
     25          1           0        0.008990    0.377234   -2.045302
     26          6           0        1.736839    1.429734   -1.370099
     27          1           0        1.632681   -0.242241   -3.738630
     28          1           0        2.814591   -0.731541   -2.538857
     29          1           0        0.147145   -2.095781   -3.199391
     30          1           0        1.737698   -2.850836   -3.181271
     31          1           0        1.867665   -2.775520   -0.734310
     32          1           0        0.773532   -3.557735    1.167784
     33          1           0       -0.908485   -2.952431    1.348337
     34          1           0       -0.628381   -4.541480    0.658016
     35          1           0       -1.610226   -3.814256   -1.945933
     36          1           0       -2.369432   -2.879535   -0.639230
     37          1           0       -1.635126   -2.049616   -2.032372
     38          8           0        0.899558    2.316573   -0.823470
     39          8           0        2.910333    1.631428   -1.604800
     40          6           0        1.453756    3.615805   -0.469965
     41          6           0        0.296425    4.569326   -0.250603
     42          1           0        2.058532    3.483699    0.433048
     43          1           0        2.115294    3.936148   -1.279061
     44          1           0        0.686062    5.552822    0.035652
     45          1           0       -0.292008    4.684019   -1.166376
     46          1           0       -0.363934    4.207519    0.541789
 ---------------------------------------------------------------------
 Rotational constants (GHZ):           0.2010873           0.1657845           0.1425685
 Leave Link  202 at Sat Jun 19 21:34:49 2021, MaxMem=  2147483648 cpu:               0.2 elap:               0.1
 (Enter /SFS/product/gaussian/g16.a03/x86_64/avx/g16/l301.exe)
 Standard basis: Jul-CC-pVDZ (5D, 7F)
 Ernie: Thresh=  0.10000D-02 Tol=  0.10000D-05 Strict=F.
 Ernie:  134 primitive shells out of 958 were deleted.
 There are   766 symmetry adapted cartesian basis functions of A   symmetry.
 There are   710 symmetry adapted basis functions of A   symmetry.
   710 basis functions,  1571 primitive gaussians,   766 cartesian basis functions
   115 alpha electrons      110 beta electrons
       nuclear repulsion energy      3360.1458336195 Hartrees.
 IExCor=  402 DFT=T Ex+Corr=B3LYP ExCW=0 ScaHFX=  0.200000
 ScaDFX=  0.800000  0.720000  1.000000  0.810000 ScalE2=  1.000000  1.000000
 IRadAn=      5 IRanWt=     -1 IRanGd=            0 ICorTp=0 IEmpDi=  4
 NAtoms=   46 NActive=   46 NUniq=   46 SFac= 1.00D+00 NAtFMM=   60 NAOKFM=F Big=F
 Integral buffers will be    131072 words long.
 Raffenetti 2 integral format.
 Two-electron integral symmetry is turned on.
 Leave Link  301 at Sat Jun 19 21:34:49 2021, MaxMem=  2147483648 cpu:               1.2 elap:               0.1
 (Enter /SFS/product/gaussian/g16.a03/x86_64/avx/g16/l302.exe)
 NPDir=0 NMtPBC=     1 NCelOv=     1 NCel=       1 NClECP=     1 NCelD=      1
         NCelK=      1 NCelE2=     1 NClLst=     1 CellRange=     0.0.
 One-electron integrals computed using PRISM.
 One-electron integral symmetry used in STVInt
 NBasis=   710 RedAO= T EigKep=  1.73D-06  NBF=   710
 NBsUse=   710 1.00D-06 EigRej= -1.00D+00 NBFU=   710
 Precomputing XC quadrature grid using
 IXCGrd= 4 IRadAn=           5 IRanWt=          -1 IRanGd=           0 AccXCQ= 0.00D+00.
 Generated NRdTot=       0 NPtTot=           0 NUsed=           0 NTot=          32
 NSgBfM=   764   764   764   764   764 MxSgAt=    46 MxSgA2=    46.
 Leave Link  302 at Sat Jun 19 21:34:50 2021, MaxMem=  2147483648 cpu:              16.5 elap:               1.1
 (Enter /SFS/product/gaussian/g16.a03/x86_64/avx/g16/l303.exe)
 DipDrv:  MaxL=1.
 Leave Link  303 at Sat Jun 19 21:34:50 2021, MaxMem=  2147483648 cpu:               2.5 elap:               0.2
 (Enter /SFS/product/gaussian/g16.a03/x86_64/avx/g16/l401.exe)
 ExpMin= 1.40D-02 ExpMax= 4.32D+06 ExpMxC= 4.91D+03 IAcc=3 IRadAn=         5 AccDes= 0.00D+00
 Harris functional with IExCor=  402 and IRadAn=       5 diagonalized for initial guess.
 HarFok:  IExCor=  402 AccDes= 0.00D+00 IRadAn=         5 IDoV= 1 UseB2=F ITyADJ=14
 ICtDFT=  3500011 ScaDFX=  1.000000  1.000000  1.000000  1.000000
 FoFCou: FMM=F IPFlag=           0 FMFlag=      100000 FMFlg1=           0
         NFxFlg=           0 DoJE=T BraDBF=F KetDBF=T FulRan=T
         wScrn=  0.000000 ICntrl=       500 IOpCl=  0 I1Cent=   200000004 NGrid=           0
         NMat0=    1 NMatS0=      1 NMatT0=    0 NMatD0=    1 NMtDS0=    0 NMtDT0=    0
 Petite list used in FoFCou.
 Harris En= -3531.09243948334    
 JPrj=0 DoOrth=F DoCkMO=F.
 Initial guess <Sx>= 0.0000 <Sy>= 0.0000 <Sz>= 2.5000 <S**2>= 8.7500 S= 2.5000
 Leave Link  401 at Sat Jun 19 21:34:57 2021, MaxMem=  2147483648 cpu:              98.6 elap:               6.2
 (Enter /SFS/product/gaussian/g16.a03/x86_64/avx/g16/l502.exe)
 Integral symmetry usage will be decided dynamically.
 UHF open shell SCF:
 Using DIIS extrapolation, IDIIS=  1040.
 NGot=  2147483648 LenX=  2146290678 LenY=  2145703156
 Requested convergence on RMS density matrix=1.00D-08 within 128 cycles.
 Requested convergence on MAX density matrix=1.00D-06.
 Requested convergence on             energy=1.00D-06.
 No special actions if energy rises.
 Fock matrices will be formed incrementally for  20 cycles.

 Cycle   1  Pass 1  IDiag  1:
 FoFJK:  IHMeth= 1 ICntrl=       0 DoSepK=F KAlg= 0 I1Cent=           0 FoldK=F
 IRaf= 930000000 NMat=       1 IRICut=       1 DoRegI=T DoRafI=F ISym2E= 0 IDoP0=0 IntGTp=1.
 FoFCou: FMM=F IPFlag=           0 FMFlag=      100000 FMFlg1=           0
         NFxFlg=           0 DoJE=F BraDBF=F KetDBF=F FulRan=T
         wScrn=  0.000000 ICntrl=         0 IOpCl=  1 I1Cent=           0 NGrid=           0
         NMat0=    1 NMatS0=      1 NMatT0=    0 NMatD0=    1 NMtDS0=    0 NMtDT0=    0
 Symmetry not used in FoFCou.
 E= -3530.32694402087    
 DIIS: error= 1.87D-02 at cycle   1 NSaved=   1.
 NSaved= 1 IEnMin= 1 EnMin= -3530.32694402087     IErMin= 1 ErrMin= 1.87D-02
 ErrMax= 1.87D-02  0.00D+00 EMaxC= 1.00D-01 BMatC= 4.63D+00 BMatP= 4.63D+00
 IDIUse=3 WtCom= 8.13D-01 WtEn= 1.87D-01
 Coeff-Com:  0.100D+01
 Coeff-En:   0.100D+01
 Coeff:      0.100D+01
 Gap=     0.107 Goal=   None    Shift=    0.000
 Gap=     0.023 Goal=   None    Shift=    0.000
 GapD=    0.023 DampG=0.250 DampE=0.250 DampFc=0.1250 IDamp=-1.
 Damping current iteration by 1.25D-01
 RMSDP=3.01D-02 MaxDP=7.04D+00              OVMax= 7.84D-01

 Cycle   2  Pass 1  IDiag  1:
 RMSU=  2.49D-03    CP:  9.58D-01
 E= -3530.65311534516     Delta-E=       -0.326171324293 Rises=F Damp=T
 DIIS: error= 8.33D-03 at cycle   2 NSaved=   2.
 NSaved= 2 IEnMin= 2 EnMin= -3530.65311534516     IErMin= 2 ErrMin= 8.33D-03
 ErrMax= 8.33D-03  0.00D+00 EMaxC= 1.00D-01 BMatC= 1.25D+00 BMatP= 4.63D+00
 IDIUse=3 WtCom= 9.17D-01 WtEn= 8.33D-02
 Coeff-Com: -0.418D+00 0.142D+01
 Coeff-En:   0.000D+00 0.100D+01
 Coeff:     -0.383D+00 0.138D+01
 Gap=     0.122 Goal=   None    Shift=    0.000
 Gap=    -0.099 Goal=   None    Shift=    0.000
 RMSDP=2.48D-02 MaxDP=7.80D+00 DE=-3.26D-01 OVMax= 9.76D-01

 Cycle   3  Pass 1  IDiag  1:
 RMSU=  8.17D-03    CP:  6.17D-01  2.39D+00
 E= -3530.04356681234     Delta-E=        0.609548532817 Rises=F Damp=F
 DIIS: error= 3.84D-02 at cycle   3 NSaved=   3.
 NSaved= 3 IEnMin= 2 EnMin= -3530.65311534516     IErMin= 2 ErrMin= 8.33D-03
 ErrMax= 3.84D-02  0.00D+00 EMaxC= 1.00D-01 BMatC= 5.96D+00 BMatP= 1.25D+00
 IDIUse=2 WtCom= 0.00D+00 WtEn= 1.00D+00
 Coeff-En:   0.000D+00 0.732D+00 0.268D+00
 Coeff:      0.000D+00 0.732D+00 0.268D+00
 Gap=    -0.194 Goal=   None    Shift=    0.000
 Gap=     0.220 Goal=   None    Shift=    0.000
 RMSDP=8.24D-03 MaxDP=1.21D+00 DE= 6.10D-01 OVMax= 7.94D-01

 Cycle   4  Pass 1  IDiag  1:
 RMSU=  5.49D-03    CP:  6.44D-01  3.00D+00  4.01D-01
 E= -3521.54403942487     Delta-E=        8.499527387473 Rises=F Damp=F
 DIIS: error= 1.16D-01 at cycle   4 NSaved=   4.
 NSaved= 4 IEnMin= 2 EnMin= -3530.65311534516     IErMin= 2 ErrMin= 8.33D-03
 ErrMax= 1.16D-01  0.00D+00 EMaxC= 1.00D-01 BMatC= 4.80D+01 BMatP= 1.25D+00
 IDIUse=2 WtCom= 0.00D+00 WtEn= 1.00D+00
 EnCoef did   100 forward-backward iterations
 Coeff-En:   0.347D+00 0.370D-01 0.434D+00 0.182D+00
 Coeff:      0.347D+00 0.370D-01 0.434D+00 0.182D+00
 Gap=     0.131 Goal=   None    Shift=    0.000
 Gap=     0.042 Goal=   None    Shift=    0.000
 RMSDP=5.61D-03 MaxDP=7.84D-01 DE= 8.50D+00 OVMax= 9.58D-01

 Cycle   5  Pass 1  IDiag  1:
 RMSU=  3.52D-03    CP:  6.49D-01  2.47D+00  5.95D-01  4.97D-01
 E= -3530.48306191010     Delta-E=       -8.939022485236 Rises=F Damp=F
 DIIS: error= 4.72D-02 at cycle   5 NSaved=   5.
 NSaved= 5 IEnMin= 2 EnMin= -3530.65311534516     IErMin= 2 ErrMin= 8.33D-03
 ErrMax= 4.72D-02  0.00D+00 EMaxC= 1.00D-01 BMatC= 5.98D+00 BMatP= 1.25D+00
 IDIUse=2 WtCom= 0.00D+00 WtEn= 1.00D+00
 Coeff-En:   0.000D+00 0.000D+00 0.436D+00 0.000D+00 0.564D+00
 Coeff:      0.000D+00 0.000D+00 0.436D+00 0.000D+00 0.564D+00
 Gap=     0.117 Goal=   None    Shift=    0.000
 Gap=     0.099 Goal=   None    Shift=    0.000
 RMSDP=4.59D-03 MaxDP=9.12D-01 DE=-8.94D+00 OVMax= 4.21D-01

 Cycle   6  Pass 1  IDiag  1:
 RMSU=  3.21D-03    CP:  6.80D-01  1.78D+00  6.25D-01  3.24D-01  5.36D-01
 E= -3531.18461201475     Delta-E=       -0.701550104642 Rises=F Damp=F
 DIIS: error= 1.39D-02 at cycle   6 NSaved=   6.
 NSaved= 6 IEnMin= 6 EnMin= -3531.18461201475     IErMin= 2 ErrMin= 8.33D-03
 ErrMax= 1.39D-02  0.00D+00 EMaxC= 1.00D-01 BMatC= 1.06D+00 BMatP= 1.25D+00
 IDIUse=3 WtCom= 8.61D-01 WtEn= 1.39D-01
 Coeff-Com: -0.416D+00 0.759D+00 0.252D+00-0.237D-02 0.131D+00 0.276D+00
 Coeff-En:   0.000D+00 0.000D+00 0.000D+00 0.000D+00 0.251D+00 0.749D+00
 Coeff:     -0.358D+00 0.654D+00 0.217D+00-0.204D-02 0.147D+00 0.342D+00
 Gap=     0.092 Goal=   None    Shift=    0.000
 Gap=     0.166 Goal=   None    Shift=    0.000
 RMSDP=3.87D-03 MaxDP=9.27D-01 DE=-7.02D-01 OVMax= 1.73D-01

 Cycle   7  Pass 1  IDiag  1:
 RMSU=  1.47D-03    CP:  6.51D-01  2.14D+00  6.62D-01  3.86D-01  7.37D-01
                    CP:  1.41D-01
 E= -3531.34093291899     Delta-E=       -0.156320904242 Rises=F Damp=F
 DIIS: error= 6.19D-03 at cycle   7 NSaved=   7.
 NSaved= 7 IEnMin= 7 EnMin= -3531.34093291899     IErMin= 7 ErrMin= 6.19D-03
 ErrMax= 6.19D-03  0.00D+00 EMaxC= 1.00D-01 BMatC= 2.90D-01 BMatP= 1.06D+00
 IDIUse=3 WtCom= 9.38D-01 WtEn= 6.19D-02
 Coeff-Com: -0.157D+00 0.223D+00 0.511D-01 0.801D-02-0.526D-01 0.297D+00
 Coeff-Com:  0.630D+00
 Coeff-En:   0.000D+00 0.000D+00 0.000D+00 0.000D+00 0.000D+00 0.279D+00
 Coeff-En:   0.721D+00
 Coeff:     -0.147D+00 0.209D+00 0.480D-01 0.751D-02-0.494D-01 0.296D+00
 Coeff:      0.636D+00
 Gap=     0.099 Goal=   None    Shift=    0.000
 Gap=     0.149 Goal=   None    Shift=    0.000
 RMSDP=1.42D-03 MaxDP=2.21D-01 DE=-1.56D-01 OVMax= 9.25D-02

 Cycle   8  Pass 1  IDiag  1:
 RMSU=  8.98D-04    CP:  6.56D-01  2.07D+00  6.64D-01  3.73D-01  6.75D-01
                    CP:  4.37D-01  7.91D-01
 E= -3531.40045459170     Delta-E=       -0.059521672715 Rises=F Damp=F
 DIIS: error= 2.62D-03 at cycle   8 NSaved=   8.
 NSaved= 8 IEnMin= 8 EnMin= -3531.40045459170     IErMin= 8 ErrMin= 2.62D-03
 ErrMax= 2.62D-03  0.00D+00 EMaxC= 1.00D-01 BMatC= 5.05D-02 BMatP= 2.90D-01
 IDIUse=3 WtCom= 9.74D-01 WtEn= 2.62D-02
 Coeff-Com: -0.804D-01 0.107D+00 0.904D-02 0.763D-02-0.454D-01 0.139D+00
 Coeff-Com:  0.414D+00 0.449D+00
 Coeff-En:   0.000D+00 0.000D+00 0.000D+00 0.000D+00 0.000D+00 0.000D+00
 Coeff-En:   0.107D+00 0.893D+00
 Coeff:     -0.783D-01 0.105D+00 0.880D-02 0.743D-02-0.442D-01 0.135D+00
 Coeff:      0.406D+00 0.461D+00
 Gap=     0.118 Goal=   None    Shift=    0.000
 Gap=     0.130 Goal=   None    Shift=    0.000
 RMSDP=4.45D-04 MaxDP=2.59D-02 DE=-5.95D-02 OVMax= 2.13D-02

 Cycle   9  Pass 1  IDiag  1:
 RMSU=  3.49D-04    CP:  6.57D-01  2.04D+00  6.60D-01  3.81D-01  6.62D-01
                    CP:  4.58D-01  8.86D-01  7.72D-01
 E= -3531.40758059232     Delta-E=       -0.007126000612 Rises=F Damp=F
 DIIS: error= 2.09D-03 at cycle   9 NSaved=   9.
 NSaved= 9 IEnMin= 9 EnMin= -3531.40758059232     IErMin= 9 ErrMin= 2.09D-03
 ErrMax= 2.09D-03  0.00D+00 EMaxC= 1.00D-01 BMatC= 1.80D-02 BMatP= 5.05D-02
 IDIUse=3 WtCom= 9.79D-01 WtEn= 2.09D-02
 Coeff-Com: -0.340D-01 0.481D-01-0.755D-02 0.242D-02 0.905D-02-0.323D-01
 Coeff-Com:  0.201D-01 0.212D+00 0.782D+00
 Coeff-En:   0.000D+00 0.000D+00 0.000D+00 0.000D+00 0.000D+00 0.000D+00
 Coeff-En:   0.000D+00 0.468D-02 0.995D+00
 Coeff:     -0.333D-01 0.471D-01-0.739D-02 0.236D-02 0.886D-02-0.316D-01
 Coeff:      0.196D-01 0.208D+00 0.787D+00
 Gap=     0.131 Goal=   None    Shift=    0.000
 Gap=     0.135 Goal=   None    Shift=    0.000
 RMSDP=3.10D-04 MaxDP=5.74D-02 DE=-7.13D-03 OVMax= 1.97D-02

 Cycle  10  Pass 1  IDiag  1:
 RMSU=  2.60D-04    CP:  6.58D-01  2.05D+00  6.51D-01  3.91D-01  6.81D-01
                    CP:  4.52D-01  9.24D-01  8.15D-01  1.19D+00
 E= -3531.41039265712     Delta-E=       -0.002812064808 Rises=F Damp=F
 DIIS: error= 8.18D-04 at cycle  10 NSaved=  10.
 NSaved=10 IEnMin=10 EnMin= -3531.41039265712     IErMin=10 ErrMin= 8.18D-04
 ErrMax= 8.18D-04  0.00D+00 EMaxC= 1.00D-01 BMatC= 3.71D-03 BMatP= 1.80D-02
 IDIUse=3 WtCom= 9.92D-01 WtEn= 8.18D-03
 Coeff-Com:  0.897D-03-0.211D-02-0.102D-01 0.369D-03 0.243D-01-0.569D-01
 Coeff-Com: -0.912D-01 0.824D-02 0.538D+00 0.588D+00
 Coeff-En:   0.000D+00 0.000D+00 0.000D+00 0.000D+00 0.000D+00 0.000D+00
 Coeff-En:   0.000D+00 0.000D+00 0.000D+00 0.100D+01
 Coeff:      0.890D-03-0.209D-02-0.101D-01 0.366D-03 0.241D-01-0.564D-01
 Coeff:     -0.905D-01 0.818D-02 0.534D+00 0.591D+00
 Gap=     0.133 Goal=   None    Shift=    0.000
 Gap=     0.132 Goal=   None    Shift=    0.000
 RMSDP=1.76D-04 MaxDP=1.55D-02 DE=-2.81D-03 OVMax= 1.10D-02

 Cycle  11  Pass 1  IDiag  1:
 RMSU=  1.30D-04    CP:  6.59D-01  2.07D+00  6.47D-01  3.92D-01  6.79D-01
                    CP:  4.62D-01  9.04D-01  8.92D-01  1.31D+00  8.91D-01
 E= -3531.41102651390     Delta-E=       -0.000633856782 Rises=F Damp=F
 DIIS: error= 2.25D-04 at cycle  11 NSaved=  11.
 NSaved=11 IEnMin=11 EnMin= -3531.41102651390     IErMin=11 ErrMin= 2.25D-04
 ErrMax= 2.25D-04  0.00D+00 EMaxC= 1.00D-01 BMatC= 4.51D-04 BMatP= 3.71D-03
 IDIUse=3 WtCom= 9.98D-01 WtEn= 2.25D-03
 Coeff-Com:  0.438D-02-0.489D-02-0.356D-02-0.539D-04 0.578D-02-0.151D-01
 Coeff-Com: -0.137D-01-0.198D-01 0.663D-01 0.304D+00 0.677D+00
 Coeff-En:   0.000D+00 0.000D+00 0.000D+00 0.000D+00 0.000D+00 0.000D+00
 Coeff-En:   0.000D+00 0.000D+00 0.000D+00 0.580D-01 0.942D+00
 Coeff:      0.437D-02-0.488D-02-0.355D-02-0.538D-04 0.576D-02-0.151D-01
 Coeff:     -0.136D-01-0.197D-01 0.662D-01 0.303D+00 0.677D+00
 Gap=     0.132 Goal=   None    Shift=    0.000
 Gap=     0.131 Goal=   None    Shift=    0.000
 RMSDP=7.46D-05 MaxDP=1.22D-02 DE=-6.34D-04 OVMax= 4.53D-03

 Cycle  12  Pass 1  IDiag  1:
 RMSU=  5.48D-05    CP:  6.58D-01  2.06D+00  6.46D-01  3.93D-01  6.81D-01
                    CP:  4.57D-01  9.17D-01  8.72D-01  1.36D+00  9.45D-01
                    CP:  8.40D-01
 E= -3531.41113460085     Delta-E=       -0.000108086945 Rises=F Damp=F
 DIIS: error= 1.24D-04 at cycle  12 NSaved=  12.
 NSaved=12 IEnMin=12 EnMin= -3531.41113460085     IErMin=12 ErrMin= 1.24D-04
 ErrMax= 1.24D-04  0.00D+00 EMaxC= 1.00D-01 BMatC= 7.31D-05 BMatP= 4.51D-04
 IDIUse=3 WtCom= 9.99D-01 WtEn= 1.24D-03
 Coeff-Com:  0.203D-02-0.177D-02-0.853D-03 0.434D-06-0.252D-03-0.234D-03
 Coeff-Com:  0.994D-02-0.626D-02-0.280D-01 0.984D-01 0.393D+00 0.534D+00
 Coeff-En:   0.000D+00 0.000D+00 0.000D+00 0.000D+00 0.000D+00 0.000D+00
 Coeff-En:   0.000D+00 0.000D+00 0.000D+00 0.000D+00 0.251D-01 0.975D+00
 Coeff:      0.203D-02-0.176D-02-0.852D-03 0.433D-06-0.252D-03-0.233D-03
 Coeff:      0.992D-02-0.625D-02-0.279D-01 0.983D-01 0.393D+00 0.534D+00
 Gap=     0.133 Goal=   None    Shift=    0.000
 Gap=     0.132 Goal=   None    Shift=    0.000
 RMSDP=3.18D-05 MaxDP=2.93D-03 DE=-1.08D-04 OVMax= 2.48D-03

 Cycle  13  Pass 1  IDiag  1:
 RMSU=  2.46D-05    CP:  6.58D-01  2.06D+00  6.46D-01  3.92D-01  6.82D-01
                    CP:  4.54D-01  9.17D-01  8.67D-01  1.34D+00  9.54D-01
                    CP:  9.22D-01  8.30D-01
 E= -3531.41115670304     Delta-E=       -0.000022102188 Rises=F Damp=F
 DIIS: error= 3.53D-05 at cycle  13 NSaved=  13.
 NSaved=13 IEnMin=13 EnMin= -3531.41115670304     IErMin=13 ErrMin= 3.53D-05
 ErrMax= 3.53D-05  0.00D+00 EMaxC= 1.00D-01 BMatC= 7.71D-06 BMatP= 7.31D-05
 IDIUse=1 WtCom= 1.00D+00 WtEn= 0.00D+00
 Coeff-Com:  0.110D-02-0.110D-02-0.293D-03-0.142D-04-0.367D-03 0.609D-03
 Coeff-Com:  0.492D-02-0.677D-03-0.168D-01 0.196D-01 0.120D+00 0.269D+00
 Coeff-Com:  0.604D+00
 Coeff:      0.110D-02-0.110D-02-0.293D-03-0.142D-04-0.367D-03 0.609D-03
 Coeff:      0.492D-02-0.677D-03-0.168D-01 0.196D-01 0.120D+00 0.269D+00
 Coeff:      0.604D+00
 Gap=     0.132 Goal=   None    Shift=    0.000
 Gap=     0.131 Goal=   None    Shift=    0.000
 RMSDP=1.38D-05 MaxDP=1.74D-03 DE=-2.21D-05 OVMax= 1.41D-03

 Cycle  14  Pass 1  IDiag  1:
 RMSU=  1.17D-05    CP:  6.58D-01  2.06D+00  6.46D-01  3.92D-01  6.83D-01
                    CP:  4.54D-01  9.18D-01  8.71D-01  1.34D+00  9.65D-01
                    CP:  9.34D-01  9.02D-01  1.05D+00
 E= -3531.41116037991     Delta-E=       -0.000003676872 Rises=F Damp=F
 DIIS: error= 1.58D-05 at cycle  14 NSaved=  14.
 NSaved=14 IEnMin=14 EnMin= -3531.41116037991     IErMin=14 ErrMin= 1.58D-05
 ErrMax= 1.58D-05  0.00D+00 EMaxC= 1.00D-01 BMatC= 2.41D-06 BMatP= 7.71D-06
 IDIUse=1 WtCom= 1.00D+00 WtEn= 0.00D+00
 Coeff-Com: -0.339D-03 0.377D-03 0.281D-03-0.160D-04-0.138D-03 0.376D-03
 Coeff-Com: -0.183D-02 0.280D-02 0.419D-02-0.335D-01-0.109D+00-0.804D-01
 Coeff-Com:  0.343D+00 0.874D+00
 Coeff:     -0.339D-03 0.377D-03 0.281D-03-0.160D-04-0.138D-03 0.376D-03
 Coeff:     -0.183D-02 0.280D-02 0.419D-02-0.335D-01-0.109D+00-0.804D-01
 Coeff:      0.343D+00 0.874D+00
 Gap=     0.133 Goal=   None    Shift=    0.000
 Gap=     0.131 Goal=   None    Shift=    0.000
 RMSDP=1.40D-05 MaxDP=1.31D-03 DE=-3.68D-06 OVMax= 1.71D-03

 Cycle  15  Pass 1  IDiag  1:
 RMSU=  7.07D-06    CP:  6.58D-01  2.06D+00  6.47D-01  3.92D-01  6.83D-01
                    CP:  4.54D-01  9.18D-01  8.73D-01  1.35D+00  9.69D-01
                    CP:  9.54D-01  1.00D+00  1.39D+00  1.34D+00
 E= -3531.41116271991     Delta-E=       -0.000002339997 Rises=F Damp=F
 DIIS: error= 7.77D-06 at cycle  15 NSaved=  15.
 NSaved=15 IEnMin=15 EnMin= -3531.41116271991     IErMin=15 ErrMin= 7.77D-06
 ErrMax= 7.77D-06  0.00D+00 EMaxC= 1.00D-01 BMatC= 6.91D-07 BMatP= 2.41D-06
 IDIUse=1 WtCom= 1.00D+00 WtEn= 0.00D+00
 Coeff-Com: -0.387D-03 0.406D-03 0.221D-03-0.802D-05 0.453D-04-0.147D-03
 Coeff-Com: -0.263D-02 0.118D-02 0.728D-02-0.183D-01-0.765D-01-0.103D+00
 Coeff-Com: -0.156D-02 0.371D+00 0.823D+00
 Coeff:     -0.387D-03 0.406D-03 0.221D-03-0.802D-05 0.453D-04-0.147D-03
 Coeff:     -0.263D-02 0.118D-02 0.728D-02-0.183D-01-0.765D-01-0.103D+00
 Coeff:     -0.156D-02 0.371D+00 0.823D+00
 Gap=     0.133 Goal=   None    Shift=    0.000
 Gap=     0.131 Goal=   None    Shift=    0.000
 RMSDP=7.90D-06 MaxDP=6.72D-04 DE=-2.34D-06 OVMax= 8.90D-04

 Cycle  16  Pass 1  IDiag  1:
 RMSU=  3.18D-06    CP:  6.58D-01  2.06D+00  6.46D-01  3.92D-01  6.83D-01
                    CP:  4.54D-01  9.18D-01  8.75D-01  1.36D+00  9.71D-01
                    CP:  9.65D-01  1.07D+00  1.55D+00  1.65D+00  1.22D+00
 E= -3531.41116334360     Delta-E=       -0.000000623693 Rises=F Damp=F
 DIIS: error= 4.18D-06 at cycle  16 NSaved=  16.
 NSaved=16 IEnMin=16 EnMin= -3531.41116334360     IErMin=16 ErrMin= 4.18D-06
 ErrMax= 4.18D-06  0.00D+00 EMaxC= 1.00D-01 BMatC= 2.31D-07 BMatP= 6.91D-07
 IDIUse=1 WtCom= 1.00D+00 WtEn= 0.00D+00
 Coeff-Com: -0.204D-03 0.288D-03 0.881D-04-0.179D-05 0.689D-05-0.198D-03
 Coeff-Com: -0.883D-03-0.180D-03 0.262D-02 0.636D-03-0.777D-02-0.305D-01
 Coeff-Com: -0.101D+00-0.510D-01 0.468D+00 0.720D+00
 Coeff:     -0.204D-03 0.288D-03 0.881D-04-0.179D-05 0.689D-05-0.198D-03
 Coeff:     -0.883D-03-0.180D-03 0.262D-02 0.636D-03-0.777D-02-0.305D-01
 Coeff:     -0.101D+00-0.510D-01 0.468D+00 0.720D+00
 Gap=     0.133 Goal=   None    Shift=    0.000
 Gap=     0.131 Goal=   None    Shift=    0.000
 RMSDP=3.78D-06 MaxDP=3.85D-04 DE=-6.24D-07 OVMax= 4.39D-04

 Cycle  17  Pass 1  IDiag  1:
 RMSU=  1.42D-06    CP:  6.58D-01  2.06D+00  6.47D-01  3.92D-01  6.83D-01
                    CP:  4.54D-01  9.18D-01  8.75D-01  1.36D+00  9.73D-01
                    CP:  9.72D-01  1.09D+00  1.62D+00  1.80D+00  1.46D+00
                    CP:  1.03D+00
 E= -3531.41116350139     Delta-E=       -0.000000157792 Rises=F Damp=F
 DIIS: error= 2.72D-06 at cycle  17 NSaved=  17.
 NSaved=17 IEnMin=17 EnMin= -3531.41116350139     IErMin=17 ErrMin= 2.72D-06
 ErrMax= 2.72D-06  0.00D+00 EMaxC= 1.00D-01 BMatC= 3.42D-08 BMatP= 2.31D-07
 IDIUse=1 WtCom= 1.00D+00 WtEn= 0.00D+00
 Coeff-Com:  0.130D-04 0.751D-05-0.106D-04-0.202D-08 0.872D-05-0.825D-04
 Coeff-Com:  0.412D-04-0.440D-03-0.535D-03 0.436D-02 0.130D-01 0.945D-02
 Coeff-Com: -0.486D-01-0.106D+00 0.284D-01 0.349D+00 0.752D+00
 Coeff:      0.130D-04 0.751D-05-0.106D-04-0.202D-08 0.872D-05-0.825D-04
 Coeff:      0.412D-04-0.440D-03-0.535D-03 0.436D-02 0.130D-01 0.945D-02
 Coeff:     -0.486D-01-0.106D+00 0.284D-01 0.349D+00 0.752D+00
 Gap=     0.133 Goal=   None    Shift=    0.000
 Gap=     0.131 Goal=   None    Shift=    0.000
 RMSDP=1.87D-06 MaxDP=2.83D-04 DE=-1.58D-07 OVMax= 2.13D-04

 Cycle  18  Pass 1  IDiag  1:
 RMSU=  8.07D-07    CP:  6.58D-01  2.06D+00  6.46D-01  3.92D-01  6.83D-01
                    CP:  4.54D-01  9.18D-01  8.75D-01  1.36D+00  9.74D-01
                    CP:  9.75D-01  1.11D+00  1.65D+00  1.86D+00  1.55D+00
                    CP:  1.19D+00  1.08D+00
 E= -3531.41116353177     Delta-E=       -0.000000030379 Rises=F Damp=F
 DIIS: error= 1.58D-06 at cycle  18 NSaved=  18.
 NSaved=18 IEnMin=18 EnMin= -3531.41116353177     IErMin=18 ErrMin= 1.58D-06
 ErrMax= 1.58D-06  0.00D+00 EMaxC= 1.00D-01 BMatC= 1.28D-08 BMatP= 3.42D-08
 IDIUse=1 WtCom= 1.00D+00 WtEn= 0.00D+00
 Coeff-Com:  0.393D-04-0.397D-04-0.217D-04 0.355D-06 0.718D-05-0.639D-05
 Coeff-Com:  0.194D-03-0.240D-03-0.881D-03 0.199D-02 0.846D-02 0.113D-01
 Coeff-Com: -0.391D-02-0.463D-01-0.859D-01 0.405D-01 0.423D+00 0.651D+00
 Coeff:      0.393D-04-0.397D-04-0.217D-04 0.355D-06 0.718D-05-0.639D-05
 Coeff:      0.194D-03-0.240D-03-0.881D-03 0.199D-02 0.846D-02 0.113D-01
 Coeff:     -0.391D-02-0.463D-01-0.859D-01 0.405D-01 0.423D+00 0.651D+00
 Gap=     0.133 Goal=   None    Shift=    0.000
 Gap=     0.131 Goal=   None    Shift=    0.000
 RMSDP=7.61D-07 MaxDP=1.10D-04 DE=-3.04D-08 OVMax= 8.09D-05

 Cycle  19  Pass 1  IDiag  1:
 RMSU=  4.05D-07    CP:  6.58D-01  2.06D+00  6.46D-01  3.92D-01  6.83D-01
                    CP:  4.54D-01  9.18D-01  8.75D-01  1.36D+00  9.75D-01
                    CP:  9.76D-01  1.11D+00  1.66D+00  1.89D+00  1.58D+00
                    CP:  1.25D+00  1.26D+00  1.10D+00
 E= -3531.41116353871     Delta-E=       -0.000000006937 Rises=F Damp=F
 DIIS: error= 7.82D-07 at cycle  19 NSaved=  19.
 NSaved=19 IEnMin=19 EnMin= -3531.41116353871     IErMin=19 ErrMin= 7.82D-07
 ErrMax= 7.82D-07  0.00D+00 EMaxC= 1.00D-01 BMatC= 2.16D-09 BMatP= 1.28D-08
 IDIUse=1 WtCom= 1.00D+00 WtEn= 0.00D+00
 Coeff-Com:  0.157D-04-0.228D-04-0.800D-05 0.214D-06-0.148D-05 0.320D-04
 Coeff-Com:  0.126D-03 0.985D-05-0.340D-03-0.377D-03 0.543D-03 0.270D-02
 Coeff-Com:  0.135D-01 0.726D-02-0.480D-01-0.880D-01-0.239D-01 0.272D+00
 Coeff-Com:  0.864D+00
 Coeff:      0.157D-04-0.228D-04-0.800D-05 0.214D-06-0.148D-05 0.320D-04
 Coeff:      0.126D-03 0.985D-05-0.340D-03-0.377D-03 0.543D-03 0.270D-02
 Coeff:      0.135D-01 0.726D-02-0.480D-01-0.880D-01-0.239D-01 0.272D+00
 Coeff:      0.864D+00
 Gap=     0.133 Goal=   None    Shift=    0.000
 Gap=     0.131 Goal=   None    Shift=    0.000
 RMSDP=4.88D-07 MaxDP=7.12D-05 DE=-6.94D-09 OVMax= 4.39D-05

 Cycle  20  Pass 1  IDiag  1:
 RMSU=  2.27D-07    CP:  6.58D-01  2.06D+00  6.46D-01  3.92D-01  6.83D-01
                    CP:  4.54D-01  9.18D-01  8.75D-01  1.36D+00  9.75D-01
                    CP:  9.77D-01  1.11D+00  1.67D+00  1.90D+00  1.60D+00
                    CP:  1.29D+00  1.40D+00  1.35D+00  1.29D+00
 E= -3531.41116354070     Delta-E=       -0.000000001992 Rises=F Damp=F
 DIIS: error= 5.49D-07 at cycle  20 NSaved=  20.
 NSaved=20 IEnMin=20 EnMin= -3531.41116354070     IErMin=20 ErrMin= 5.49D-07
 ErrMax= 5.49D-07  0.00D+00 EMaxC= 1.00D-01 BMatC= 5.62D-10 BMatP= 2.16D-09
 IDIUse=1 WtCom= 1.00D+00 WtEn= 0.00D+00
 Coeff-Com: -0.140D-05-0.194D-05 0.952D-07 0.794D-07-0.193D-05 0.154D-04
 Coeff-Com:  0.224D-04 0.442D-04 0.133D-04-0.538D-03-0.128D-02-0.847D-03
 Coeff-Com:  0.785D-02 0.121D-01-0.810D-02-0.553D-01-0.855D-01 0.131D-01
 Coeff-Com:  0.431D+00 0.687D+00
 Coeff:     -0.140D-05-0.194D-05 0.952D-07 0.794D-07-0.193D-05 0.154D-04
 Coeff:      0.224D-04 0.442D-04 0.133D-04-0.538D-03-0.128D-02-0.847D-03
 Coeff:      0.785D-02 0.121D-01-0.810D-02-0.553D-01-0.855D-01 0.131D-01
 Coeff:      0.431D+00 0.687D+00
 Gap=     0.133 Goal=   None    Shift=    0.000
 Gap=     0.131 Goal=   None    Shift=    0.000
 RMSDP=2.11D-07 MaxDP=4.33D-05 DE=-1.99D-09 OVMax= 1.50D-05

 Cycle  21  Pass 1  IDiag  1:
 Restarting incremental Fock formation.
 E= -3531.41116354106     Delta-E=       -0.000000000357 Rises=F Damp=F
 DIIS: error= 3.39D-07 at cycle  21 NSaved=  20.
 NSaved=20 IEnMin=20 EnMin= -3531.41116354106     IErMin=20 ErrMin= 3.39D-07
 ErrMax= 3.39D-07  0.00D+00 EMaxC= 1.00D-01 BMatC= 2.08D-10 BMatP= 5.62D-10
 IDIUse=1 WtCom= 1.00D+00 WtEn= 0.00D+00
 Coeff-Com: -0.458D-05 0.452D-05 0.217D-05-0.215D-05 0.333D-05-0.969D-05
 Coeff-Com:  0.219D-04 0.818D-04-0.838D-04-0.526D-03-0.856D-03-0.287D-03
 Coeff-Com:  0.291D-02 0.885D-02-0.176D-02-0.318D-01-0.682D-01-0.408D-01
 Coeff-Com:  0.350D+00 0.783D+00
 Coeff:     -0.458D-05 0.452D-05 0.217D-05-0.215D-05 0.333D-05-0.969D-05
 Coeff:      0.219D-04 0.818D-04-0.838D-04-0.526D-03-0.856D-03-0.287D-03
 Coeff:      0.291D-02 0.885D-02-0.176D-02-0.318D-01-0.682D-01-0.408D-01
[...]
    13   Atom       -0.011865      0.018520     -0.006655
    14   Atom       -0.185943      0.149755      0.036188
    15   Atom        0.053005      0.066426     -0.119431
    16   Atom       -0.108613     -0.106945      0.215558
    17   Atom       -0.004325      0.012546     -0.008220
    18   Atom       -0.149969      0.098022      0.051946
    19   Atom        0.020220      0.032479     -0.052698
    20   Atom        0.012058     -0.016664      0.004606
    21   Atom        0.002251     -0.003763      0.001511
    22   Atom        0.002474     -0.001733     -0.000741
    23   Atom        0.003489     -0.001656     -0.001833
    24   Atom        0.006930     -0.003302     -0.003628
    25   Atom        0.006390     -0.021521      0.015131
    26   Atom        0.011282     -0.006518     -0.004764
    27   Atom        0.000922     -0.004104      0.003182
    28   Atom        0.004139     -0.003397     -0.000743
    29   Atom       -0.003619     -0.001545      0.005165
    30   Atom       -0.000239     -0.000536      0.000775
    31   Atom        0.005049      0.000866     -0.005916
    32   Atom       -0.000445      0.005395     -0.004950
    33   Atom       -0.008286      0.017585     -0.009299
    34   Atom       -0.004024      0.009110     -0.005086
    35   Atom       -0.005963      0.008926     -0.002963
    36   Atom       -0.015663      0.030228     -0.014565
    37   Atom       -0.015182      0.010046      0.005136
    38   Atom        0.010890     -0.003309     -0.007581
    39   Atom        0.004797     -0.005231      0.000434
    40   Atom        0.004121      0.000836     -0.004957
    41   Atom       -0.000529      0.005481     -0.004952
    42   Atom        0.005169     -0.000546     -0.004623
    43   Atom        0.002529      0.000095     -0.002624
    44   Atom       -0.000449      0.003667     -0.003218
    45   Atom       -0.002673      0.006662     -0.003989
    46   Atom       -0.002399      0.010479     -0.008080
 --------------------------------------------------------
                        XY            XZ            YZ
 --------------------------------------------------------
     1   Atom       -0.004526      0.000422      0.000347
     2   Atom       -0.008037      0.011927     -0.000726
     3   Atom       -0.007303      0.013528     -0.002337
     4   Atom       -0.002252      0.006377     -0.001439
     5   Atom       -0.001687      0.003090     -0.000270
     6   Atom       -0.001526      0.002043     -0.000458
     7   Atom       -0.020461     -0.030173      0.000043
     8   Atom        0.000475     -0.023001     -0.006541
     9   Atom       -0.001977     -0.008329      0.002453
    10   Atom       -0.005114     -0.006508      0.006100
    11   Atom       -0.015867     -0.009063      0.025146
    12   Atom       -0.015886     -0.005644      0.016170
    13   Atom       -0.002814     -0.001437      0.015106
    14   Atom       -0.149977      0.156642      0.009960
    15   Atom       -0.095622     -0.038331     -0.020174
    16   Atom       -0.018365      0.138658     -0.143340
    17   Atom       -0.009235      0.000622     -0.002785
    18   Atom        0.078154      0.039774      0.191192
    19   Atom        0.249015     -0.112683     -0.145836
    20   Atom       -0.012549      0.028565     -0.008560
    21   Atom       -0.001447      0.005976     -0.001214
    22   Atom       -0.000798      0.002080     -0.000348
    23   Atom       -0.001035      0.000630     -0.000112
    24   Atom       -0.002569     -0.001808      0.000509
    25   Atom       -0.000799     -0.030244     -0.002854
    26   Atom        0.005317     -0.008773     -0.002009
    27   Atom       -0.001087     -0.006250      0.000909
    28   Atom       -0.001931     -0.005119      0.001150
    29   Atom       -0.004516     -0.005825      0.007744
    30   Atom       -0.003254     -0.003699      0.003395
    31   Atom       -0.008626     -0.001599      0.002773
    32   Atom       -0.007864      0.001689     -0.002678
    33   Atom       -0.010920      0.002879     -0.011080
    34   Atom       -0.003794      0.000051     -0.001432
    35   Atom       -0.000579     -0.000277      0.007586
    36   Atom        0.005211      0.000127      0.012590
    37   Atom       -0.002730     -0.001436      0.023627
    38   Atom        0.014009     -0.009411     -0.005309
    39   Atom        0.002870     -0.002422      0.000167
    40   Atom        0.007827     -0.002372     -0.001734
    41   Atom        0.008064     -0.001755     -0.002026
    42   Atom        0.006272     -0.000198      0.000029
    43   Atom        0.004662     -0.002357     -0.001767
    44   Atom        0.004560     -0.000334     -0.000439
    45   Atom        0.006181     -0.001950     -0.004059
    46   Atom        0.011588     -0.000244      0.000319
 --------------------------------------------------------


 ---------------------------------------------------------------------------------
              Anisotropic Spin Dipole Couplings in Principal Axis System
 ---------------------------------------------------------------------------------

       Atom             a.u.   MegaHertz   Gauss  10(-4) cm-1        Axes

              Baa    -0.0080    -1.073    -0.383    -0.358  0.2231  0.9647 -0.1403
     1 C(13)  Bbb    -0.0049    -0.655    -0.234    -0.219  0.0132  0.1410  0.9899
              Bcc     0.0129     1.729     0.617     0.577  0.9747 -0.2226  0.0188
 
              Baa    -0.0161    -2.155    -0.769    -0.719 -0.3422 -0.5751  0.7431
     2 C(13)  Bbb    -0.0125    -1.682    -0.600    -0.561 -0.0229  0.7957  0.6052
              Bcc     0.0286     3.838     1.369     1.280  0.9394 -0.1900  0.2855
 
              Baa    -0.0135    -1.810    -0.646    -0.604  0.3725  0.8851 -0.2791
     3 C(13)  Bbb    -0.0097    -1.298    -0.463    -0.433 -0.3525  0.4132  0.8397
              Bcc     0.0232     3.108     1.109     1.037  0.8585 -0.2144  0.4659
 
              Baa    -0.0053    -0.713    -0.254    -0.238 -0.5381  0.0005  0.8429
     4 C(13)  Bbb    -0.0040    -0.536    -0.191    -0.179  0.1733  0.9787  0.1101
              Bcc     0.0093     1.249     0.446     0.417  0.8249 -0.2053  0.5267
 
              Baa    -0.0048    -0.643    -0.229    -0.215  0.1925  0.9782 -0.0781
     5 C(13)  Bbb    -0.0019    -0.249    -0.089    -0.083 -0.3746  0.1468  0.9155
              Bcc     0.0066     0.892     0.318     0.298  0.9070 -0.1470  0.3947
 
              Baa    -0.0035    -0.476    -0.170    -0.159 -0.2272  0.0557  0.9723
     6 C(13)  Bbb    -0.0021    -0.284    -0.101    -0.095  0.2162  0.9763 -0.0054
              Bcc     0.0057     0.760     0.271     0.254  0.9496 -0.2090  0.2338
 
              Baa    -0.0471    -6.322    -2.256    -2.109  0.2566  0.8938  0.3678
     7 C(13)  Bbb    -0.0324    -4.347    -1.551    -1.450  0.1831 -0.4186  0.8895
              Bcc     0.0795    10.669     3.807     3.559  0.9490 -0.1609 -0.2710
 
              Baa    -0.0199    -2.671    -0.953    -0.891  0.4459  0.6874  0.5733
     8 C(13)  Bbb    -0.0110    -1.481    -0.529    -0.494 -0.5325  0.7186 -0.4474
              Bcc     0.0309     4.152     1.482     1.385  0.7195  0.1057 -0.6864
 
              Baa    -0.0064    -0.863    -0.308    -0.288  0.6317 -0.2354  0.7386
     9 C(13)  Bbb    -0.0046    -0.615    -0.219    -0.205  0.3084  0.9504  0.0392
              Bcc     0.0110     1.478     0.527     0.493  0.7112 -0.2031 -0.6730
 
              Baa    -0.0061    -0.818    -0.292    -0.273  0.4911 -0.4239  0.7610
    10 C(13)  Bbb    -0.0059    -0.788    -0.281    -0.263  0.6713  0.7409 -0.0205
              Bcc     0.0120     1.606     0.573     0.536 -0.5552  0.5209  0.6484
 
              Baa    -0.0250    -3.357    -1.198    -1.120  0.1407 -0.4078  0.9022
    11 C(13)  Bbb    -0.0186    -2.502    -0.893    -0.835  0.9412  0.3377  0.0059
              Bcc     0.0437     5.859     2.091     1.954 -0.3071  0.8483  0.4314
 
              Baa    -0.0200    -2.683    -0.957    -0.895  0.0437 -0.3151  0.9480
    12 C(13)  Bbb    -0.0178    -2.387    -0.852    -0.796  0.9463  0.3172  0.0618
              Bcc     0.0378     5.070     1.809     1.691 -0.3202  0.8945  0.3121
 
              Baa    -0.0137    -1.844    -0.658    -0.615  0.0666 -0.4184  0.9058
    13 C(13)  Bbb    -0.0121    -1.627    -0.580    -0.543  0.9943  0.1037 -0.0252
              Bcc     0.0259     3.470     1.238     1.158 -0.0834  0.9023  0.4229
 
              Baa    -0.3091    22.364     7.980     7.460  0.8677  0.2923 -0.4021
    14 O(17)  Bbb     0.0864    -6.251    -2.231    -2.085  0.2467  0.4490  0.8588
              Bcc     0.2227   -16.112    -5.749    -5.375 -0.4316  0.8444 -0.3174
 
              Baa    -0.1372    -2.375    -0.847    -0.792  0.3039  0.2343  0.9234
    15 Fe(57) Bbb    -0.0189    -0.327    -0.117    -0.109  0.6590  0.6483 -0.3813
              Bcc     0.1561     2.702     0.964     0.901 -0.6880  0.7244  0.0427
 
              Baa    -0.1880    -9.837    -3.510    -3.281 -0.6256  0.6421  0.4431
    16 Cl(35) Bbb    -0.1262    -6.603    -2.356    -2.203  0.7168  0.6973  0.0016
              Bcc     0.3141    16.440     5.866     5.484  0.3079 -0.3186  0.8965
 
              Baa    -0.0090    -1.210    -0.432    -0.404  0.5740  0.3419  0.7441
    17 C(13)  Bbb    -0.0079    -1.061    -0.379    -0.354  0.7152  0.2332 -0.6589
              Bcc     0.0169     2.272     0.811     0.758 -0.3988  0.9103 -0.1107
 
              Baa    -0.1748    -9.148    -3.264    -3.051  0.9182 -0.3671  0.1485
    18 Cl(35) Bbb    -0.1094    -5.726    -2.043    -1.910 -0.3462 -0.5620  0.7512
              Bcc     0.2842    14.874     5.307     4.961  0.1923  0.7412  0.6431
 
              Baa    -0.2269   -11.876    -4.238    -3.962 -0.6514  0.7338  0.1929
    19 Cl(35) Bbb    -0.1304    -6.826    -2.436    -2.277  0.4277  0.1450  0.8922
              Bcc     0.3573    18.702     6.673     6.238  0.6267  0.6637 -0.4083
 
              Baa    -0.0223   -11.913    -4.251    -3.974  0.5913  0.6970 -0.4056
    20 H(1)   Bbb    -0.0188   -10.005    -3.570    -3.337 -0.3384  0.6710  0.6598
              Bcc     0.0411    21.918     7.821     7.311  0.7320 -0.2529  0.6326
 
              Baa    -0.0042    -2.236    -0.798    -0.746  0.6042  0.6194 -0.5013
    21 H(1)   Bbb    -0.0040    -2.121    -0.757    -0.708 -0.3401  0.7694  0.5407
              Bcc     0.0082     4.358     1.555     1.454  0.7206 -0.1562  0.6755
 
              Baa    -0.0019    -1.006    -0.359    -0.336  0.2676  0.9427 -0.1991
    22 H(1)   Bbb    -0.0017    -0.934    -0.333    -0.311 -0.3773  0.2927  0.8786
              Bcc     0.0036     1.940     0.692     0.647  0.8866 -0.1600  0.4340
 
              Baa    -0.0019    -1.018    -0.363    -0.340 -0.1469 -0.1724  0.9740
    23 H(1)   Bbb    -0.0019    -0.990    -0.353    -0.330  0.1642  0.9668  0.1959
              Bcc     0.0038     2.008     0.716     0.670  0.9754 -0.1887  0.1137
 
              Baa    -0.0040    -2.135    -0.762    -0.712 -0.0317 -0.6618  0.7490
    24 H(1)   Bbb    -0.0038    -2.051    -0.732    -0.684  0.2780  0.7139  0.6426
              Bcc     0.0078     4.186     1.494     1.396  0.9601 -0.2286 -0.1614
 
              Baa    -0.0233   -12.435    -4.437    -4.148  0.4219  0.8172  0.3927
    25 H(1)   Bbb    -0.0181    -9.634    -3.438    -3.213  0.6284 -0.5758  0.5231
              Bcc     0.0414    22.068     7.875     7.361 -0.6536 -0.0260  0.7564
 
              Baa    -0.0087    -1.172    -0.418    -0.391  0.4511 -0.3303  0.8291
    26 C(13)  Bbb    -0.0078    -1.048    -0.374    -0.349 -0.0697  0.9131  0.4017
              Bcc     0.0165     2.220     0.792     0.741  0.8898  0.2390 -0.3888
 
              Baa    -0.0045    -2.417    -0.862    -0.806  0.6113  0.6731  0.4162
    27 H(1)   Bbb    -0.0040    -2.149    -0.767    -0.717 -0.4669  0.7314 -0.4970
              Bcc     0.0086     4.565     1.629     1.523 -0.6389  0.1095  0.7614
 
              Baa    -0.0040    -2.132    -0.761    -0.711  0.5569  0.3531  0.7518
    28 H(1)   Bbb    -0.0038    -2.041    -0.728    -0.681 -0.0368  0.9148 -0.4023
              Bcc     0.0078     4.172     1.489     1.392  0.8297 -0.1964 -0.5224
 
              Baa    -0.0072    -3.866    -1.380    -1.290  0.6978  0.7072 -0.1138
    29 H(1)   Bbb    -0.0062    -3.294    -1.176    -1.099  0.5967 -0.4860  0.6385
              Bcc     0.0134     7.161     2.555     2.389 -0.3963  0.5134  0.7612
 
              Baa    -0.0037    -1.954    -0.697    -0.652  0.7691  0.6161  0.1698
    30 H(1)   Bbb    -0.0033    -1.755    -0.626    -0.585  0.2983 -0.5811  0.7572
              Bcc     0.0070     3.709     1.323     1.237 -0.5652  0.5317  0.6308
 
              Baa    -0.0074    -3.927    -1.401    -1.310 -0.2978 -0.5703  0.7655
    31 H(1)   Bbb    -0.0050    -2.647    -0.944    -0.883  0.5654  0.5407  0.6228
              Bcc     0.0123     6.573     2.345     2.193  0.7691 -0.6183 -0.1615
 
              Baa    -0.0060    -3.181    -1.135    -1.061  0.7412  0.5891  0.3219
    32 H(1)   Bbb    -0.0055    -2.940    -1.049    -0.981 -0.3712 -0.0399  0.9277
              Bcc     0.0115     6.122     2.184     2.042 -0.5594  0.8071 -0.1891
 
              Baa    -0.0138    -7.352    -2.623    -2.452  0.4515  0.4328  0.7802
    33 H(1)   Bbb    -0.0116    -6.163    -2.199    -2.056  0.8338  0.1065 -0.5417
              Bcc     0.0253    13.515     4.823     4.508 -0.3176  0.8952 -0.3128
 
              Baa    -0.0055    -2.913    -1.039    -0.972  0.5698  0.2261  0.7901
    34 H(1)   Bbb    -0.0048    -2.559    -0.913    -0.853  0.7809  0.1507 -0.6062
              Bcc     0.0103     5.471     1.952     1.825 -0.2561  0.9624 -0.0907
 
              Baa    -0.0067    -3.551    -1.267    -1.185 -0.0061 -0.4379  0.8990
    35 H(1)   Bbb    -0.0060    -3.193    -1.139    -1.065  0.9994  0.0283  0.0205
              Bcc     0.0126     6.745     2.407     2.250 -0.0345  0.8986  0.4374
 
              Baa    -0.0185    -9.859    -3.518    -3.289  0.4580 -0.2681  0.8475
    36 H(1)   Bbb    -0.0156    -8.304    -2.963    -2.770  0.8831  0.0283 -0.4683
              Bcc     0.0340    18.163     6.481     6.059  0.1016  0.9630  0.2497
 
              Baa    -0.0166    -8.870    -3.165    -2.959 -0.5182 -0.5962  0.6132
    37 H(1)   Bbb    -0.0149    -7.956    -2.839    -2.654  0.8529 -0.3067  0.4225
              Bcc     0.0315    16.826     6.004     5.613 -0.0639  0.7419  0.6674
 
              Baa    -0.0121     0.876     0.313     0.292 -0.5914  0.6832 -0.4283
    38 O(17)  Bbb    -0.0112     0.808     0.288     0.270  0.0155  0.5407  0.8411
              Bcc     0.0233    -1.684    -0.601    -0.562  0.8062  0.4908 -0.3303
 
              Baa    -0.0061     0.441     0.157     0.147 -0.2792  0.9517 -0.1278
    39 O(17)  Bbb    -0.0004     0.025     0.009     0.008  0.3142  0.2163  0.9244
              Bcc     0.0064    -0.466    -0.166    -0.156  0.9074  0.2179 -0.3595
 
              Baa    -0.0057    -0.759    -0.271    -0.253  0.5571 -0.4933  0.6680
    40 C(13)  Bbb    -0.0054    -0.719    -0.257    -0.240 -0.3242  0.6114  0.7218
              Bcc     0.0110     1.478     0.527     0.493  0.7646  0.6187 -0.1807
 
              Baa    -0.0062    -0.835    -0.298    -0.279  0.8063 -0.5012  0.3141
    41 C(13)  Bbb    -0.0053    -0.710    -0.253    -0.237 -0.1741  0.3064  0.9359
              Bcc     0.0115     1.545     0.551     0.515  0.5652  0.8093 -0.1598
 
              Baa    -0.0047    -2.527    -0.902    -0.843  0.3567 -0.5393  0.7628
    42 H(1)   Bbb    -0.0045    -2.385    -0.851    -0.795 -0.4067  0.6454  0.6465
              Bcc     0.0092     4.912     1.753     1.638  0.8410  0.5409 -0.0109
 
              Baa    -0.0036    -1.897    -0.677    -0.633  0.5626 -0.3574  0.7455
    43 H(1)   Bbb    -0.0035    -1.853    -0.661    -0.618 -0.3309  0.7290  0.5992
              Bcc     0.0070     3.750     1.338     1.251  0.7576  0.5838 -0.2919
 
              Baa    -0.0034    -1.817    -0.648    -0.606  0.8183 -0.5113  0.2625
    44 H(1)   Bbb    -0.0032    -1.727    -0.616    -0.576 -0.1917  0.1879  0.9633
              Bcc     0.0066     3.544     1.265     1.182  0.5419  0.8386 -0.0557
 
              Baa    -0.0058    -3.073    -1.096    -1.025  0.8683 -0.4768 -0.1368
    45 H(1)   Bbb    -0.0053    -2.842    -1.014    -0.948  0.2539  0.1902  0.9483
              Bcc     0.0111     5.914     2.110     1.973  0.4261  0.8582 -0.2862
 
              Baa    -0.0093    -4.977    -1.776    -1.660  0.8251 -0.4873  0.2860
    46 H(1)   Bbb    -0.0080    -4.252    -1.517    -1.418 -0.2494  0.1401  0.9582
              Bcc     0.0173     9.229     3.293     3.079  0.5070  0.8619  0.0059
 

 ---------------------------------------------------------------------------------

 No NMR shielding tensors so no spin-rotation constants.
 Leave Link  601 at Sun Jun 20 08:43:46 2021, MaxMem=  2147483648 cpu:              76.9 elap:               5.0
 (Enter /SFS/product/gaussian/g16.a03/x86_64/avx/g16/l9999.exe)
 1\1\GINC-KTCHPCPX269\SP\UB3LYP\Jul-CC-pVDZ\C17H22Cl3Fe1O3(6)\KWANEU\20
 -Jun-2021\0\\#p ub3lyp jul-cc-pvdz pop=cm5 scrf=(pcm,solvent=water) gu
 ess=read geom=allcheck\\title\\0,6\C,0,3.1102435021,-0.7980547219,0.46
 28373077\C,0,1.726594944,-0.7001343652,0.7053348803\C,0,1.2853313127,-
 0.5331462852,2.028740705\C,0,2.201834977,-0.4745114388,3.0824517307\C,
 0,3.5710102296,-0.5841278057,2.831347337\C,0,4.0222729717,-0.741640664
 6,1.5146966263\C,0,0.7024533841,-0.7293995305,-0.4112209733\C,0,0.9903
 360269,0.1464070526,-1.6932717888\C,0,1.6862720312,-0.6716552828,-2.78
 29850513\C,0,1.0312804191,-2.0559346603,-2.725582557\C,0,0.9508060433,
 -2.4137971681,-1.2545027792\C,0,-0.1760605894,-2.9637571082,-0.6326975
 447\C,0,-1.5173967772,-2.9968239179,-1.2637903849\O,0,-0.5535776013,-0
 .6848414349,0.0184742262\Fe,0,-2.1455876919,0.3246407428,0.2701222228\
 Cl,0,-2.7967290434,0.9857793395,-1.7529959652\C,0,-0.072982114,-3.5543
 594441,0.7248310725\Cl,0,-1.809490794,1.9657006489,1.7148331719\Cl,0,-
 3.5518497211,-1.1700878382,1.1576751294\H,0,0.2225234332,-0.4187337679
 ,2.2268248661\H,0,1.8389494236,-0.3344879343,4.1014374338\H,0,4.286757
 2216,-0.538385657,3.6536305314\H,0,5.0904495744,-0.812334504,1.3058831
 566\H,0,3.4888904455,-0.9030303772,-0.5520256124\H,0,-0.0110577983,0.4
 387378227,-2.034072087\C,0,1.751398921,1.431056663,-1.3634408432\H,0,1
 .568854025,-0.1945963982,-3.7645639182\H,0,2.7642567116,-0.7308670825,
 -2.5866227697\H,0,0.0363704227,-2.0210703492,-3.1854203889\H,0,1.61570
 38533,-2.8105992324,-3.2708663246\H,0,1.9014521777,-2.7197292713,-0.81
 78210047\H,0,0.9487836853,-3.5759370308,1.1149355767\H,0,-0.7298314417
 ,-2.9900841629,1.4061950596\H,0,-0.4786125946,-4.5789741395,0.69619920
 66\H,0,-1.5988718079,-3.9778199477,-1.7695109402\H,0,-2.3169371195,-2.
 9390557173,-0.5162299847\H,0,-1.6646777573,-2.222251485,-2.0212112625\
 O,0,0.9381784704,2.3439125664,-0.8220572058\O,0,2.9318439745,1.6035400
 017,-1.5903596983\C,0,1.5355910997,3.6251945711,-0.461774613\C,0,0.410
 3045013,4.5927921279,-0.1604027153\H,0,2.1850746159,3.4555407258,0.408
 3257347\H,0,2.1642879435,3.9555949998,-1.2983275147\H,0,0.8395610844,5
 .5605853898,0.1374666953\H,0,-0.2189542579,4.7502730127,-1.0470773796\
 H,0,-0.223235317,4.2196890586,0.6538426368\\Version=ES64L-G16RevA.03\S
 tate=6-A\HF=-3531.4400217\S2=8.761224\S2-1=0.\S2A=8.750039\RMSD=4.479e
 -09\Dipole=3.7410566,-3.7882577,-1.0960576\Quadrupole=-21.4885504,19.6
 924739,1.7960764,0.9524012,8.106312,5.6211725\PG=C01 [X(C17H22Cl3Fe1O3
 )]\\@


 Time has a wonderful way of weeding out the trivial.
                                -- Richard Ben Sapir
 Job cpu time:       0 days  4 hours 49 minutes 33.6 seconds.
 Elapsed time:       0 days  0 hours 18 minutes 10.6 seconds.
 File lengths (MBytes):  RWF=    665 Int=      0 D2E=      0 Chk=     57 Scr=      1
 Normal termination of Gaussian 16 at Sun Jun 20 08:43:47 2021.
