 Entering Gaussian System, Link 0=g16
 Input=prenyl-first_betaine_grid-CC_240_CO_250-b3lyp_d3bj-juldz-gas.gjf
 Output=prenyl-first_betaine_grid-CC_240_CO_250-b3lyp_d3bj-juldz-gas.out
 Initial command:
 /SFS/product/gaussian/g16.a03/x86_64/avx/g16/l1.exe "/scratch/kwaneu.2874312.bmbhpcps002/Gau-25931.inp" -scrdir="/scratch/kwaneu.2874312.bmbhpcps002/"
 Entering Link 1 = /SFS/product/gaussian/g16.a03/x86_64/avx/g16/l1.exe PID=     25932.
  
 Copyright (c) 1988,1990,1992,1993,1995,1998,2003,2009,2016,
            Gaussian, Inc.  All Rights Reserved.
  
 This is part of the Gaussian(R) 16 program.  It is based on
 the Gaussian(R) 09 system (copyright 2009, Gaussian, Inc.),
 the Gaussian(R) 03 system (copyright 2003, Gaussian, Inc.),
 the Gaussian(R) 98 system (copyright 1998, Gaussian, Inc.),
 the Gaussian(R) 94 system (copyright 1995, Gaussian, Inc.),
 the Gaussian 92(TM) system (copyright 1992, Gaussian, Inc.),
 the Gaussian 90(TM) system (copyright 1990, Gaussian, Inc.),
 the Gaussian 88(TM) system (copyright 1988, Gaussian, Inc.),
 the Gaussian 86(TM) system (copyright 1986, Carnegie Mellon
 University), and the Gaussian 82(TM) system (copyright 1983,
 Carnegie Mellon University). Gaussian is a federally registered
 trademark of Gaussian, Inc.
  
 This software contains proprietary and confidential information,
 including trade secrets, belonging to Gaussian, Inc.
  
 This software is provided under written license and may be
 used, copied, transmitted, or stored only in accord with that
 written license.
  
 The following legend is applicable only to US Government
 contracts under FAR:
  
                    RESTRICTED RIGHTS LEGEND
  
 Use, reproduction and disclosure by the US Government is
 subject to restrictions as set forth in subparagraphs (a)
 and (c) of the Commercial Computer Software - Restricted
 Rights clause in FAR 52.227-19.
  
 Gaussian, Inc.
 340 Quinnipiac St., Bldg. 40, Wallingford CT 06492
  
  
 ---------------------------------------------------------------
 Warning -- This program may not be used in any manner that
 competes with the business of Gaussian, Inc. or will provide
 assistance to any competitor of Gaussian, Inc.  The licensee
 of this program is prohibited from giving any competitor of
 Gaussian, Inc. access to this program.  By using this program,
 the user acknowledges that Gaussian, Inc. is engaged in the
 business of creating and licensing software in the field of
 computational chemistry and represents and warrants to the
 licensee that it is not a competitor of Gaussian, Inc. and that
 it will not use this program in any manner prohibited above.
 ---------------------------------------------------------------
  

 Cite this work as:
 Gaussian 16, Revision A.03,
 M. J. Frisch, G. W. Trucks, H. B. Schlegel, G. E. Scuseria, 
 M. A. Robb, J. R. Cheeseman, G. Scalmani, V. Barone, 
 G. A. Petersson, H. Nakatsuji, X. Li, M. Caricato, A. V. Marenich, 
 J. Bloino, B. G. Janesko, R. Gomperts, B. Mennucci, H. P. Hratchian, 
 J. V. Ortiz, A. F. Izmaylov, J. L. Sonnenberg, D. Williams-Young, 
 F. Ding, F. Lipparini, F. Egidi, J. Goings, B. Peng, A. Petrone, 
 T. Henderson, D. Ranasinghe, V. G. Zakrzewski, J. Gao, N. Rega, 
 G. Zheng, W. Liang, M. Hada, M. Ehara, K. Toyota, R. Fukuda, 
 J. Hasegawa, M. Ishida, T. Nakajima, Y. Honda, O. Kitao, H. Nakai, 
 T. Vreven, K. Throssell, J. A. Montgomery, Jr., J. E. Peralta, 
 F. Ogliaro, M. J. Bearpark, J. J. Heyd, E. N. Brothers, K. N. Kudin, 
 V. N. Staroverov, T. A. Keith, R. Kobayashi, J. Normand, 
 K. Raghavachari, A. P. Rendell, J. C. Burant, S. S. Iyengar, 
 J. Tomasi, M. Cossi, J. M. Millam, M. Klene, C. Adamo, R. Cammi, 
 J. W. Ochterski, R. L. Martin, K. Morokuma, O. Farkas, 
 J. B. Foresman, and D. J. Fox, Gaussian, Inc., Wallingford CT, 2016.
 
 ******************************************
 Gaussian 16:  ES64L-G16RevA.03 25-Dec-2016
                20-Jun-2021 
 ******************************************
 %chk=checkpoint.chk
 %nprocshared=16
 Will use up to   16 processors via shared memory.
 %mem=16GB
 -----------------------------------------------------------
 #p opt=modredundant freq=noraman ub3lyp jul-cc-pvdz pop=cm5
 -----------------------------------------------------------
 1/18=120,19=15,26=3,38=1/1,3;
 2/9=110,12=2,17=6,18=5,40=1/2;
 3/5=16,7=50,11=2,25=1,30=1,71=1,74=-5,116=2/1,2,3;
 4//1;
 5/5=2,38=5/2;
 6/7=2,8=2,9=2,10=2,28=1,79=1/1;
 7//1,2,3,16;
 1/18=20,19=15,26=3/3(2);
 2/9=110/2;
 99//99;
 2/9=110/2;
 3/5=16,7=50,11=2,25=1,30=1,71=1,74=-5,116=2/1,2,3;
 4/5=5,16=3,69=1/1;
 5/5=2,38=5/2;
 7//1,2,3,16;
 1/18=20,19=15,26=3/3(-5);
 2/9=110/2;
 6/7=2,8=2,9=2,10=2,19=2,28=1,79=1/1;
 99/9=1/99;
 Leave Link    1 at Sun Jun 20 07:54:13 2021, MaxMem=  2147483648 cpu:               1.5 elap:               0.1
 (Enter /SFS/product/gaussian/g16.a03/x86_64/avx/g16/l101.exe)
 -----
 title
 -----
 Symbolic Z-matrix:
 Charge =  0 Multiplicity = 6
 6                    -2.85923  -0.84424   1.07825 
 6                    -1.82645   0.07509   0.7996 
 6                    -1.59445   1.13053   1.70817 
 6                    -2.38596   1.27673   2.84068 
 6                    -3.41609   0.36772   3.09694 
 6                    -3.64131  -0.69536   2.21951 
 6                    -0.93881  -0.0451   -0.37712 
 6                    -0.96684  -1.24151  -1.34967 
 6                    -2.24715  -1.38381  -2.18565 
 6                    -2.49598  -0.05269  -2.9174 
 6                    -2.33029   1.09935  -1.96268 
 6                    -1.32302   2.00598  -1.95206 
 6                    -0.15819   1.99333  -2.90339 
 8                     0.11956   0.66622  -0.41128 
 26                    1.86921   0.84284   0.38124 
 17                    3.32285   0.43916  -1.21348 
 6                    -1.36909   3.19025  -1.03253 
 17                    1.98609  -0.56845   2.06164 
 17                    1.95403   2.93706   1.07322 
 1                    -0.78519   1.82662   1.52678 
 1                    -2.19062   2.09282   3.52968 
 1                    -4.03178   0.47949   3.98518 
 1                    -4.42317  -1.41939   2.42856 
 1                    -3.01893  -1.70495   0.44375 
 1                    -0.12621  -1.04742  -2.02112 
 6                    -0.62414  -2.54523  -0.60441 
 1                    -2.12037  -2.2077   -2.89657 
 1                    -3.1006   -1.64633  -1.55755 
 1                    -1.80964   0.03642  -3.7652 
 1                    -3.51079  -0.0461   -3.33421 
 1                    -3.16524   1.27131  -1.28628 
 1                    -2.26612   3.20342  -0.40784 
 1                    -0.47926   3.22596  -0.39254 
 1                    -1.35217   4.11458  -1.62682 
 1                    -0.36518   2.69192  -3.7272 
 1                     0.75503   2.34264  -2.41279 
 1                     0.04744   1.01537  -3.34143 
 8                     0.69419  -2.69957  -0.52208 
 8                    -1.43128  -3.31482  -0.18481 
 6                     1.17542  -3.87329   0.19798 
 6                     2.6815   -3.91734   0.04106 
 1                     0.87054  -3.77049   1.24307 
 1                     0.68127  -4.75422  -0.22155 
 1                     3.07614  -4.78745   0.57723 
 1                     2.96454  -4.00361  -1.01273 
 1                     3.14116  -3.01605   0.45535 
 
 The following ModRedundant input section has been read:
 B       7      11 F                                                           
 B      12      14 F                                                           
 
 ITRead=  0  0  0  0  0  0  0  0  0  0  0  0  0  0  0  0  0  0  0  0
 ITRead=  0  0  0  0  0  0  0  0  0  0  0  0  0  0  0  0  0  0  0  0
 ITRead=  0  0  0  0  0  0
 MicOpt= -1 -1 -1 -1 -1 -1 -1 -1 -1 -1 -1 -1 -1 -1 -1 -1 -1 -1 -1 -1
 MicOpt= -1 -1 -1 -1 -1 -1 -1 -1 -1 -1 -1 -1 -1 -1 -1 -1 -1 -1 -1 -1
 MicOpt= -1 -1 -1 -1 -1 -1
 NAtoms=     46 NQM=       46 NQMF=       0 NMMI=      0 NMMIF=      0
                NMic=       0 NMicF=      0.
                    Isotopes and Nuclear Properties:
 (Nuclear quadrupole moments (NQMom) in fm**2, nuclear magnetic moments (NMagM)
  in nuclear magnetons)

  Atom         1           2           3           4           5           6           7           8           9          10
 IAtWgt=          12          12          12          12          12          12          12          12          12          12
 AtmWgt=  12.0000000  12.0000000  12.0000000  12.0000000  12.0000000  12.0000000  12.0000000  12.0000000  12.0000000  12.0000000
 NucSpn=           0           0           0           0           0           0           0           0           0           0
 AtZEff=  -0.0000000  -0.0000000  -0.0000000  -0.0000000  -0.0000000  -0.0000000  -0.0000000  -0.0000000  -0.0000000  -0.0000000
 NQMom=    0.0000000   0.0000000   0.0000000   0.0000000   0.0000000   0.0000000   0.0000000   0.0000000   0.0000000   0.0000000
 NMagM=    0.0000000   0.0000000   0.0000000   0.0000000   0.0000000   0.0000000   0.0000000   0.0000000   0.0000000   0.0000000
 AtZNuc=   6.0000000   6.0000000   6.0000000   6.0000000   6.0000000   6.0000000   6.0000000   6.0000000   6.0000000   6.0000000

  Atom        11          12          13          14          15          16          17          18          19          20
 IAtWgt=          12          12          12          16          56          35          12          35          35           1
 AtmWgt=  12.0000000  12.0000000  12.0000000  15.9949146  55.9349393  34.9688527  12.0000000  34.9688527  34.9688527   1.0078250
 NucSpn=           0           0           0           0           0           3           0           3           3           1
 AtZEff=  -0.0000000  -0.0000000  -0.0000000  -0.0000000  -0.0000000  -0.0000000  -0.0000000  -0.0000000  -0.0000000  -0.0000000
 NQMom=    0.0000000   0.0000000   0.0000000   0.0000000   0.0000000  -8.1650000   0.0000000  -8.1650000  -8.1650000   0.0000000
 NMagM=    0.0000000   0.0000000   0.0000000   0.0000000   0.0000000   0.8218740   0.0000000   0.8218740   0.8218740   2.7928460
 AtZNuc=   6.0000000   6.0000000   6.0000000   8.0000000  26.0000000  17.0000000   6.0000000  17.0000000  17.0000000   1.0000000

  Atom        21          22          23          24          25          26          27          28          29          30
 IAtWgt=           1           1           1           1           1          12           1           1           1           1
 AtmWgt=   1.0078250   1.0078250   1.0078250   1.0078250   1.0078250  12.0000000   1.0078250   1.0078250   1.0078250   1.0078250
 NucSpn=           1           1           1           1           1           0           1           1           1           1
 AtZEff=  -0.0000000  -0.0000000  -0.0000000  -0.0000000  -0.0000000  -0.0000000  -0.0000000  -0.0000000  -0.0000000  -0.0000000
 NQMom=    0.0000000   0.0000000   0.0000000   0.0000000   0.0000000   0.0000000   0.0000000   0.0000000   0.0000000   0.0000000
 NMagM=    2.7928460   2.7928460   2.7928460   2.7928460   2.7928460   0.0000000   2.7928460   2.7928460   2.7928460   2.7928460
 AtZNuc=   1.0000000   1.0000000   1.0000000   1.0000000   1.0000000   6.0000000   1.0000000   1.0000000   1.0000000   1.0000000

  Atom        31          32          33          34          35          36          37          38          39          40
 IAtWgt=           1           1           1           1           1           1           1          16          16          12
 AtmWgt=   1.0078250   1.0078250   1.0078250   1.0078250   1.0078250   1.0078250   1.0078250  15.9949146  15.9949146  12.0000000
 NucSpn=           1           1           1           1           1           1           1           0           0           0
 AtZEff=  -0.0000000  -0.0000000  -0.0000000  -0.0000000  -0.0000000  -0.0000000  -0.0000000  -0.0000000  -0.0000000  -0.0000000
 NQMom=    0.0000000   0.0000000   0.0000000   0.0000000   0.0000000   0.0000000   0.0000000   0.0000000   0.0000000   0.0000000
 NMagM=    2.7928460   2.7928460   2.7928460   2.7928460   2.7928460   2.7928460   2.7928460   0.0000000   0.0000000   0.0000000
 AtZNuc=   1.0000000   1.0000000   1.0000000   1.0000000   1.0000000   1.0000000   1.0000000   8.0000000   8.0000000   6.0000000

  Atom        41          42          43          44          45          46
 IAtWgt=          12           1           1           1           1           1
 AtmWgt=  12.0000000   1.0078250   1.0078250   1.0078250   1.0078250   1.0078250
 NucSpn=           0           1           1           1           1           1
 AtZEff=  -0.0000000  -0.0000000  -0.0000000  -0.0000000  -0.0000000  -0.0000000
 NQMom=    0.0000000   0.0000000   0.0000000   0.0000000   0.0000000   0.0000000
 NMagM=    0.0000000   2.7928460   2.7928460   2.7928460   2.7928460   2.7928460
 AtZNuc=   6.0000000   1.0000000   1.0000000   1.0000000   1.0000000   1.0000000
 Leave Link  101 at Sun Jun 20 07:54:14 2021, MaxMem=  2147483648 cpu:               5.0 elap:               0.4
 (Enter /SFS/product/gaussian/g16.a03/x86_64/avx/g16/l103.exe)

 GradGradGradGradGradGradGradGradGradGradGradGradGradGradGradGradGradGrad
 Berny optimization.
 Initialization pass.
                           ----------------------------
                           !    Initial Parameters    !
                           ! (Angstroms and Degrees)  !
 --------------------------                            --------------------------
 ! Name  Definition              Value          Derivative Info.                !
 --------------------------------------------------------------------------------
 ! R1    R(1,2)                  1.4105         estimate D2E/DX2                !
 ! R2    R(1,6)                  1.3915         estimate D2E/DX2                !
 ! R3    R(1,24)                 1.0812         estimate D2E/DX2                !
 ! R4    R(2,3)                  1.4118         estimate D2E/DX2                !
 ! R5    R(2,7)                  1.4788         estimate D2E/DX2                !
 ! R6    R(3,4)                  1.3894         estimate D2E/DX2                !
 ! R7    R(3,20)                 1.0827         estimate D2E/DX2                !
 ! R8    R(4,5)                  1.3975         estimate D2E/DX2                !
 ! R9    R(4,21)                 1.0858         estimate D2E/DX2                !
 ! R10   R(5,6)                  1.3967         estimate D2E/DX2                !
 ! R11   R(5,22)                 1.0865         estimate D2E/DX2                !
 ! R12   R(6,23)                 1.0859         estimate D2E/DX2                !
 ! R13   R(7,8)                  1.5421         estimate D2E/DX2                !
 ! R14   R(7,11)                 2.4            Frozen                          !
 ! R15   R(7,14)                 1.2757         estimate D2E/DX2                !
 ! R16   R(8,9)                  1.5357         estimate D2E/DX2                !
 ! R17   R(8,25)                 1.0932         estimate D2E/DX2                !
 ! R18   R(8,26)                 1.5403         estimate D2E/DX2                !
 ! R19   R(9,10)                 1.5392         estimate D2E/DX2                !
 ! R20   R(9,27)                 1.0956         estimate D2E/DX2                !
 ! R21   R(9,28)                 1.0917         estimate D2E/DX2                !
 ! R22   R(10,11)                1.5054         estimate D2E/DX2                !
 ! R23   R(10,29)                1.0944         estimate D2E/DX2                !
 ! R24   R(10,30)                1.0971         estimate D2E/DX2                !
 ! R25   R(11,12)                1.3552         estimate D2E/DX2                !
 ! R26   R(11,31)                1.0882         estimate D2E/DX2                !
 ! R27   R(12,13)                1.504          estimate D2E/DX2                !
 ! R28   R(12,14)                2.5            Frozen                          !
 ! R29   R(12,17)                1.5001         estimate D2E/DX2                !
 ! R30   R(13,35)                1.0998         estimate D2E/DX2                !
 ! R31   R(13,36)                1.0939         estimate D2E/DX2                !
 ! R32   R(13,37)                1.0911         estimate D2E/DX2                !
 ! R33   R(14,15)                1.9289         estimate D2E/DX2                !
 ! R34   R(15,16)                2.1953         estimate D2E/DX2                !
 ! R35   R(15,18)                2.1975         estimate D2E/DX2                !
 ! R36   R(15,19)                2.2072         estimate D2E/DX2                !
 ! R37   R(17,32)                1.0932         estimate D2E/DX2                !
 ! R38   R(17,33)                1.0967         estimate D2E/DX2                !
 ! R39   R(17,34)                1.099          estimate D2E/DX2                !
 ! R40   R(26,38)                1.3299         estimate D2E/DX2                !
 ! R41   R(26,39)                1.1916         estimate D2E/DX2                !
 ! R42   R(38,40)                1.4587         estimate D2E/DX2                !
 ! R43   R(40,41)                1.5149         estimate D2E/DX2                !
 ! R44   R(40,42)                1.0935         estimate D2E/DX2                !
 ! R45   R(40,43)                1.0937         estimate D2E/DX2                !
 ! R46   R(41,44)                1.0956         estimate D2E/DX2                !
 ! R47   R(41,45)                1.0945         estimate D2E/DX2                !
 ! R48   R(41,46)                1.0933         estimate D2E/DX2                !
 ! A1    A(2,1,6)              120.2537         estimate D2E/DX2                !
 ! A2    A(2,1,24)             120.7368         estimate D2E/DX2                !
 ! A3    A(6,1,24)             118.9134         estimate D2E/DX2                !
 ! A4    A(1,2,3)              118.7137         estimate D2E/DX2                !
 ! A5    A(1,2,7)              122.9371         estimate D2E/DX2                !
 ! A6    A(3,2,7)              118.3067         estimate D2E/DX2                !
 ! A7    A(2,3,4)              120.6375         estimate D2E/DX2                !
 ! A8    A(2,3,20)             119.7098         estimate D2E/DX2                !
 ! A9    A(4,3,20)             119.6492         estimate D2E/DX2                !
 ! A10   A(3,4,5)              120.0615         estimate D2E/DX2                !
 ! A11   A(3,4,21)             119.5938         estimate D2E/DX2                !
 ! A12   A(5,4,21)             120.3402         estimate D2E/DX2                !
 ! A13   A(4,5,6)              119.9162         estimate D2E/DX2                !
 ! A14   A(4,5,22)             120.045          estimate D2E/DX2                !
 ! A15   A(6,5,22)             120.0329         estimate D2E/DX2                !
 ! A16   A(1,6,5)              120.4014         estimate D2E/DX2                !
 ! A17   A(1,6,23)             119.4207         estimate D2E/DX2                !
 ! A18   A(5,6,23)             120.175          estimate D2E/DX2                !
 ! A19   A(2,7,8)              123.6398         estimate D2E/DX2                !
 ! A20   A(2,7,14)             118.2922         estimate D2E/DX2                !
 ! A21   A(8,7,14)             115.519          estimate D2E/DX2                !
 ! A22   A(7,8,9)              115.491          estimate D2E/DX2                !
 ! A23   A(7,8,25)             103.6293         estimate D2E/DX2                !
 ! A24   A(7,8,26)             110.3335         estimate D2E/DX2                !
 ! A25   A(9,8,25)             108.8545         estimate D2E/DX2                !
 ! A26   A(9,8,26)             111.7431         estimate D2E/DX2                !
 ! A27   A(25,8,26)            106.0428         estimate D2E/DX2                !
 ! A28   A(8,9,10)             108.2659         estimate D2E/DX2                !
 ! A29   A(8,9,27)             109.0539         estimate D2E/DX2                !
 ! A30   A(8,9,28)             111.1518         estimate D2E/DX2                !
 ! A31   A(10,9,27)            111.1348         estimate D2E/DX2                !
 ! A32   A(10,9,28)            110.799          estimate D2E/DX2                !
 ! A33   A(27,9,28)            106.4382         estimate D2E/DX2                !
 ! A34   A(9,10,11)            110.0308         estimate D2E/DX2                !
 ! A35   A(9,10,29)            109.7119         estimate D2E/DX2                !
 ! A36   A(9,10,30)            109.5931         estimate D2E/DX2                !
 ! A37   A(11,10,29)           111.0976         estimate D2E/DX2                !
 ! A38   A(11,10,30)           109.7651         estimate D2E/DX2                !
 ! A39   A(29,10,30)           106.5765         estimate D2E/DX2                !
 ! A40   A(10,11,12)           126.7797         estimate D2E/DX2                !
 ! A41   A(10,11,31)           115.5107         estimate D2E/DX2                !
 ! A42   A(12,11,31)           117.3661         estimate D2E/DX2                !
 ! A43   A(11,12,13)           124.4049         estimate D2E/DX2                !
 ! A44   A(11,12,17)           120.6723         estimate D2E/DX2                !
 ! A45   A(13,12,17)           114.7196         estimate D2E/DX2                !
 ! A46   A(12,13,35)           108.8262         estimate D2E/DX2                !
 ! A47   A(12,13,36)           111.1113         estimate D2E/DX2                !
 ! A48   A(12,13,37)           114.0436         estimate D2E/DX2                !
 ! A49   A(35,13,36)           106.8711         estimate D2E/DX2                !
 ! A50   A(35,13,37)           107.703          estimate D2E/DX2                !
 ! A51   A(36,13,37)           107.994          estimate D2E/DX2                !
 ! A52   A(7,14,15)            142.4323         estimate D2E/DX2                !
 ! A53   A(14,15,16)           106.5791         estimate D2E/DX2                !
 ! A54   A(14,15,18)           107.6756         estimate D2E/DX2                !
 ! A55   A(14,15,19)           104.5098         estimate D2E/DX2                !
 ! A56   A(16,15,18)           113.7143         estimate D2E/DX2                !
 ! A57   A(16,15,19)           112.1336         estimate D2E/DX2                !
 ! A58   A(18,15,19)           111.5654         estimate D2E/DX2                !
 ! A59   A(12,17,32)           112.6437         estimate D2E/DX2                !
 ! A60   A(12,17,33)           111.0091         estimate D2E/DX2                !
 ! A61   A(12,17,34)           109.3928         estimate D2E/DX2                !
 ! A62   A(32,17,33)           109.3862         estimate D2E/DX2                !
 ! A63   A(32,17,34)           108.1503         estimate D2E/DX2                !
 ! A64   A(33,17,34)           106.0032         estimate D2E/DX2                !
 ! A65   A(8,26,38)            110.4103         estimate D2E/DX2                !
 ! A66   A(8,26,39)            124.4951         estimate D2E/DX2                !
 ! A67   A(38,26,39)           125.0814         estimate D2E/DX2                !
 ! A68   A(26,38,40)           116.8076         estimate D2E/DX2                !
 ! A69   A(38,40,41)           107.4736         estimate D2E/DX2                !
 ! A70   A(38,40,42)           107.7075         estimate D2E/DX2                !
 ! A71   A(38,40,43)           108.0409         estimate D2E/DX2                !
 ! A72   A(41,40,42)           112.267          estimate D2E/DX2                !
 ! A73   A(41,40,43)           112.7078         estimate D2E/DX2                !
 ! A74   A(42,40,43)           108.4426         estimate D2E/DX2                !
 ! A75   A(40,41,44)           109.3005         estimate D2E/DX2                !
 ! A76   A(40,41,45)           111.0452         estimate D2E/DX2                !
 ! A77   A(40,41,46)           110.7799         estimate D2E/DX2                !
 ! A78   A(44,41,45)           108.3865         estimate D2E/DX2                !
 ! A79   A(44,41,46)           108.5322         estimate D2E/DX2                !
 ! A80   A(45,41,46)           108.7284         estimate D2E/DX2                !
 ! D1    D(6,1,2,3)              0.8726         estimate D2E/DX2                !
 ! D2    D(6,1,2,7)            178.4579         estimate D2E/DX2                !
 ! D3    D(24,1,2,3)          -175.5248         estimate D2E/DX2                !
 ! D4    D(24,1,2,7)             2.0604         estimate D2E/DX2                !
 ! D5    D(2,1,6,5)              0.2789         estimate D2E/DX2                !
 ! D6    D(2,1,6,23)          -179.0959         estimate D2E/DX2                !
 ! D7    D(24,1,6,5)           176.7415         estimate D2E/DX2                !
 ! D8    D(24,1,6,23)           -2.6333         estimate D2E/DX2                !
 ! D9    D(1,2,3,4)             -1.3066         estimate D2E/DX2                !
 ! D10   D(1,2,3,20)           178.0202         estimate D2E/DX2                !
 ! D11   D(7,2,3,4)           -179.0047         estimate D2E/DX2                !
 ! D12   D(7,2,3,20)             0.3221         estimate D2E/DX2                !
 ! D13   D(1,2,7,8)             -5.4242         estimate D2E/DX2                !
 ! D14   D(1,2,7,14)          -166.4796         estimate D2E/DX2                !
 ! D15   D(3,2,7,8)            172.1704         estimate D2E/DX2                !
 ! D16   D(3,2,7,14)            11.1149         estimate D2E/DX2                !
 ! D17   D(2,3,4,5)              0.5846         estimate D2E/DX2                !
 ! D18   D(2,3,4,21)           179.8134         estimate D2E/DX2                !
 ! D19   D(20,3,4,5)          -178.7426         estimate D2E/DX2                !
 ! D20   D(20,3,4,21)            0.4862         estimate D2E/DX2                !
 ! D21   D(3,4,5,6)              0.5876         estimate D2E/DX2                !
 ! D22   D(3,4,5,22)           179.7016         estimate D2E/DX2                !
 ! D23   D(21,4,5,6)          -178.6354         estimate D2E/DX2                !
 ! D24   D(21,4,5,22)            0.4786         estimate D2E/DX2                !
 ! D25   D(4,5,6,1)             -1.0207         estimate D2E/DX2                !
 ! D26   D(4,5,6,23)           178.3494         estimate D2E/DX2                !
 ! D27   D(22,5,6,1)           179.8652         estimate D2E/DX2                !
 ! D28   D(22,5,6,23)           -0.7647         estimate D2E/DX2                !
 ! D29   D(2,7,8,9)             66.6268         estimate D2E/DX2                !
 ! D30   D(2,7,8,25)          -174.4265         estimate D2E/DX2                !
 ! D31   D(2,7,8,26)           -61.2782         estimate D2E/DX2                !
 ! D32   D(14,7,8,9)          -131.8412         estimate D2E/DX2                !
 ! D33   D(14,7,8,25)          -12.8944         estimate D2E/DX2                !
 ! D34   D(14,7,8,26)          100.2538         estimate D2E/DX2                !
 ! D35   D(2,7,14,15)           72.0333         estimate D2E/DX2                !
 ! D36   D(8,7,14,15)          -90.5388         estimate D2E/DX2                !
 ! D37   D(7,8,9,10)            54.0626         estimate D2E/DX2                !
 ! D38   D(7,8,9,27)           175.1068         estimate D2E/DX2                !
 ! D39   D(7,8,9,28)           -67.8514         estimate D2E/DX2                !
 ! D40   D(25,8,9,10)          -61.9565         estimate D2E/DX2                !
 ! D41   D(25,8,9,27)           59.0877         estimate D2E/DX2                !
 ! D42   D(25,8,9,28)          176.1295         estimate D2E/DX2                !
 ! D43   D(26,8,9,10)         -178.7377         estimate D2E/DX2                !
 ! D44   D(26,8,9,27)          -57.6935         estimate D2E/DX2                !
 ! D45   D(26,8,9,28)           59.3483         estimate D2E/DX2                !
 ! D46   D(7,8,26,38)          -84.24           estimate D2E/DX2                !
 ! D47   D(7,8,26,39)           97.0251         estimate D2E/DX2                !
 ! D48   D(9,8,26,38)          145.825          estimate D2E/DX2                !
 ! D49   D(9,8,26,39)          -32.9099         estimate D2E/DX2                !
 ! D50   D(25,8,26,38)          27.355          estimate D2E/DX2                !
 ! D51   D(25,8,26,39)        -151.3799         estimate D2E/DX2                !
 ! D52   D(8,9,10,11)          -46.3976         estimate D2E/DX2                !
 ! D53   D(8,9,10,29)           76.1233         estimate D2E/DX2                !
 ! D54   D(8,9,10,30)         -167.1835         estimate D2E/DX2                !
 ! D55   D(27,9,10,11)        -166.1439         estimate D2E/DX2                !
 ! D56   D(27,9,10,29)         -43.623          estimate D2E/DX2                !
 ! D57   D(27,9,10,30)          73.0702         estimate D2E/DX2                !
 ! D58   D(28,9,10,11)          75.7327         estimate D2E/DX2                !
 ! D59   D(28,9,10,29)        -161.7464         estimate D2E/DX2                !
 ! D60   D(28,9,10,30)         -45.0533         estimate D2E/DX2                !
 ! D61   D(9,10,11,12)         109.3695         estimate D2E/DX2                !
 ! D62   D(9,10,11,31)         -77.5832         estimate D2E/DX2                !
 ! D63   D(29,10,11,12)        -12.33           estimate D2E/DX2                !
 ! D64   D(29,10,11,31)        160.7173         estimate D2E/DX2                !
 ! D65   D(30,10,11,12)       -129.948          estimate D2E/DX2                !
 ! D66   D(30,10,11,31)         43.0993         estimate D2E/DX2                !
 ! D67   D(10,11,12,13)         -1.2748         estimate D2E/DX2                !
 ! D68   D(10,11,12,17)        173.2666         estimate D2E/DX2                !
 ! D69   D(31,11,12,13)       -174.2087         estimate D2E/DX2                !
 ! D70   D(31,11,12,17)          0.3327         estimate D2E/DX2                !
 ! D71   D(11,12,13,35)         97.1242         estimate D2E/DX2                !
 ! D72   D(11,12,13,36)       -145.4682         estimate D2E/DX2                !
 ! D73   D(11,12,13,37)        -23.1341         estimate D2E/DX2                !
 ! D74   D(17,12,13,35)        -77.708          estimate D2E/DX2                !
 ! D75   D(17,12,13,36)         39.6996         estimate D2E/DX2                !
 ! D76   D(17,12,13,37)        162.0337         estimate D2E/DX2                !
 ! D77   D(11,12,17,32)          0.7316         estimate D2E/DX2                !
 ! D78   D(11,12,17,33)        123.7888         estimate D2E/DX2                !
 ! D79   D(11,12,17,34)       -119.5782         estimate D2E/DX2                !
 ! D80   D(13,12,17,32)        175.7748         estimate D2E/DX2                !
 ! D81   D(13,12,17,33)        -61.168          estimate D2E/DX2                !
 ! D82   D(13,12,17,34)         55.4651         estimate D2E/DX2                !
 ! D83   D(7,14,15,16)         114.2636         estimate D2E/DX2                !
 ! D84   D(7,14,15,18)          -8.0997         estimate D2E/DX2                !
 ! D85   D(7,14,15,19)        -126.8476         estimate D2E/DX2                !
 ! D86   D(8,26,38,40)         178.0939         estimate D2E/DX2                !
 ! D87   D(39,26,38,40)         -3.1802         estimate D2E/DX2                !
 ! D88   D(26,38,40,41)        174.2795         estimate D2E/DX2                !
 ! D89   D(26,38,40,42)        -64.5546         estimate D2E/DX2                !
 ! D90   D(26,38,40,43)         52.398          estimate D2E/DX2                !
 ! D91   D(38,40,41,44)        179.676          estimate D2E/DX2                !
 ! D92   D(38,40,41,45)        -60.7963         estimate D2E/DX2                !
 ! D93   D(38,40,41,46)         60.1325         estimate D2E/DX2                !
 ! D94   D(42,40,41,44)         61.4169         estimate D2E/DX2                !
 ! D95   D(42,40,41,45)       -179.0555         estimate D2E/DX2                !
 ! D96   D(42,40,41,46)        -58.1267         estimate D2E/DX2                !
 ! D97   D(43,40,41,44)        -61.3973         estimate D2E/DX2                !
 ! D98   D(43,40,41,45)         58.1304         estimate D2E/DX2                !
 ! D99   D(43,40,41,46)        179.0592         estimate D2E/DX2                !
 --------------------------------------------------------------------------------
 Trust Radius=3.00D-01 FncErr=1.00D-07 GrdErr=1.00D-06 EigMax=2.50D+02 EigMin=1.00D-04
 Number of steps in this run=    237 maximum allowed number of steps=    276.
 GradGradGradGradGradGradGradGradGradGradGradGradGradGradGradGradGradGrad

 Leave Link  103 at Sun Jun 20 07:54:14 2021, MaxMem=  2147483648 cpu:               0.2 elap:               0.1
 (Enter /SFS/product/gaussian/g16.a03/x86_64/avx/g16/l202.exe)
                          Input orientation:                          
 ---------------------------------------------------------------------
 Center     Atomic      Atomic             Coordinates (Angstroms)
 Number     Number       Type             X           Y           Z
 ---------------------------------------------------------------------
      1          6           0       -2.859233   -0.844237    1.078249
      2          6           0       -1.826445    0.075091    0.799596
      3          6           0       -1.594449    1.130531    1.708172
      4          6           0       -2.385956    1.276728    2.840679
      5          6           0       -3.416090    0.367720    3.096939
      6          6           0       -3.641305   -0.695357    2.219506
      7          6           0       -0.938811   -0.045102   -0.377117
      8          6           0       -0.966838   -1.241506   -1.349665
      9          6           0       -2.247152   -1.383814   -2.185654
     10          6           0       -2.495980   -0.052686   -2.917397
     11          6           0       -2.330290    1.099350   -1.962682
     12          6           0       -1.323019    2.005984   -1.952057
     13          6           0       -0.158192    1.993326   -2.903390
     14          8           0        0.119557    0.666223   -0.411275
     15         26           0        1.869206    0.842838    0.381242
     16         17           0        3.322852    0.439164   -1.213480
     17          6           0       -1.369094    3.190253   -1.032526
     18         17           0        1.986093   -0.568446    2.061639
     19         17           0        1.954026    2.937060    1.073221
     20          1           0       -0.785193    1.826616    1.526783
     21          1           0       -2.190618    2.092818    3.529682
     22          1           0       -4.031779    0.479486    3.985175
     23          1           0       -4.423167   -1.419387    2.428558
     24          1           0       -3.018928   -1.704948    0.443748
     25          1           0       -0.126209   -1.047419   -2.021123
     26          6           0       -0.624138   -2.545228   -0.604406
     27          1           0       -2.120371   -2.207700   -2.896574
     28          1           0       -3.100601   -1.646327   -1.557547
     29          1           0       -1.809635    0.036418   -3.765195
     30          1           0       -3.510789   -0.046096   -3.334208
     31          1           0       -3.165243    1.271308   -1.286282
     32          1           0       -2.266122    3.203417   -0.407841
     33          1           0       -0.479261    3.225957   -0.392535
     34          1           0       -1.352167    4.114581   -1.626819
     35          1           0       -0.365178    2.691919   -3.727196
     36          1           0        0.755025    2.342636   -2.412788
     37          1           0        0.047437    1.015367   -3.341425
     38          8           0        0.694187   -2.699572   -0.522077
     39          8           0       -1.431281   -3.314818   -0.184805
     40          6           0        1.175419   -3.873293    0.197976
     41          6           0        2.681501   -3.917343    0.041064
     42          1           0        0.870540   -3.770491    1.243066
     43          1           0        0.681270   -4.754217   -0.221554
     44          1           0        3.076140   -4.787448    0.577227
     45          1           0        2.964538   -4.003608   -1.012725
     46          1           0        3.141160   -3.016050    0.455349
 ---------------------------------------------------------------------
                    Distance matrix (angstroms):
                    1          2          3          4          5
     1  C    0.000000
     2  C    1.410483   0.000000
     3  C    2.428207   1.411838   0.000000
     4  C    2.797971   2.433722   1.389399   0.000000
     5  C    2.419512   2.808983   2.414318   1.397548   0.000000
     6  C    1.391499   2.429702   2.790152   2.418858   1.396690
     7  C    2.538647   1.478849   2.482016   3.767715   4.286770
     8  C    3.103828   2.663020   3.920564   5.090617   5.325479
     9  C    3.364350   3.349196   4.680794   5.688741   5.686834
    10  C    4.089461   3.778974   4.858873   5.910574   6.098818
    11  C    3.647543   2.988837   3.744009   4.806957   5.226281
    12  C    4.434689   3.399026   3.773244   4.963060   5.705893
    13  C    5.585771   4.491637   4.906501   6.202481   7.018578
    14  O    3.656961   2.366975   2.765041   4.150363   4.989736
    15  Fe   5.068548   3.797669   3.720271   4.933913   5.961133
    16  Cl   6.716942   5.540784   5.761414   7.051823   7.999885
    17  C    4.790928   3.642811   3.435792   4.438164   5.404569
    18  Cl   4.951798   4.067227   3.978912   4.808990   5.579591
    19  Cl   6.120923   4.749495   4.032169   4.971524   6.287693
    20  H    3.411199   2.163526   1.082743   2.142695   3.393433
    21  H    3.883666   3.414266   2.144601   1.085765   2.159864
    22  H    3.402547   3.895503   3.398408   2.157359   1.086521
    23  H    2.144766   3.410271   3.875911   3.404278   2.157473
    24  H    1.081165   2.171908   3.415823   3.877670   3.390149
    25  H    4.137247   3.479553   4.561451   5.843392   6.246639
    26  C    3.274194   3.206686   4.449801   5.438746   5.475419
    27  H    4.266634   4.354216   5.711748   6.717726   6.650855
    28  H    2.765688   3.184788   4.543606   5.329105   5.081354
    29  H    5.033504   4.564986   5.585798   6.745968   7.055448
    30  H    4.531151   4.465427   5.521087   6.414386   6.445143
    31  H    3.187504   2.752127   3.384371   4.199896   4.482413
    32  H    4.352442   3.381959   3.037353   3.778806   4.652643
    33  H    4.939023   3.628228   3.169767   4.229498   5.382463
    34  H    5.846240   4.736022   4.481676   5.392649   6.372804
    35  H    6.466607   5.429082   5.787250   7.015931   7.828077
    36  H    5.950324   4.703739   4.896074   6.212957   7.187182
    37  H    5.607172   4.641509   5.311072   6.648919   7.339482
    38  O    4.316261   3.974816   4.988141   6.050320   6.276937
    39  O    3.120597   3.551997   4.834368   5.580972   5.316991
    40  C    5.121375   4.996286   5.915329   6.796322   6.890002
    41  C    6.420239   6.069306   6.822318   7.777875   8.054859
    42  H    4.743557   4.717933   5.505680   6.215429   6.239938
    43  H    5.432549   5.536569   6.597954   7.426806   7.350850
    44  H    7.143430   6.908623   7.623379   8.469471   8.664511
    45  H    6.947669   6.547810   7.385596   8.447393   8.758439
    46  H    6.411668   5.860952   6.417920   7.393697   7.837437
                    6          7          8          9         10
     6  C    0.000000
     7  C    3.803782   0.000000
     8  C    4.493332   1.542082   0.000000
     9  C    4.671517   2.602828   1.535687   0.000000
    10  C    5.302129   2.979573   2.491857   1.539242   0.000000
    11  C    4.736077   2.400000   2.777481   2.494540   1.505364
    12  C    5.483943   2.614384   3.322037   3.521267   2.558484
    13  C    6.753159   3.338654   3.678601   4.035341   3.106705
    14  O    4.787378   1.275654   2.387522   3.598942   3.693036
    15  Fe   6.009242   3.041136   3.922203   5.337728   5.544171
    16  Cl   7.846784   4.369873   4.609191   5.940818   6.083096
    17  C    5.553073   3.328998   4.461264   4.798206   3.916537
    18  Cl   5.631042   3.844019   4.561777   6.051833   6.719061
    19  Cl   6.768763   4.400600   5.644664   6.851286   6.683275
    20  H    3.872672   2.674278   4.209551   5.121169   5.119502
    21  H    3.405139   4.626100   6.035179   6.689935   6.801563
    22  H    2.156458   5.373196   6.388755   6.688491   7.091360
    23  H    1.085924   4.679873   5.123751   5.101692   5.844755
    24  H    2.135402   2.784923   2.764450   2.759080   3.781632
    25  H    5.519310   2.089908   1.093244   2.153748   2.721877
    26  C    4.527670   2.530081   1.540307   2.546253   3.881557
    27  H    5.547495   3.524284   2.158031   1.095568   2.187602
    28  H    3.932281   2.937801   2.181751   1.091699   2.180470
    29  H    6.301361   3.499150   2.859752   2.168739   1.094427
    30  H    5.593059   3.919115   3.440800   2.169204   1.097093
    31  H    4.047833   2.741626   3.339347   2.949819   2.204860
    32  H    4.898420   3.509355   4.725729   4.919722   4.117391
    33  H    5.674327   3.303218   4.594786   5.252685   4.603432
    34  H    6.570378   4.362978   5.377077   5.598718   4.509990
    35  H    7.587484   4.363871   4.635351   4.746554   3.567765
    36  H    7.072147   3.565716   4.115959   4.790729   4.069549
    37  H    6.888929   3.299152   3.176372   3.515255   2.790969
    38  O    5.507236   3.119921   2.360056   3.626318   4.787560
    39  O    4.186466   3.312183   2.423062   2.897899   4.386587
    40  C    6.114466   4.410867   3.729713   4.857282   6.146687
    41  C    7.423253   5.317498   4.733351   5.972325   7.105939
    42  H    5.546767   4.447164   4.061278   5.212711   6.516516
    43  H    6.412314   4.982432   4.040796   4.877803   6.282267
    44  H    8.035319   6.286529   5.712468   6.896062   8.104251
    45  H    8.064056   5.595525   4.816477   5.949857   7.003914
    46  H    7.382391   5.115241   4.825218   6.218762   7.206545
                   11         12         13         14         15
    11  C    0.000000
    12  C    1.355246   0.000000
    13  C    2.530244   1.504000   0.000000
    14  O    2.931930   2.499999   2.837073   0.000000
    15  Fe   4.816175   4.121589   4.027750   1.928872   0.000000
    16  Cl   5.740659   4.958280   4.169998   3.310013   2.195263
    17  C    2.482129   1.500051   2.529634   2.995457   4.242132
    18  Cl   6.132525   5.804108   5.984325   3.335216   2.197526
    19  Cl   5.563205   4.556120   4.600601   3.275012   2.207214
    20  H    3.884920   3.524735   4.477427   2.433342   3.053837
    21  H    5.583238   5.550651   6.747227   4.785731   5.287466
    22  H    6.217419   6.702112   8.046659   6.049565   6.924015
    23  H    5.477879   6.366622   7.633236   5.748979   6.993077
    24  H    3.758885   4.731491   5.750163   4.025370   5.512620
    25  H    3.077337   3.280304   3.166315   2.364018   3.650495
    26  C    4.247213   4.797721   5.108905   3.302090   4.320562
    27  H    3.442790   4.391243   4.636681   4.410603   5.997215
    28  H    2.880322   4.081031   4.869922   4.126893   5.886750
    29  H    2.156376   2.720929   2.701751   3.920104   5.601529
    30  H    2.141660   3.302682   3.947753   4.714907   6.598418
    31  H    1.088225   2.092079   3.489800   3.452778   5.320705
    32  H    2.617011   2.169768   3.483598   3.482647   4.826585
    33  H    3.227093   2.152294   2.815468   2.628911   3.434135
    34  H    3.187655   2.133732   2.748624   3.941407   5.011373
    35  H    3.084064   2.130513   1.099787   3.915833   5.028999
    36  H    3.356713   2.154965   1.093926   2.687049   3.361160
    37  H    2.749831   2.188565   1.091129   2.951759   4.148115
    38  O    5.065038   5.315658   5.331087   3.416292   3.839964
    39  O    4.842927   5.607659   6.098184   4.278443   5.338514
    40  C    6.456440   6.740232   6.768619   4.700344   4.770411
    41  C    7.368871   7.422568   7.188162   5.270412   4.840957
    42  H    6.651127   6.956161   7.174467   4.794294   4.798216
    43  H    6.809205   7.260312   7.309328   5.452769   5.753397
    44  H    8.386597   8.479422   8.279764   6.281803   5.761529
    45  H    7.414702   7.441820   7.020632   5.501180   5.160517
    46  H    7.260865   7.137599   6.874642   4.841514   4.063788
                   16         17         18         19         20
    16  Cl   0.000000
    17  C    5.442021   0.000000
    18  Cl   3.678125   5.912610   0.000000
    19  Cl   3.652694   3.942259   3.642330   0.000000
    20  H    5.129337   2.958126   3.701678   2.990339   0.000000
    21  H    7.458586   4.763718   5.165500   4.891321   2.461237
    22  H    9.006566   6.294082   6.404134   7.095703   4.289379
    23  H    8.758965   6.523438   6.475905   7.841184   4.958285
    24  H    6.896506   5.372553   5.381398   6.831892   4.316767
    25  H    3.841645   4.525478   4.621708   5.456960   4.613239
    26  C    4.985609   5.799482   4.222413   6.286242   4.866305
    27  H    6.282306   5.759947   6.643348   7.669976   6.133881
    28  H    6.762278   5.163939   6.335202   7.312840   5.189946
    29  H    5.745944   4.196216   6.980359   6.781529   5.679729
    30  H    7.171584   4.512045   7.720345   7.628162   5.879214
    31  H    6.541647   2.640624   6.413231   5.877831   3.726438
    32  H    6.287033   1.093190   6.197307   4.480417   2.798482
    33  H    4.785000   1.096661   5.147663   2.855309   2.394897
    34  H    5.961153   1.099024   6.832236   4.428056   3.937188
    35  H    4.999524   2.918464   7.047628   5.336928   5.341297
    36  H    3.413983   2.671228   5.478177   3.734060   4.261311
    37  H    3.948228   3.473860   5.954826   5.178521   5.005082
    38  O    4.152057   6.261607   3.589750   5.991977   5.183895
    39  O    6.144293   6.560369   4.926207   7.220035   5.457225
    40  C    5.020056   7.608046   3.879748   6.910368   6.172414
    41  C    4.578686   8.250929   3.972584   6.969750   6.871564
    42  H    5.456157   7.658083   3.488210   6.796619   5.843762
    43  H    5.910421   8.244772   4.943300   7.902664   6.965239
    44  H    5.530368   9.273356   4.603440   7.821328   7.717344
    45  H    4.461717   8.398357   4.712686   7.317457   7.382486
    46  H    3.841420   7.815009   3.147239   6.101686   6.325791
                   21         22         23         24         25
    21  H    0.000000
    22  H    2.490018   0.000000
    23  H    4.304920   2.486355   0.000000
    24  H    4.963075   4.282444   2.448041   0.000000
    25  H    6.703306   7.325335   6.196924   3.856910   0.000000
    26  C    6.407497   6.467238   4.989891   2.745854   2.120955
    27  H    7.732797   7.631050   5.855027   3.495413   2.467661
    28  H    6.378807   6.008988   4.205914   2.003818   3.069300
    29  H    7.588752   8.074805   6.878408   4.712743   2.655261
    30  H    7.309637   7.356700   5.993983   4.155318   3.765929
    31  H    4.981795   5.400567   4.756285   3.445651   3.892584
    32  H    4.091848   5.462228   5.836807   5.038250   5.025088
    33  H    4.426797   6.271191   6.715071   5.609198   4.586795
    34  H    5.601788   7.203382   7.516776   6.397832   5.320215
    35  H    7.506892   8.821536   8.441766   6.616011   4.117091
    36  H    6.637181   8.204800   8.025280   6.227797   3.524549
    37  H    7.306292   8.402752   7.694611   5.579448   2.455287
    38  O    6.906942   7.263366   6.044207   3.963498   2.376930
    39  O    6.604281   6.208709   4.401557   2.346781   3.196306
    40  C    7.617411   7.772031   6.507021   4.728073   3.821544
    41  C    8.487051   8.941826   7.900394   6.127947   4.513570
    42  H    6.998406   7.043735   5.912395   4.475862   4.366184
    43  H    8.318738   8.203722   6.648268   4.840675   4.198907
    44  H    9.153895   9.480359   8.426795   6.831506   5.567251
    45  H    9.185614   9.696679   8.549784   6.573204   4.394159
    46  H    7.998744   8.725222   7.978843   6.298080   4.547980
                   26         27         28         29         30
    26  C    0.000000
    27  H    2.758020   0.000000
    28  H    2.801673   1.751852   0.000000
    29  H    4.249810   2.426340   3.061361   0.000000
    30  H    4.693638   2.607167   2.426009   1.756839   0.000000
    31  H    4.635528   3.973449   2.930931   3.083445   2.459463
    32  H    5.981778   5.957787   5.053533   4.637897   4.546664
    33  H    5.776890   6.203876   5.654010   4.828860   5.343214
    34  H    6.777050   6.494124   6.020787   4.627455   4.988593
    35  H    6.102998   5.270380   5.568689   3.023175   4.188799
    36  H    5.391062   5.404397   5.613298   3.704744   4.975161
    37  H    4.540939   3.909660   4.491879   2.141644   3.713183
    38  O    1.329880   3.715092   4.072093   4.926721   5.712341
    39  O    1.191559   3.009027   2.730368   4.918651   4.992758
    40  C    2.376127   4.817953   5.130846   6.316891   7.006019
    41  C    3.636837   5.883075   6.414497   7.091554   8.045090
    42  H    2.673665   5.340832   5.303345   6.838024   7.349735
    43  H    2.594282   4.635696   5.074092   6.458497   7.030532
    44  H    4.485071   6.762109   7.250933   8.123860   9.009294
    45  H    3.895150   5.712309   6.529894   6.833054   7.936060
    46  H    3.939825   6.290670   6.699811   7.186162   8.211565
                   31         32         33         34         35
    31  H    0.000000
    32  H    2.305021   0.000000
    33  H    3.440049   1.787069   0.000000
    34  H    3.389308   1.775230   1.753589   0.000000
    35  H    3.977004   3.859189   3.379079   2.722076   0.000000
    36  H    4.217257   3.726672   2.526883   2.863179   1.761965
    37  H    3.822359   4.329669   3.722912   3.808398   1.769151
    38  O    5.589910   6.604677   6.041991   7.200049   6.361070
    39  O    5.025179   6.575264   6.612959   7.568463   7.054502
    40  C    6.892843   7.892467   7.313414   8.574654   7.802719
    41  C    7.928957   8.682495   7.823373   9.141341   8.195388
    42  H    6.935768   7.823013   7.310775   8.680497   8.245802
    43  H    7.227466   8.487977   8.065931   9.206803   8.296356
    44  H    8.895845   9.662507   8.820203  10.183999   9.290407
    45  H    8.091587   8.925632   8.031874   9.214990   7.955215
    46  H    7.822112   8.286469   7.265604   8.681665   7.897405
                   36         37         38         39         40
    36  H    0.000000
    37  H    1.767679   0.000000
    38  O    5.385383   4.708267   0.000000
    39  O    6.461473   5.558899   2.238279   0.000000
    40  C    6.755042   6.139927   1.458657   2.693195   0.000000
    41  C    6.994286   6.535377   2.397814   4.162815   1.514875
    42  H    7.123829   6.678285   2.072124   2.746786   1.093496
    43  H    7.427804   6.589646   2.076547   2.556578   1.093716
    44  H    8.072538   7.628993   3.352819   4.802726   2.142954
    45  H    6.864178   6.254793   2.663783   4.525827   2.164192
    46  H    6.529576   6.343417   2.653902   4.626692   2.159918
                   41         42         43         44         45
    41  C    0.000000
    42  H    2.178521   0.000000
    43  H    2.184090   1.774444   0.000000
    44  H    1.095579   2.518375   2.524789   0.000000
    45  H    1.094542   3.086708   2.530351   1.776178   0.000000
    46  H    1.093274   2.519007   3.087148   1.776776   1.778119
                   46
    46  H    0.000000
 Stoichiometry    C17H22Cl3FeO3(6)
 Framework group  C1[X(C17H22Cl3FeO3)]
 Deg. of freedom   132
 Full point group                 C1      NOp   1
 Largest Abelian subgroup         C1      NOp   1
 Largest concise Abelian subgroup C1      NOp   1
                         Standard orientation:                         
 ---------------------------------------------------------------------
 Center     Atomic      Atomic             Coordinates (Angstroms)
 Number     Number       Type             X           Y           Z
 ---------------------------------------------------------------------
      1          6           0       -2.859233    0.844236   -1.078249
      2          6           0       -1.826445   -0.075091   -0.799596
      3          6           0       -1.594449   -1.130531   -1.708172
      4          6           0       -2.385956   -1.276728   -2.840679
      5          6           0       -3.416090   -0.367721   -3.096939
      6          6           0       -3.641305    0.695356   -2.219506
      7          6           0       -0.938811    0.045102    0.377117
      8          6           0       -0.966838    1.241506    1.349665
      9          6           0       -2.247152    1.383814    2.185654
     10          6           0       -2.495980    0.052686    2.917397
     11          6           0       -2.330290   -1.099350    1.962682
     12          6           0       -1.323019   -2.005984    1.952057
     13          6           0       -0.158192   -1.993326    2.903390
     14          8           0        0.119557   -0.666223    0.411275
     15         26           0        1.869206   -0.842838   -0.381242
     16         17           0        3.322852   -0.439163    1.213480
     17          6           0       -1.369093   -3.190253    1.032526
     18         17           0        1.986093    0.568446   -2.061639
     19         17           0        1.954027   -2.937060   -1.073221
     20          1           0       -0.785193   -1.826616   -1.526783
     21          1           0       -2.190618   -2.092818   -3.529682
     22          1           0       -4.031779   -0.479487   -3.985175
     23          1           0       -4.423167    1.419386   -2.428558
     24          1           0       -3.018928    1.704947   -0.443748
     25          1           0       -0.126209    1.047419    2.021123
     26          6           0       -0.624138    2.545228    0.604406
     27          1           0       -2.120371    2.207700    2.896574
     28          1           0       -3.100601    1.646326    1.557547
     29          1           0       -1.809635   -0.036418    3.765195
     30          1           0       -3.510789    0.046095    3.334208
     31          1           0       -3.165243   -1.271309    1.286282
     32          1           0       -2.266121   -3.203417    0.407841
     33          1           0       -0.479260   -3.225957    0.392535
     34          1           0       -1.352166   -4.114581    1.626819
     35          1           0       -0.365177   -2.691919    3.727196
     36          1           0        0.755026   -2.342636    2.412788
     37          1           0        0.047437   -1.015367    3.341425
     38          8           0        0.694187    2.699572    0.522077
     39          8           0       -1.431282    3.314818    0.184805
     40          6           0        1.175418    3.873293   -0.197976
     41          6           0        2.681500    3.917344   -0.041064
     42          1           0        0.870539    3.770491   -1.243066
     43          1           0        0.681269    4.754217    0.221554
     44          1           0        3.076139    4.787449   -0.577227
     45          1           0        2.964537    4.003609    1.012725
     46          1           0        3.141159    3.016051   -0.455349
 ---------------------------------------------------------------------
 Rotational constants (GHZ):           0.1892636           0.1667270           0.1437530
 Leave Link  202 at Sun Jun 20 07:54:14 2021, MaxMem=  2147483648 cpu:               0.2 elap:               0.0
 (Enter /SFS/product/gaussian/g16.a03/x86_64/avx/g16/l301.exe)
 Standard basis: Jul-CC-pVDZ (5D, 7F)
 Ernie: Thresh=  0.10000D-02 Tol=  0.10000D-05 Strict=F.
 Ernie:  134 primitive shells out of 958 were deleted.
 There are   766 symmetry adapted cartesian basis functions of A   symmetry.
 There are   710 symmetry adapted basis functions of A   symmetry.
   710 basis functions,  1571 primitive gaussians,   766 cartesian basis functions
   115 alpha electrons      110 beta electrons
       nuclear repulsion energy      3339.8058496767 Hartrees.
 IExCor=  402 DFT=T Ex+Corr=B3LYP ExCW=0 ScaHFX=  0.200000
 ScaDFX=  0.800000  0.720000  1.000000  0.810000 ScalE2=  1.000000  1.000000
 IRadAn=      5 IRanWt=     -1 IRanGd=            0 ICorTp=0 IEmpDi=  4
 NAtoms=   46 NActive=   46 NUniq=   46 SFac= 1.00D+00 NAtFMM=   60 NAOKFM=F Big=F
 Integral buffers will be    131072 words long.
 Raffenetti 2 integral format.
 Two-electron integral symmetry is turned on.
 Leave Link  301 at Sun Jun 20 07:54:14 2021, MaxMem=  2147483648 cpu:               0.9 elap:               0.1
 (Enter /SFS/product/gaussian/g16.a03/x86_64/avx/g16/l302.exe)
 NPDir=0 NMtPBC=     1 NCelOv=     1 NCel=       1 NClECP=     1 NCelD=      1
         NCelK=      1 NCelE2=     1 NClLst=     1 CellRange=     0.0.
 One-electron integrals computed using PRISM.
 One-electron integral symmetry used in STVInt
 NBasis=   710 RedAO= T EigKep=  1.59D-06  NBF=   710
 NBsUse=   710 1.00D-06 EigRej= -1.00D+00 NBFU=   710
 Precomputing XC quadrature grid using
 IXCGrd= 4 IRadAn=           5 IRanWt=          -1 IRanGd=           0 AccXCQ= 0.00D+00.
 Generated NRdTot=       0 NPtTot=           0 NUsed=           0 NTot=          32
 NSgBfM=   764   764   764   764   764 MxSgAt=    46 MxSgA2=    46.
 Leave Link  302 at Sun Jun 20 07:54:15 2021, MaxMem=  2147483648 cpu:              16.6 elap:               1.1
 (Enter /SFS/product/gaussian/g16.a03/x86_64/avx/g16/l303.exe)
 DipDrv:  MaxL=1.
 Leave Link  303 at Sun Jun 20 07:54:16 2021, MaxMem=  2147483648 cpu:               2.4 elap:               0.2
 (Enter /SFS/product/gaussian/g16.a03/x86_64/avx/g16/l401.exe)
 ExpMin= 1.40D-02 ExpMax= 4.32D+06 ExpMxC= 4.91D+03 IAcc=3 IRadAn=         5 AccDes= 0.00D+00
 Harris functional with IExCor=  402 and IRadAn=       5 diagonalized for initial guess.
 HarFok:  IExCor=  402 AccDes= 0.00D+00 IRadAn=         5 IDoV= 1 UseB2=F ITyADJ=14
 ICtDFT=  3500011 ScaDFX=  1.000000  1.000000  1.000000  1.000000
 FoFCou: FMM=F IPFlag=           0 FMFlag=      100000 FMFlg1=           0
         NFxFlg=           0 DoJE=T BraDBF=F KetDBF=T FulRan=T
         wScrn=  0.000000 ICntrl=       500 IOpCl=  0 I1Cent=   200000004 NGrid=           0
         NMat0=    1 NMatS0=      1 NMatT0=    0 NMatD0=    1 NMtDS0=    0 NMtDT0=    0
 Petite list used in FoFCou.
 Harris En= -3531.11689281294    
 JPrj=0 DoOrth=F DoCkMO=F.
 Initial guess <Sx>= 0.0000 <Sy>= 0.0000 <Sz>= 2.5000 <S**2>= 8.7500 S= 2.5000
 Leave Link  401 at Sun Jun 20 07:54:22 2021, MaxMem=  2147483648 cpu:             100.5 elap:               6.3
 (Enter /SFS/product/gaussian/g16.a03/x86_64/avx/g16/l502.exe)
 Integral symmetry usage will be decided dynamically.
 UHF open shell SCF:
 Using DIIS extrapolation, IDIIS=  1040.
 NGot=  2147483648 LenX=  2146290678 LenY=  2145703156
 Requested convergence on RMS density matrix=1.00D-08 within 128 cycles.
 Requested convergence on MAX density matrix=1.00D-06.
 Requested convergence on             energy=1.00D-06.
 No special actions if energy rises.
 Fock matrices will be formed incrementally for  20 cycles.

 Cycle   1  Pass 1  IDiag  1:
 FoFJK:  IHMeth= 1 ICntrl=       0 DoSepK=F KAlg= 0 I1Cent=           0 FoldK=F
 IRaf= 920000000 NMat=       1 IRICut=       1 DoRegI=T DoRafI=F ISym2E= 0 IDoP0=0 IntGTp=1.
 FoFCou: FMM=F IPFlag=           0 FMFlag=      100000 FMFlg1=           0
         NFxFlg=           0 DoJE=F BraDBF=F KetDBF=F FulRan=T
         wScrn=  0.000000 ICntrl=         0 IOpCl=  1 I1Cent=           0 NGrid=           0
         NMat0=    1 NMatS0=      1 NMatT0=    0 NMatD0=    1 NMtDS0=    0 NMtDT0=    0
 Symmetry not used in FoFCou.
 E= -3530.39415317921    
 DIIS: error= 2.74D-02 at cycle   1 NSaved=   1.
 NSaved= 1 IEnMin= 1 EnMin= -3530.39415317921     IErMin= 1 ErrMin= 2.74D-02
 ErrMax= 2.74D-02  0.00D+00 EMaxC= 1.00D-01 BMatC= 4.45D+00 BMatP= 4.45D+00
 IDIUse=3 WtCom= 7.26D-01 WtEn= 2.74D-01
 Coeff-Com:  0.100D+01
 Coeff-En:   0.100D+01
 Coeff:      0.100D+01
 Gap=     0.188 Goal=   None    Shift=    0.000
 Gap=     0.101 Goal=   None    Shift=    0.000
 GapD=    0.101 DampG=1.000 DampE=0.250 DampFc=0.2500 IDamp=-1.
 Damping current iteration by 2.50D-01
 RMSDP=3.97D-02 MaxDP=9.89D+00              OVMax= 7.95D-01

 Cycle   2  Pass 1  IDiag  1:
 RMSU=  4.60D-03    CP:  9.03D-01
 E= -3530.39719050263     Delta-E=       -0.003037323422 Rises=F Damp=T
 DIIS: error= 1.91D-02 at cycle   2 NSaved=   2.
 NSaved= 2 IEnMin= 2 EnMin= -3530.39719050263     IErMin= 2 ErrMin= 1.91D-02
 ErrMax= 1.91D-02  0.00D+00 EMaxC= 1.00D-01 BMatC= 1.45D+00 BMatP= 4.45D+00
 IDIUse=3 WtCom= 8.09D-01 WtEn= 1.91D-01
 Coeff-Com:  0.276D+00 0.724D+00
 Coeff-En:   0.499D+00 0.501D+00
 Coeff:      0.319D+00 0.681D+00
 Gap=     0.178 Goal=   None    Shift=    0.000
 Gap=    -0.007 Goal=   None    Shift=    0.000
 RMSDP=2.97D-02 MaxDP=8.91D+00 DE=-3.04D-03 OVMax= 9.75D-01

 Cycle   3  Pass 1  IDiag  1:
 RMSU=  7.68D-03    CP:  5.89D-01  1.47D+00
 E= -3530.12258990389     Delta-E=        0.274600598742 Rises=F Damp=F
 DIIS: error= 4.05D-02 at cycle   3 NSaved=   3.
 NSaved= 3 IEnMin= 2 EnMin= -3530.39719050263     IErMin= 2 ErrMin= 1.91D-02
 ErrMax= 4.05D-02  0.00D+00 EMaxC= 1.00D-01 BMatC= 5.96D+00 BMatP= 1.45D+00
 IDIUse=2 WtCom= 0.00D+00 WtEn= 1.00D+00
 EnCoef did     4 forward-backward iterations
 Coeff-En:   0.116D+00 0.510D+00 0.375D+00
 Coeff:      0.116D+00 0.510D+00 0.375D+00
 Gap=    -0.058 Goal=   None    Shift=    0.000
 Gap=     0.216 Goal=   None    Shift=    0.000
 RMSDP=7.05D-03 MaxDP=7.03D-01 DE= 2.75D-01 OVMax= 6.45D-01

 Cycle   4  Pass 1  IDiag  1:
 RMSU=  5.05D-03    CP:  6.19D-01  1.71D+00  4.85D-01
 E= -3526.40034994324     Delta-E=        3.722239960649 Rises=F Damp=F
 DIIS: error= 1.07D-01 at cycle   4 NSaved=   4.
 NSaved= 4 IEnMin= 2 EnMin= -3530.39719050263     IErMin= 2 ErrMin= 1.91D-02
 ErrMax= 1.07D-01  0.00D+00 EMaxC= 1.00D-01 BMatC= 2.95D+01 BMatP= 1.45D+00
 IDIUse=2 WtCom= 0.00D+00 WtEn= 1.00D+00
 EnCoef did     4 forward-backward iterations
 Coeff-En:   0.241D+00 0.000D+00 0.494D+00 0.265D+00
 Coeff:      0.241D+00 0.000D+00 0.494D+00 0.265D+00
 Gap=     0.116 Goal=   None    Shift=    0.000
 Gap=    -0.010 Goal=   None    Shift=    0.000
 RMSDP=4.16D-03 MaxDP=4.87D-01 DE= 3.72D+00 OVMax= 8.81D-01

 Cycle   5  Pass 1  IDiag  1:
 RMSU=  2.66D-03    CP:  6.28D-01  1.27D+00  6.68D-01  6.32D-01
 E= -3531.34750705921     Delta-E=       -4.947157115963 Rises=F Damp=F
 DIIS: error= 4.21D-03 at cycle   5 NSaved=   5.
 NSaved= 5 IEnMin= 5 EnMin= -3531.34750705921     IErMin= 5 ErrMin= 4.21D-03
 ErrMax= 4.21D-03  0.00D+00 EMaxC= 1.00D-01 BMatC= 3.18D-01 BMatP= 1.45D+00
 IDIUse=3 WtCom= 9.58D-01 WtEn= 4.21D-02
 Coeff-Com: -0.440D-01 0.321D+00 0.219D+00-0.827D-02 0.512D+00
 Coeff-En:   0.000D+00 0.000D+00 0.313D-01 0.000D+00 0.969D+00
 Coeff:     -0.422D-01 0.307D+00 0.211D+00-0.792D-02 0.531D+00
 Gap=     0.112 Goal=   None    Shift=    0.000
 Gap=     0.142 Goal=   None    Shift=    0.000
 RMSDP=2.70D-03 MaxDP=3.09D-01 DE=-4.95D+00 OVMax= 1.21D-01

 Cycle   6  Pass 1  IDiag  1:
 RMSU=  2.09D-03    CP:  6.29D-01  1.23D+00  7.06D-01  5.49D-01  3.88D-01
 E= -3531.37151573835     Delta-E=       -0.024008679143 Rises=F Damp=F
 DIIS: error= 4.01D-03 at cycle   6 NSaved=   6.
 NSaved= 6 IEnMin= 6 EnMin= -3531.37151573835     IErMin= 6 ErrMin= 4.01D-03
 ErrMax= 4.01D-03  0.00D+00 EMaxC= 1.00D-01 BMatC= 2.50D-01 BMatP= 3.18D-01
 IDIUse=3 WtCom= 9.60D-01 WtEn= 4.01D-02
 Coeff-Com: -0.554D-01 0.132D+00 0.963D-01-0.169D-01 0.437D+00 0.407D+00
 Coeff-En:   0.000D+00 0.000D+00 0.000D+00 0.000D+00 0.416D+00 0.584D+00
 Coeff:     -0.532D-01 0.127D+00 0.924D-01-0.162D-01 0.436D+00 0.414D+00
 Gap=     0.141 Goal=   None    Shift=    0.000
 Gap=     0.139 Goal=   None    Shift=    0.000
 RMSDP=1.17D-03 MaxDP=1.38D-01 DE=-2.40D-02 OVMax= 7.00D-02

 Cycle   7  Pass 1  IDiag  1:
 RMSU=  8.77D-04    CP:  6.31D-01  1.24D+00  6.83D-01  5.48D-01  6.05D-01
                    CP:  7.86D-01
 E= -3531.42491415364     Delta-E=       -0.053398415292 Rises=F Damp=F
 DIIS: error= 2.57D-03 at cycle   7 NSaved=   7.
 NSaved= 7 IEnMin= 7 EnMin= -3531.42491415364     IErMin= 7 ErrMin= 2.57D-03
 ErrMax= 2.57D-03  0.00D+00 EMaxC= 1.00D-01 BMatC= 2.40D-02 BMatP= 2.50D-01
 IDIUse=3 WtCom= 9.74D-01 WtEn= 2.57D-02
 Coeff-Com: -0.232D-01 0.327D-01 0.113D-01-0.146D-02 0.161D+00 0.213D+00
 Coeff-Com:  0.606D+00
 Coeff-En:   0.000D+00 0.000D+00 0.000D+00 0.000D+00 0.000D+00 0.000D+00
 Coeff-En:   0.100D+01
 Coeff:     -0.226D-01 0.319D-01 0.110D-01-0.142D-02 0.157D+00 0.208D+00
 Coeff:      0.616D+00
 Gap=     0.139 Goal=   None    Shift=    0.000
 Gap=     0.122 Goal=   None    Shift=    0.000
 RMSDP=5.76D-04 MaxDP=1.16D-01 DE=-5.34D-02 OVMax= 1.69D-02

 Cycle   8  Pass 1  IDiag  1:
 RMSU=  4.73D-04    CP:  6.30D-01  1.23D+00  6.76D-01  5.75D-01  6.67D-01
                    CP:  6.93D-01  9.74D-01
 E= -3531.42837935093     Delta-E=       -0.003465197286 Rises=F Damp=F
 DIIS: error= 1.23D-03 at cycle   8 NSaved=   8.
 NSaved= 8 IEnMin= 8 EnMin= -3531.42837935093     IErMin= 8 ErrMin= 1.23D-03
 ErrMax= 1.23D-03  0.00D+00 EMaxC= 1.00D-01 BMatC= 7.02D-03 BMatP= 2.40D-02
 IDIUse=3 WtCom= 9.88D-01 WtEn= 1.23D-02
 Coeff-Com: -0.863D-02 0.103D-01-0.122D-01 0.356D-02 0.156D-01 0.475D-01
 Coeff-Com:  0.350D+00 0.594D+00
 Coeff-En:   0.000D+00 0.000D+00 0.000D+00 0.000D+00 0.000D+00 0.000D+00
 Coeff-En:   0.642D-01 0.936D+00
 Coeff:     -0.852D-02 0.102D-01-0.121D-01 0.351D-02 0.154D-01 0.469D-01
 Coeff:      0.346D+00 0.598D+00
 Gap=     0.141 Goal=   None    Shift=    0.000
 Gap=     0.124 Goal=   None    Shift=    0.000
 RMSDP=2.85D-04 MaxDP=4.55D-02 DE=-3.47D-03 OVMax= 1.00D-02

 Cycle   9  Pass 1  IDiag  1:
 RMSU=  1.77D-04    CP:  6.29D-01  1.23D+00  6.78D-01  5.79D-01  6.39D-01
                    CP:  7.74D-01  1.06D+00  8.06D-01
 E= -3531.42954341774     Delta-E=       -0.001164066817 Rises=F Damp=F
 DIIS: error= 9.27D-04 at cycle   9 NSaved=   9.
 NSaved= 9 IEnMin= 9 EnMin= -3531.42954341774     IErMin= 9 ErrMin= 9.27D-04
 ErrMax= 9.27D-04  0.00D+00 EMaxC= 1.00D-01 BMatC= 2.25D-03 BMatP= 7.02D-03
 IDIUse=3 WtCom= 9.91D-01 WtEn= 9.27D-03
 Coeff-Com: -0.801D-02 0.138D-01-0.403D-02 0.176D-02 0.726D-03 0.605D-02
 Coeff-Com:  0.743D-02 0.253D+00 0.729D+00
 Coeff-En:   0.000D+00 0.000D+00 0.000D+00 0.000D+00 0.000D+00 0.000D+00
 Coeff-En:   0.000D+00 0.000D+00 0.100D+01
 Coeff:     -0.793D-02 0.136D-01-0.400D-02 0.175D-02 0.720D-03 0.599D-02
 Coeff:      0.736D-02 0.251D+00 0.731D+00
 Gap=     0.141 Goal=   None    Shift=    0.000
 Gap=     0.122 Goal=   None    Shift=    0.000
 RMSDP=1.21D-04 MaxDP=1.16D-02 DE=-1.16D-03 OVMax= 5.56D-03

 Cycle  10  Pass 1  IDiag  1:
 RMSU=  1.05D-04    CP:  6.30D-01  1.23D+00  6.76D-01  5.81D-01  6.43D-01
                    CP:  7.63D-01  1.09D+00  8.49D-01  8.94D-01
 E= -3531.42979332703     Delta-E=       -0.000249909291 Rises=F Damp=F
 DIIS: error= 4.90D-04 at cycle  10 NSaved=  10.
 NSaved=10 IEnMin=10 EnMin= -3531.42979332703     IErMin=10 ErrMin= 4.90D-04
 ErrMax= 4.90D-04  0.00D+00 EMaxC= 1.00D-01 BMatC= 9.39D-04 BMatP= 2.25D-03
 IDIUse=3 WtCom= 9.95D-01 WtEn= 4.90D-03
 Coeff-Com: -0.636D-02 0.100D-01 0.204D-02 0.166D-03 0.885D-02-0.305D-02
 Coeff-Com: -0.132D+00-0.638D-01 0.508D+00 0.675D+00
 Coeff-En:   0.000D+00 0.000D+00 0.000D+00 0.000D+00 0.000D+00 0.000D+00
 Coeff-En:   0.000D+00 0.000D+00 0.103D+00 0.897D+00
 Coeff:     -0.633D-02 0.998D-02 0.203D-02 0.165D-03 0.880D-02-0.304D-02
 Coeff:     -0.131D+00-0.635D-01 0.506D+00 0.676D+00
 Gap=     0.141 Goal=   None    Shift=    0.000
 Gap=     0.120 Goal=   None    Shift=    0.000
 RMSDP=9.92D-05 MaxDP=1.18D-02 DE=-2.50D-04 OVMax= 4.60D-03

 Cycle  11  Pass 1  IDiag  1:
 RMSU=  6.17D-05    CP:  6.30D-01  1.23D+00  6.72D-01  5.83D-01  6.43D-01
                    CP:  7.76D-01  1.11D+00  8.89D-01  1.00D+00  6.83D-01
 E= -3531.42998351391     Delta-E=       -0.000190186878 Rises=F Damp=F
 DIIS: error= 1.28D-04 at cycle  11 NSaved=  11.
 NSaved=11 IEnMin=11 EnMin= -3531.42998351391     IErMin=11 ErrMin= 1.28D-04
 ErrMax= 1.28D-04  0.00D+00 EMaxC= 1.00D-01 BMatC= 1.03D-04 BMatP= 9.39D-04
 IDIUse=3 WtCom= 9.99D-01 WtEn= 1.28D-03
 Coeff-Com: -0.269D-02 0.298D-02 0.170D-02-0.491D-04 0.823D-02-0.331D-02
 Coeff-Com: -0.723D-01-0.726D-01 0.163D+00 0.407D+00 0.568D+00
 Coeff-En:   0.000D+00 0.000D+00 0.000D+00 0.000D+00 0.000D+00 0.000D+00
 Coeff-En:   0.000D+00 0.000D+00 0.000D+00 0.144D-01 0.986D+00
 Coeff:     -0.268D-02 0.297D-02 0.169D-02-0.490D-04 0.822D-02-0.330D-02
 Coeff:     -0.722D-01-0.725D-01 0.163D+00 0.407D+00 0.568D+00
 Gap=     0.142 Goal=   None    Shift=    0.000
 Gap=     0.120 Goal=   None    Shift=    0.000
 RMSDP=4.11D-05 MaxDP=4.73D-03 DE=-1.90D-04 OVMax= 2.38D-03

 Cycle  12  Pass 1  IDiag  1:
 RMSU=  3.08D-05    CP:  6.30D-01  1.23D+00  6.72D-01  5.84D-01  6.44D-01
                    CP:  7.70D-01  1.11D+00  9.07D-01  1.01D+00  8.45D-01
                    CP:  8.86D-01
 E= -3531.43000946972     Delta-E=       -0.000025955805 Rises=F Damp=F
 DIIS: error= 4.67D-05 at cycle  12 NSaved=  12.
 NSaved=12 IEnMin=12 EnMin= -3531.43000946972     IErMin=12 ErrMin= 4.67D-05
 ErrMax= 4.67D-05  0.00D+00 EMaxC= 1.00D-01 BMatC= 1.78D-05 BMatP= 1.03D-04
 IDIUse=1 WtCom= 1.00D+00 WtEn= 0.00D+00
 Coeff-Com: -0.370D-03 0.145D-03 0.377D-03-0.345D-04 0.193D-02-0.262D-02
 Coeff-Com: -0.134D-01-0.163D-01 0.187D-01 0.113D+00 0.304D+00 0.594D+00
 Coeff:     -0.370D-03 0.145D-03 0.377D-03-0.345D-04 0.193D-02-0.262D-02
 Coeff:     -0.134D-01-0.163D-01 0.187D-01 0.113D+00 0.304D+00 0.594D+00
 Gap=     0.142 Goal=   None    Shift=    0.000
 Gap=     0.120 Goal=   None    Shift=    0.000
 RMSDP=1.53D-05 MaxDP=2.27D-03 DE=-2.60D-05 OVMax= 8.26D-04

 Cycle  13  Pass 1  IDiag  1:
 RMSU=  1.20D-05    CP:  6.30D-01  1.23D+00  6.72D-01  5.83D-01  6.45D-01
                    CP:  7.68D-01  1.11D+00  9.06D-01  1.01D+00  8.70D-01
                    CP:  9.19D-01  8.39D-01
 E= -3531.43001345975     Delta-E=       -0.000003990034 Rises=F Damp=F
 DIIS: error= 2.59D-05 at cycle  13 NSaved=  13.
 NSaved=13 IEnMin=13 EnMin= -3531.43001345975     IErMin=13 ErrMin= 2.59D-05
 ErrMax= 2.59D-05  0.00D+00 EMaxC= 1.00D-01 BMatC= 3.23D-06 BMatP= 1.78D-05
 IDIUse=1 WtCom= 1.00D+00 WtEn= 0.00D+00
 Coeff-Com:  0.169D-03-0.243D-03-0.255D-04-0.118D-04-0.328D-03-0.121D-02
 Coeff-Com:  0.450D-03 0.215D-02 0.362D-02 0.203D-01 0.791D-01 0.257D+00
 Coeff-Com:  0.639D+00
 Coeff:      0.169D-03-0.243D-03-0.255D-04-0.118D-04-0.328D-03-0.121D-02
 Coeff:      0.450D-03 0.215D-02 0.362D-02 0.203D-01 0.791D-01 0.257D+00
 Coeff:      0.639D+00
 Gap=     0.142 Goal=   None    Shift=    0.000
 Gap=     0.121 Goal=   None    Shift=    0.000
 RMSDP=6.21D-06 MaxDP=8.68D-04 DE=-3.99D-06 OVMax= 3.60D-04

 Cycle  14  Pass 1  IDiag  1:
 RMSU=  5.33D-06    CP:  6.30D-01  1.23D+00  6.72D-01  5.83D-01  6.45D-01
                    CP:  7.69D-01  1.11D+00  9.07D-01  1.01D+00  8.62D-01
                    CP:  9.36D-01  8.85D-01  1.01D+00
 E= -3531.43001434111     Delta-E=       -0.000000881359 Rises=F Damp=F
 DIIS: error= 9.82D-06 at cycle  14 NSaved=  14.
 NSaved=14 IEnMin=14 EnMin= -3531.43001434111     IErMin=14 ErrMin= 9.82D-06
 ErrMax= 9.82D-06  0.00D+00 EMaxC= 1.00D-01 BMatC= 4.85D-07 BMatP= 3.23D-06
 IDIUse=1 WtCom= 1.00D+00 WtEn= 0.00D+00
 Coeff-Com:  0.157D-03-0.915D-04-0.509D-04-0.536D-05-0.521D-03 0.190D-03
 Coeff-Com:  0.161D-02 0.324D-02 0.316D-02-0.111D-01-0.396D-01-0.509D-01
 Coeff-Com:  0.254D+00 0.840D+00
 Coeff:      0.157D-03-0.915D-04-0.509D-04-0.536D-05-0.521D-03 0.190D-03
 Coeff:      0.161D-02 0.324D-02 0.316D-02-0.111D-01-0.396D-01-0.509D-01
 Coeff:      0.254D+00 0.840D+00
 Gap=     0.142 Goal=   None    Shift=    0.000
 Gap=     0.121 Goal=   None    Shift=    0.000
 RMSDP=5.05D-06 MaxDP=5.02D-04 DE=-8.81D-07 OVMax= 3.48D-04

 Cycle  15  Pass 1  IDiag  1:
 RMSU=  3.52D-06    CP:  6.30D-01  1.23D+00  6.72D-01  5.83D-01  6.45D-01
                    CP:  7.69D-01  1.11D+00  9.08D-01  1.01D+00  8.67D-01
                    CP:  9.53D-01  8.88D-01  1.19D+00  1.42D+00
 E= -3531.43001464451     Delta-E=       -0.000000303396 Rises=F Damp=F
 DIIS: error= 7.08D-06 at cycle  15 NSaved=  15.
 NSaved=15 IEnMin=15 EnMin= -3531.43001464451     IErMin=15 ErrMin= 7.08D-06
 ErrMax= 7.08D-06  0.00D+00 EMaxC= 1.00D-01 BMatC= 1.62D-07 BMatP= 4.85D-07
 IDIUse=1 WtCom= 1.00D+00 WtEn= 0.00D+00
 Coeff-Com:  0.224D-04 0.210D-04 0.580D-05-0.305D-05-0.982D-04 0.469D-03
 Coeff-Com:  0.938D-04-0.304D-04 0.110D-02-0.107D-01-0.440D-01-0.110D+00
 Coeff-Com: -0.101D+00 0.458D+00 0.806D+00
 Coeff:      0.224D-04 0.210D-04 0.580D-05-0.305D-05-0.982D-04 0.469D-03
 Coeff:      0.938D-04-0.304D-04 0.110D-02-0.107D-01-0.440D-01-0.110D+00
 Coeff:     -0.101D+00 0.458D+00 0.806D+00
 Gap=     0.142 Goal=   None    Shift=    0.000
 Gap=     0.121 Goal=   None    Shift=    0.000
 RMSDP=4.23D-06 MaxDP=4.72D-04 DE=-3.03D-07 OVMax= 2.63D-04

 Cycle  16  Pass 1  IDiag  1:
 RMSU=  2.12D-06    CP:  6.30D-01  1.23D+00  6.72D-01  5.83D-01  6.45D-01
                    CP:  7.68D-01  1.11D+00  9.08D-01  1.02D+00  8.76D-01
                    CP:  9.65D-01  9.13D-01  1.30D+00  1.84D+00  1.45D+00
 E= -3531.43001478067     Delta-E=       -0.000000136167 Rises=F Damp=F
 DIIS: error= 4.45D-06 at cycle  16 NSaved=  16.
 NSaved=16 IEnMin=16 EnMin= -3531.43001478067     IErMin=16 ErrMin= 4.45D-06
 ErrMax= 4.45D-06  0.00D+00 EMaxC= 1.00D-01 BMatC= 5.84D-08 BMatP= 1.62D-07
 IDIUse=1 WtCom= 1.00D+00 WtEn= 0.00D+00
 Coeff-Com: -0.276D-04 0.389D-04 0.226D-04-0.802D-06 0.173D-04 0.146D-03
 Coeff-Com: -0.216D-03-0.815D-03-0.109D-02-0.407D-02-0.146D-01-0.487D-01
 Coeff-Com: -0.134D+00 0.319D-01 0.481D+00 0.690D+00
 Coeff:     -0.276D-04 0.389D-04 0.226D-04-0.802D-06 0.173D-04 0.146D-03
 Coeff:     -0.216D-03-0.815D-03-0.109D-02-0.407D-02-0.146D-01-0.487D-01
 Coeff:     -0.134D+00 0.319D-01 0.481D+00 0.690D+00
 Gap=     0.142 Goal=   None    Shift=    0.000
 Gap=     0.121 Goal=   None    Shift=    0.000
 RMSDP=2.31D-06 MaxDP=2.63D-04 DE=-1.36D-07 OVMax= 1.43D-04

 Cycle  17  Pass 1  IDiag  1:
 RMSU=  8.55D-07    CP:  6.30D-01  1.23D+00  6.72D-01  5.83D-01  6.45D-01
                    CP:  7.68D-01  1.11D+00  9.08D-01  1.02D+00  8.77D-01
                    CP:  9.76D-01  9.23D-01  1.36D+00  2.10D+00  1.77D+00
                    CP:  1.06D+00
 E= -3531.43001482214     Delta-E=       -0.000000041466 Rises=F Damp=F
 DIIS: error= 2.10D-06 at cycle  17 NSaved=  17.
 NSaved=17 IEnMin=17 EnMin= -3531.43001482214     IErMin=17 ErrMin= 2.10D-06
 ErrMax= 2.10D-06  0.00D+00 EMaxC= 1.00D-01 BMatC= 1.28D-08 BMatP= 5.84D-08
 IDIUse=1 WtCom= 1.00D+00 WtEn= 0.00D+00
 Coeff-Com: -0.777D-05-0.532D-05-0.164D-05 0.244D-05 0.691D-06-0.274D-04
 Coeff-Com:  0.222D-03-0.525D-04-0.168D-02-0.138D-02 0.972D-03-0.878D-03
 Coeff-Com: -0.363D-01-0.818D-01 0.466D-01 0.332D+00 0.742D+00
 Coeff:     -0.777D-05-0.532D-05-0.164D-05 0.244D-05 0.691D-06-0.274D-04
 Coeff:      0.222D-03-0.525D-04-0.168D-02-0.138D-02 0.972D-03-0.878D-03
 Coeff:     -0.363D-01-0.818D-01 0.466D-01 0.332D+00 0.742D+00
 Gap=     0.142 Goal=   None    Shift=    0.000
 Gap=     0.121 Goal=   None    Shift=    0.000
 RMSDP=1.18D-06 MaxDP=1.04D-04 DE=-4.15D-08 OVMax= 6.64D-05

 Cycle  18  Pass 1  IDiag  1:
 RMSU=  4.33D-07    CP:  6.30D-01  1.23D+00  6.72D-01  5.83D-01  6.45D-01
                    CP:  7.68D-01  1.11D+00  9.08D-01  1.02D+00  8.78D-01
                    CP:  9.82D-01  9.28D-01  1.39D+00  2.22D+00  1.92D+00
                    CP:  1.24D+00  1.24D+00
 E= -3531.43001483161     Delta-E=       -0.000000009469 Rises=F Damp=F
 DIIS: error= 1.15D-06 at cycle  18 NSaved=  18.
 NSaved=18 IEnMin=18 EnMin= -3531.43001483161     IErMin=18 ErrMin= 1.15D-06
 ErrMax= 1.15D-06  0.00D+00 EMaxC= 1.00D-01 BMatC= 7.39D-09 BMatP= 1.28D-08
 IDIUse=1 WtCom= 1.00D+00 WtEn= 0.00D+00
 Coeff-Com: -0.196D-05 0.552D-05-0.900D-07-0.129D-07 0.352D-05-0.408D-04
 Coeff-Com:  0.941D-04 0.362D-04-0.767D-03 0.401D-03 0.485D-02 0.147D-01
 Coeff-Com:  0.262D-01-0.494D-01-0.130D+00-0.515D-01 0.409D+00 0.776D+00
 Coeff:     -0.196D-05 0.552D-05-0.900D-07-0.129D-07 0.352D-05-0.408D-04
 Coeff:      0.941D-04 0.362D-04-0.767D-03 0.401D-03 0.485D-02 0.147D-01
 Coeff:      0.262D-01-0.494D-01-0.130D+00-0.515D-01 0.409D+00 0.776D+00
 Gap=     0.142 Goal=   None    Shift=    0.000
 Gap=     0.121 Goal=   None    Shift=    0.000
 RMSDP=7.31D-07 MaxDP=6.67D-05 DE=-9.47D-09 OVMax= 3.98D-05

 Cycle  19  Pass 1  IDiag  1:
 RMSU=  2.62D-07    CP:  6.30D-01  1.23D+00  6.72D-01  5.83D-01  6.45D-01
                    CP:  7.68D-01  1.11D+00  9.08D-01  1.02D+00  8.80D-01
                    CP:  9.85D-01  9.31D-01  1.41D+00  2.28D+00  2.01D+00
                    CP:  1.35D+00  1.51D+00  1.26D+00
 E= -3531.43001483540     Delta-E=       -0.000000003791 Rises=F Damp=F
 DIIS: error= 7.46D-07 at cycle  19 NSaved=  19.
 NSaved=19 IEnMin=19 EnMin= -3531.43001483540     IErMin=19 ErrMin= 7.46D-07
 ErrMax= 7.46D-07  0.00D+00 EMaxC= 1.00D-01 BMatC= 1.27D-09 BMatP= 7.39D-09
 IDIUse=1 WtCom= 1.00D+00 WtEn= 0.00D+00
 Coeff-Com:  0.483D-05-0.289D-05-0.450D-05-0.154D-06 0.932D-06-0.739D-05
 Coeff-Com:  0.820D-04 0.120D-03-0.112D-03 0.313D-03 0.211D-02 0.851D-02
 Coeff-Com:  0.266D-01-0.725D-02-0.897D-01-0.120D+00 0.373D-01 0.442D+00
 Coeff-Com:  0.700D+00
 Coeff:      0.483D-05-0.289D-05-0.450D-05-0.154D-06 0.932D-06-0.739D-05
 Coeff:      0.820D-04 0.120D-03-0.112D-03 0.313D-03 0.211D-02 0.851D-02
 Coeff:      0.266D-01-0.725D-02-0.897D-01-0.120D+00 0.373D-01 0.442D+00
 Coeff:      0.700D+00
 Gap=     0.142 Goal=   None    Shift=    0.000
 Gap=     0.121 Goal=   None    Shift=    0.000
 RMSDP=3.78D-07 MaxDP=3.60D-05 DE=-3.79D-09 OVMax= 2.37D-05

 Cycle  20  Pass 1  IDiag  1:
 RMSU=  1.32D-07    CP:  6.30D-01  1.23D+00  6.72D-01  5.83D-01  6.45D-01
                    CP:  7.68D-01  1.11D+00  9.08D-01  1.02D+00  8.80D-01
                    CP:  9.87D-01  9.33D-01  1.41D+00  2.31D+00  2.06D+00
                    CP:  1.40D+00  1.67D+00  1.53D+00  1.16D+00
 E= -3531.43001483626     Delta-E=       -0.000000000866 Rises=F Damp=F
 DIIS: error= 3.68D-07 at cycle  20 NSaved=  20.
 NSaved=20 IEnMin=20 EnMin= -3531.43001483626     IErMin=20 ErrMin= 3.68D-07
 ErrMax= 3.68D-07  0.00D+00 EMaxC= 1.00D-01 BMatC= 3.35D-10 BMatP= 1.27D-09
 IDIUse=1 WtCom= 1.00D+00 WtEn= 0.00D+00
 Coeff-Com:  0.207D-05-0.968D-06-0.140D-05-0.179D-06 0.419D-06 0.462D-05
 Coeff-Com: -0.941D-05 0.440D-04 0.236D-03 0.236D-03-0.689D-04 0.729D-03
 Coeff-Com:  0.693D-02 0.887D-02-0.134D-01-0.530D-01-0.944D-01 0.269D-01
 Coeff-Com:  0.387D+00 0.730D+00
 Coeff:      0.207D-05-0.968D-06-0.140D-05-0.179D-06 0.419D-06 0.462D-05
 Coeff:     -0.941D-05 0.440D-04 0.236D-03 0.236D-03-0.689D-04 0.729D-03
 Coeff:      0.693D-02 0.887D-02-0.134D-01-0.530D-01-0.944D-01 0.269D-01
 Coeff:      0.387D+00 0.730D+00
 Gap=     0.142 Goal=   None    Shift=    0.000
 Gap=     0.121 Goal=   None    Shift=    0.000
 RMSDP=1.94D-07 MaxDP=2.18D-05 DE=-8.66D-10 OVMax= 1.08D-05

 Cycle  21  Pass 1  IDiag  1:
 Restarting incremental Fock formation.
 E= -3531.43001483642     Delta-E=       -0.000000000157 Rises=F Damp=F
 DIIS: error= 1.53D-07 at cycle  21 NSaved=  20.
 NSaved=20 IEnMin=20 EnMin= -3531.43001483642     IErMin=20 ErrMin= 1.53D-07
 ErrMax= 1.53D-07  0.00D+00 EMaxC= 1.00D-01 BMatC= 7.38D-11 BMatP= 3.35D-10
 IDIUse=1 WtCom= 1.00D+00 WtEn= 0.00D+00
 Coeff-Com: -0.266D-08-0.625D-06 0.113D-06 0.506D-06 0.282D-05-0.285D-04
 Coeff-Com: -0.218D-05 0.170D-03 0.799D-04-0.495D-03-0.161D-02-0.301D-02
 Coeff-Com:  0.581D-02 0.140D-01 0.110D-02-0.545D-01-0.841D-01 0.309D-01
 Coeff-Com:  0.353D+00 0.738D+00
 Coeff:     -0.266D-08-0.625D-06 0.113D-06 0.506D-06 0.282D-05-0.285D-04
 Coeff:     -0.218D-05 0.170D-03 0.799D-04-0.495D-03-0.161D-02-0.301D-02
 Coeff:      0.581D-02 0.140D-01 0.110D-02-0.545D-01-0.841D-01 0.309D-01
 Coeff:      0.353D+00 0.738D+00
[...]
    14   Atom        0.079094     -0.126695      0.047601
    15   Atom        0.114153     -0.010256     -0.103897
    16   Atom       -0.079903     -0.084984      0.164887
    17   Atom        0.002597      0.005254     -0.007851
    18   Atom       -0.124956      0.028060      0.096896
    19   Atom       -0.113679      0.234000     -0.120321
    20   Atom        0.016479     -0.014629     -0.001850
    21   Atom        0.002798     -0.003523      0.000725
    22   Atom        0.002553     -0.001856     -0.000696
    23   Atom        0.003479     -0.001709     -0.001770
    24   Atom        0.007019     -0.003388     -0.003631
    25   Atom        0.003493     -0.014031      0.010538
    26   Atom        0.004885      0.000991     -0.005876
    27   Atom        0.001404     -0.003101      0.001697
    28   Atom        0.004701     -0.003248     -0.001454
    29   Atom        0.000074     -0.004848      0.004773
    30   Atom        0.001888     -0.002763      0.000875
    31   Atom        0.008157     -0.004090     -0.004067
    32   Atom        0.004302      0.000779     -0.005081
    33   Atom        0.001889      0.011220     -0.013109
    34   Atom       -0.000622      0.005590     -0.004969
    35   Atom       -0.004160      0.003389      0.000771
    36   Atom       -0.016740      0.020205     -0.003465
    37   Atom       -0.007608     -0.005073      0.012681
    38   Atom       -0.001563      0.009807     -0.008244
    39   Atom        0.001902      0.001606     -0.003508
    40   Atom       -0.002616      0.008132     -0.005516
    41   Atom       -0.006082      0.011766     -0.005683
    42   Atom       -0.000799      0.005805     -0.005006
    43   Atom       -0.001356      0.004370     -0.003014
    44   Atom       -0.003550      0.007040     -0.003490
    45   Atom       -0.006052      0.010494     -0.004442
    46   Atom       -0.010400      0.019198     -0.008798
 --------------------------------------------------------
                        XY            XZ            YZ
 --------------------------------------------------------
     1   Atom       -0.002639      0.000735      0.000756
     2   Atom       -0.000506      0.008264     -0.003257
     3   Atom        0.003436      0.011486      0.001286
     4   Atom        0.001377      0.005882      0.000565
     5   Atom        0.000187      0.002893     -0.000251
     6   Atom       -0.000267      0.001791     -0.000588
     7   Atom       -0.025026     -0.015740      0.003913
     8   Atom       -0.010035     -0.017405      0.011089
     9   Atom       -0.000488     -0.007671     -0.000383
    10   Atom        0.002068     -0.007314     -0.001792
    11   Atom        0.017407     -0.016699     -0.022165
    12   Atom        0.019085     -0.013632     -0.022004
    13   Atom        0.009679     -0.009250     -0.016005
    14   Atom        0.159820      0.035215      0.032693
    15   Atom        0.068281     -0.076225     -0.010693
    16   Atom        0.047291      0.133720      0.128840
    17   Atom        0.011599     -0.001911     -0.001550
    18   Atom       -0.050169      0.050651     -0.202189
    19   Atom       -0.119001     -0.028314      0.110541
    20   Atom        0.012053      0.022777      0.007624
    21   Atom        0.001507      0.005467      0.001185
    22   Atom        0.000012      0.002191     -0.000015
    23   Atom       -0.000839      0.000712     -0.000124
    24   Atom       -0.002342     -0.001558      0.000244
    25   Atom       -0.009014     -0.023314      0.012788
    26   Atom       -0.010658     -0.006405      0.004592
    27   Atom       -0.001679     -0.005372      0.002052
    28   Atom       -0.001650     -0.004324      0.000768
    29   Atom        0.001983     -0.006994     -0.002103
    30   Atom        0.001045     -0.004338     -0.000746
    31   Atom        0.004183     -0.002380     -0.002114
    32   Atom        0.007848      0.000226      0.000441
    33   Atom        0.018182      0.001293      0.003232
    34   Atom        0.006695     -0.001326     -0.001400
    35   Atom        0.004022     -0.003539     -0.008517
    36   Atom        0.011018     -0.008449     -0.026262
    37   Atom        0.006490     -0.010354     -0.014237
    38   Atom       -0.015610     -0.006096      0.008029
    39   Atom       -0.005202     -0.002889      0.001037
    40   Atom       -0.007009     -0.001101      0.002095
    41   Atom       -0.002966     -0.000385      0.001997
    42   Atom       -0.007002      0.000255     -0.000589
    43   Atom       -0.004324     -0.001191      0.002199
    44   Atom       -0.001291      0.000003      0.000164
    45   Atom       -0.000670      0.000029      0.004358
    46   Atom       -0.001450      0.000185     -0.000965
 --------------------------------------------------------


 ---------------------------------------------------------------------------------
              Anisotropic Spin Dipole Couplings in Principal Axis System
 ---------------------------------------------------------------------------------

       Atom             a.u.   MegaHertz   Gauss  10(-4) cm-1        Axes

              Baa    -0.0071    -0.958    -0.342    -0.319  0.1446  0.9121 -0.3836
     1 C(13)  Bbb    -0.0047    -0.635    -0.226    -0.212  0.0208  0.3848  0.9228
              Bcc     0.0119     1.592     0.568     0.531  0.9893 -0.1414  0.0366
 
              Baa    -0.0152    -2.037    -0.727    -0.680 -0.1402  0.7209  0.6787
     2 C(13)  Bbb    -0.0091    -1.219    -0.435    -0.407 -0.1946 -0.6922  0.6950
              Bcc     0.0243     3.256     1.162     1.086  0.9708 -0.0347  0.2373
 
              Baa    -0.0106    -1.423    -0.508    -0.475 -0.2729  0.9038  0.3298
     3 C(13)  Bbb    -0.0098    -1.322    -0.472    -0.441 -0.3390 -0.4111  0.8462
              Bcc     0.0205     2.744     0.979     0.915  0.9004  0.1191  0.4185
 
              Baa    -0.0048    -0.645    -0.230    -0.215 -0.3966  0.7452  0.5361
     4 C(13)  Bbb    -0.0044    -0.594    -0.212    -0.198 -0.3085 -0.6582  0.6867
              Bcc     0.0092     1.240     0.442     0.414  0.8646  0.1070  0.4909
 
              Baa    -0.0030    -0.405    -0.144    -0.135 -0.3147  0.5862  0.7465
     5 C(13)  Bbb    -0.0024    -0.319    -0.114    -0.106  0.2167  0.8101 -0.5447
              Bcc     0.0054     0.724     0.258     0.241  0.9241  0.0097  0.3820
 
              Baa    -0.0035    -0.464    -0.165    -0.155 -0.1749  0.4057  0.8971
     6 C(13)  Bbb    -0.0021    -0.276    -0.099    -0.092  0.1308  0.9127 -0.3872
              Bcc     0.0055     0.740     0.264     0.247  0.9759 -0.0496  0.2127
 
              Baa    -0.0344    -4.620    -1.648    -1.541  0.2057  0.0906  0.9744
     7 C(13)  Bbb    -0.0275    -3.687    -1.316    -1.230  0.2734  0.9507 -0.1461
              Bcc     0.0619     8.307     2.964     2.771  0.9397 -0.2964 -0.1708
 
              Baa    -0.0160    -2.149    -0.767    -0.717  0.2476 -0.6560  0.7130
     8 C(13)  Bbb    -0.0118    -1.584    -0.565    -0.528  0.6667  0.6493  0.3658
              Bcc     0.0278     3.733     1.332     1.245  0.7029 -0.3848 -0.5982
 
              Baa    -0.0066    -0.884    -0.316    -0.295  0.6377  0.1495  0.7556
     9 C(13)  Bbb    -0.0025    -0.333    -0.119    -0.111 -0.0880  0.9887 -0.1214
              Bcc     0.0091     1.218     0.434     0.406  0.7652 -0.0109 -0.6436
 
              Baa    -0.0056    -0.746    -0.266    -0.249  0.6882 -0.0645  0.7226
    10 C(13)  Bbb    -0.0041    -0.553    -0.197    -0.185 -0.1032  0.9772  0.1855
              Bcc     0.0097     1.299     0.463     0.433  0.7181  0.2022 -0.6659
 
              Baa    -0.0223    -2.986    -1.065    -0.996  0.3104  0.4529  0.8358
    11 C(13)  Bbb    -0.0160    -2.148    -0.766    -0.717  0.8044 -0.5937  0.0229
              Bcc     0.0383     5.134     1.832     1.712  0.5065  0.6652 -0.5486
 
              Baa    -0.0223    -2.987    -1.066    -0.996  0.1873  0.4497  0.8733
    12 C(13)  Bbb    -0.0169    -2.262    -0.807    -0.755  0.8609 -0.5033  0.0745
              Bcc     0.0391     5.249     1.873     1.751  0.4731  0.7379 -0.4814
 
              Baa    -0.0131    -1.758    -0.627    -0.586  0.1443  0.6261  0.7663
    13 C(13)  Bbb    -0.0118    -1.578    -0.563    -0.526  0.9059 -0.3952  0.1523
              Bcc     0.0249     3.335     1.190     1.113  0.3982  0.6721 -0.6242
 
              Baa    -0.2144    15.516     5.536     5.175 -0.4734  0.8796 -0.0461
    14 O(17)  Bbb     0.0320    -2.317    -0.827    -0.773 -0.3092 -0.1169  0.9438
              Bcc     0.1824   -13.199    -4.710    -4.403  0.8248  0.4611  0.3273
 
              Baa    -0.1290    -2.233    -0.797    -0.745  0.3234 -0.1013  0.9408
    15 Fe(57) Bbb    -0.0359    -0.622    -0.222    -0.207 -0.3155  0.9258  0.2082
              Bcc     0.1649     2.855     1.019     0.952  0.8921  0.3641 -0.2675
 
              Baa    -0.1460    -7.643    -2.727    -2.549  0.5891  0.6249 -0.5123
    16 Cl(35) Bbb    -0.1298    -6.792    -2.423    -2.265  0.7184 -0.6953 -0.0220
              Bcc     0.2758    14.435     5.151     4.815  0.3700  0.3551  0.8585
 
              Baa    -0.0084    -1.121    -0.400    -0.374  0.4624 -0.2990  0.8348
    17 C(13)  Bbb    -0.0075    -1.006    -0.359    -0.335 -0.5883  0.6010  0.5411
              Bcc     0.0158     2.127     0.759     0.709  0.6634  0.7412 -0.1020
 
              Baa    -0.1462    -7.651    -2.730    -2.552  0.5297  0.7031  0.4744
    18 Cl(35) Bbb    -0.1339    -7.006    -2.500    -2.337  0.8304 -0.3159 -0.4590
              Bcc     0.2800    14.657     5.230     4.889  0.1729 -0.6371  0.7511
 
              Baa    -0.1563    -8.178    -2.918    -2.728 -0.6015 -0.3821  0.7015
    19 Cl(35) Bbb    -0.1454    -7.608    -2.715    -2.538  0.7473  0.0412  0.6632
              Bcc     0.3016    15.786     5.633     5.266 -0.2823  0.9232  0.2608
 
              Baa    -0.0188   -10.012    -3.572    -3.340 -0.3631  0.9291  0.0702
    20 H(1)   Bbb    -0.0171    -9.137    -3.260    -3.048 -0.4798 -0.2510  0.8407
              Bcc     0.0359    19.149     6.833     6.387  0.7987  0.2716  0.5369
 
              Baa    -0.0039    -2.071    -0.739    -0.691 -0.4433  0.8411  0.3098
    21 H(1)   Bbb    -0.0038    -2.013    -0.718    -0.672 -0.4760 -0.5138  0.7138
              Bcc     0.0077     4.084     1.457     1.362  0.7595  0.1690  0.6281
 
              Baa    -0.0019    -0.994    -0.355    -0.331 -0.1299  0.9578  0.2564
    22 H(1)   Bbb    -0.0018    -0.957    -0.342    -0.319 -0.4305 -0.2874  0.8556
              Bcc     0.0037     1.951     0.696     0.651  0.8932  0.0008  0.4497
 
              Baa    -0.0019    -0.998    -0.356    -0.333 -0.0621  0.3851  0.9208
    23 H(1)   Bbb    -0.0018    -0.980    -0.350    -0.327  0.1928  0.9098 -0.3675
              Bcc     0.0037     1.978     0.706     0.660  0.9793 -0.1547  0.1308
 
              Baa    -0.0040    -2.113    -0.754    -0.705  0.2470  0.7497  0.6140
    24 H(1)   Bbb    -0.0038    -2.017    -0.720    -0.673 -0.0242 -0.6286  0.7773
              Bcc     0.0077     4.129     1.473     1.377  0.9687 -0.2069 -0.1372
 
              Baa    -0.0196   -10.462    -3.733    -3.490 -0.1493  0.8635 -0.4818
    25 H(1)   Bbb    -0.0159    -8.477    -3.025    -2.828  0.7739  0.4053  0.4866
              Bcc     0.0355    18.939     6.758     6.317 -0.6155  0.3002  0.7288
 
              Baa    -0.0089    -1.197    -0.427    -0.399  0.5221  0.1746  0.8348
    26 C(13)  Bbb    -0.0076    -1.021    -0.364    -0.341  0.4416  0.7820 -0.4397
              Bcc     0.0165     2.218     0.792     0.740  0.7296 -0.5983 -0.3312
 
              Baa    -0.0040    -2.141    -0.764    -0.714  0.4377 -0.6325  0.6391
    27 H(1)   Bbb    -0.0036    -1.902    -0.679    -0.635  0.5956  0.7364  0.3208
              Bcc     0.0076     4.043     1.443     1.349 -0.6735  0.2402  0.6990
 
              Baa    -0.0037    -1.984    -0.708    -0.662  0.4784  0.4192  0.7716
    28 H(1)   Bbb    -0.0035    -1.883    -0.672    -0.628 -0.0572  0.8917 -0.4490
              Bcc     0.0072     3.866     1.380     1.290  0.8763 -0.1707 -0.4506
 
              Baa    -0.0056    -2.991    -1.067    -0.998 -0.4984  0.8514 -0.1633
    29 H(1)   Bbb    -0.0047    -2.528    -0.902    -0.843  0.6467  0.4906  0.5840
              Bcc     0.0103     5.518     1.969     1.841 -0.5774 -0.1855  0.7951
 
              Baa    -0.0031    -1.657    -0.591    -0.553 -0.5700  0.6527 -0.4990
    30 H(1)   Bbb    -0.0028    -1.510    -0.539    -0.504  0.3558  0.7435  0.5662
              Bcc     0.0059     3.167     1.130     1.057  0.7406  0.1452 -0.6561
 
              Baa    -0.0064    -3.396    -1.212    -1.133 -0.1312  0.7935  0.5943
    31 H(1)   Bbb    -0.0037    -1.966    -0.701    -0.656  0.3423 -0.5263  0.7783
              Bcc     0.0100     5.361     1.913     1.788  0.9304  0.3055 -0.2026
 
              Baa    -0.0056    -2.980    -1.063    -0.994 -0.5694  0.7284 -0.3810
    32 H(1)   Bbb    -0.0050    -2.674    -0.954    -0.892 -0.2591  0.2809  0.9241
              Bcc     0.0106     5.654     2.017     1.886  0.7801  0.6249  0.0288
 
              Baa    -0.0139    -7.433    -2.652    -2.479  0.3393 -0.3571  0.8703
    33 H(1)   Bbb    -0.0117    -6.234    -2.224    -2.079  0.7170 -0.5007 -0.4850
              Bcc     0.0256    13.667     4.877     4.559  0.6090  0.7885  0.0861
 
              Baa    -0.0054    -2.905    -1.037    -0.969  0.5190 -0.2098  0.8286
    34 H(1)   Bbb    -0.0047    -2.485    -0.887    -0.829  0.6654 -0.5093 -0.5458
              Bcc     0.0101     5.391     1.923     1.798  0.5365  0.8346 -0.1247
 
              Baa    -0.0065    -3.491    -1.246    -1.165  0.0920  0.6265  0.7740
    35 H(1)   Bbb    -0.0059    -3.139    -1.120    -1.047  0.9471 -0.2949  0.1262
              Bcc     0.0124     6.631     2.366     2.212  0.3073  0.7215 -0.6205
 
              Baa    -0.0214   -11.397    -4.067    -3.802  0.6307  0.2881  0.7206
    36 H(1)   Bbb    -0.0192   -10.224    -3.648    -3.410  0.7396 -0.5044 -0.4457
              Bcc     0.0405    21.620     7.715     7.212  0.2350  0.8140 -0.5312
 
              Baa    -0.0133    -7.097    -2.532    -2.367 -0.4426  0.8490  0.2888
    37 H(1)   Bbb    -0.0118    -6.313    -2.252    -2.106  0.8259  0.2604  0.5001
              Bcc     0.0251    13.409     4.785     4.473 -0.3494 -0.4599  0.8164
 
              Baa    -0.0126     0.912     0.325     0.304  0.8317  0.4782  0.2821
    38 O(17)  Bbb    -0.0113     0.817     0.291     0.272 -0.0769 -0.4039  0.9116
              Bcc     0.0239    -1.729    -0.617    -0.577 -0.5499  0.7799  0.2991
 
              Baa    -0.0051     0.370     0.132     0.124  0.5447  0.3006  0.7829
    39 O(17)  Bbb    -0.0025     0.184     0.066     0.061  0.4391  0.6930 -0.5717
              Bcc     0.0077    -0.555    -0.198    -0.185  0.7144 -0.6552 -0.2455
 
              Baa    -0.0061    -0.817    -0.292    -0.273  0.8861  0.4031  0.2288
    40 C(13)  Bbb    -0.0058    -0.781    -0.279    -0.261 -0.1490 -0.2196  0.9641
              Bcc     0.0119     1.598     0.570     0.533 -0.4389  0.8884  0.1345
 
              Baa    -0.0066    -0.881    -0.314    -0.294  0.9846  0.1493  0.0913
    41 C(13)  Bbb    -0.0059    -0.792    -0.283    -0.264 -0.0729 -0.1240  0.9896
              Bcc     0.0125     1.674     0.597     0.558 -0.1591  0.9810  0.1112
 
              Baa    -0.0053    -2.817    -1.005    -0.940  0.7744  0.5092  0.3755
    42 H(1)   Bbb    -0.0050    -2.663    -0.950    -0.888 -0.3380 -0.1687  0.9259
              Bcc     0.0103     5.480     1.955     1.828 -0.5348  0.8440 -0.0415
 
              Baa    -0.0037    -1.963    -0.701    -0.655  0.8878  0.4409  0.1317
    43 H(1)   Bbb    -0.0036    -1.931    -0.689    -0.644 -0.0089 -0.2698  0.9629
              Bcc     0.0073     3.894     1.390     1.299 -0.4601  0.8560  0.2356
 
              Baa    -0.0037    -1.978    -0.706    -0.660  0.9875  0.1202 -0.1024
    44 H(1)   Bbb    -0.0035    -1.862    -0.665    -0.621  0.1034 -0.0028  0.9946
              Bcc     0.0072     3.840     1.370     1.281 -0.1192  0.9928  0.0152
 
              Baa    -0.0062    -3.282    -1.171    -1.095  0.9338  0.1253 -0.3350
    45 H(1)   Bbb    -0.0055    -2.958    -1.055    -0.987  0.3559 -0.2312  0.9055
              Bcc     0.0117     6.240     2.227     2.081 -0.0360  0.9648  0.2605
 
              Baa    -0.0105    -5.593    -1.996    -1.866  0.9955  0.0459 -0.0828
    46 H(1)   Bbb    -0.0088    -4.706    -1.679    -1.570  0.0811  0.0385  0.9960
              Bcc     0.0193    10.299     3.675     3.435 -0.0489  0.9982 -0.0346
 

 ---------------------------------------------------------------------------------

 No NMR shielding tensors so no spin-rotation constants.
 Leave Link  601 at Mon Jun 21 00:34:15 2021, MaxMem=  2147483648 cpu:              78.5 elap:               5.1
 (Enter /SFS/product/gaussian/g16.a03/x86_64/avx/g16/l9999.exe)
 1\1\GINC-KTCHPCPX237\SP\UB3LYP\Jul-CC-pVDZ\C17H22Cl3Fe1O3(6)\KWANEU\21
 -Jun-2021\0\\#p ub3lyp jul-cc-pvdz pop=cm5 scrf=(pcm,solvent=water) gu
 ess=read geom=allcheck\\title\\0,6\C,0,-2.8835532515,-0.7904387665,0.9
 27416607\C,0,-1.7546675194,0.0368658929,0.7526019026\C,0,-1.4044748262
 ,0.9327657517,1.7852243883\C,0,-2.1683516851,1.0102443552,2.9473725238
 \C,0,-3.2942097098,0.1943755414,3.1018302706\C,0,-3.6444766044,-0.7089
 998205,2.091628165\C,0,-0.8816208523,-0.0294009501,-0.4458563048\C,0,-
 0.8744076428,-1.240122079,-1.4061173831\C,0,-2.0870920216,-1.357665084
 1,-2.3434698884\C,0,-2.3282868149,-0.0044119418,-3.0285373244\C,0,-2.3
 43334327,1.082481082,-1.9908845801\C,0,-1.4535198079,2.0970083526,-1.8
 637063544\C,0,-0.288657257,2.3176460811,-2.7840974804\O,0,0.1254196199
 ,0.7417460695,-0.4779903608\Fe,0,2.0742461001,0.8264411245,-0.24180198
 64\Cl,0,2.9834380174,-0.1834532502,-1.9802535426\C,0,-1.649044346,3.16
 33029488,-0.8281185837\Cl,0,2.4938164596,-0.1289888157,1.7012510809\Cl
 ,0,2.5091241456,2.9919887348,-0.1723286019\H,0,-0.5144179811,1.5478847
 785,1.6782364128\H,0,-1.8776148181,1.7010839377,3.739291113\H,0,-3.891
 5403524,0.2530064321,4.0131622033\H,0,-4.5108115517,-1.3597027211,2.21
 45681138\H,0,-3.1623119614,-1.5166039381,0.1704360293\H,0,0.0297761846
 ,-1.0867016883,-2.0088460648\C,0,-0.6532389882,-2.5438254267,-0.617614
 6162\H,0,-1.8850344766,-2.1472543735,-3.0803810054\H,0,-2.9759853124,-
 1.6780016511,-1.7889188935\H,0,-1.5520051946,0.1764318797,-3.782411748
 2\H,0,-3.2896781847,-0.0304093553,-3.5638606919\H,0,-3.2095802658,1.08
 70220817,-1.3259572627\H,0,-2.5410533648,2.9955143614,-0.2134061324\H,
 0,-0.7633099871,3.2394500162,-0.1800266332\H,0,-1.7481902709,4.1417879
 313,-1.3253559436\H,0,-0.5815383141,3.0654500043,-3.5405597255\H,0,0.5
 680903909,2.7367730484,-2.2425667151\H,0,0.0383012164,1.4180376828,-3.
 3138774583\O,0,0.6307512508,-2.6721522501,-0.2745565005\O,0,-1.5242927
 652,-3.3501395497,-0.36772664\C,0,0.9968194054,-3.8682752374,0.4800354
 033\C,0,2.5084591912,-3.9318625428,0.5369808453\H,0,0.543324998,-3.782
 5157956,1.4770307725\H,0,0.5549128576,-4.7363961789,-0.0254039612\H,0,
 2.8078565734,-4.8196817094,1.1127310193\H,0,2.9361173756,-4.011003058,
 -0.4717240804\H,0,2.9212636687,-3.0396039047,1.0240876132\\Version=ES6
 4L-G16RevA.03\State=6-A\HF=-3531.4533385\S2=8.761762\S2-1=0.\S2A=8.750
 043\RMSD=6.488e-09\Dipole=-4.1895254,-0.5038972,-0.3004881\Quadrupole=
 -6.6163845,-1.0488267,7.6652113,-12.8051042,-1.6966184,-1.4461067\PG=C
 01 [X(C17H22Cl3Fe1O3)]\\@


 Once you get people laughing, they're
 listening and you can tell them almost anything.
                                 -- Herb Gardner
 Job cpu time:       0 days  4 hours 56 minutes 33.3 seconds.
 Elapsed time:       0 days  0 hours 18 minutes 36.9 seconds.
 File lengths (MBytes):  RWF=    666 Int=      0 D2E=      0 Chk=     57 Scr=      1
 Normal termination of Gaussian 16 at Mon Jun 21 00:34:15 2021.
