 Entering Gaussian System, Link 0=g16
 Input=prenyl-first_betaine_grid-CC_160_CO_230-b3lyp_d3bj-juldz-gas.gjf
 Output=prenyl-first_betaine_grid-CC_160_CO_230-b3lyp_d3bj-juldz-gas.out
 Initial command:
 /SFS/product/gaussian/g16.a03/x86_64/avx/g16/l1.exe "/scratch/kwaneu.2874217.bmbhpcps002/Gau-26126.inp" -scrdir="/scratch/kwaneu.2874217.bmbhpcps002/"
 Entering Link 1 = /SFS/product/gaussian/g16.a03/x86_64/avx/g16/l1.exe PID=     26127.
  
 Copyright (c) 1988,1990,1992,1993,1995,1998,2003,2009,2016,
            Gaussian, Inc.  All Rights Reserved.
  
 This is part of the Gaussian(R) 16 program.  It is based on
 the Gaussian(R) 09 system (copyright 2009, Gaussian, Inc.),
 the Gaussian(R) 03 system (copyright 2003, Gaussian, Inc.),
 the Gaussian(R) 98 system (copyright 1998, Gaussian, Inc.),
 the Gaussian(R) 94 system (copyright 1995, Gaussian, Inc.),
 the Gaussian 92(TM) system (copyright 1992, Gaussian, Inc.),
 the Gaussian 90(TM) system (copyright 1990, Gaussian, Inc.),
 the Gaussian 88(TM) system (copyright 1988, Gaussian, Inc.),
 the Gaussian 86(TM) system (copyright 1986, Carnegie Mellon
 University), and the Gaussian 82(TM) system (copyright 1983,
 Carnegie Mellon University). Gaussian is a federally registered
 trademark of Gaussian, Inc.
  
 This software contains proprietary and confidential information,
 including trade secrets, belonging to Gaussian, Inc.
  
 This software is provided under written license and may be
 used, copied, transmitted, or stored only in accord with that
 written license.
  
 The following legend is applicable only to US Government
 contracts under FAR:
  
                    RESTRICTED RIGHTS LEGEND
  
 Use, reproduction and disclosure by the US Government is
 subject to restrictions as set forth in subparagraphs (a)
 and (c) of the Commercial Computer Software - Restricted
 Rights clause in FAR 52.227-19.
  
 Gaussian, Inc.
 340 Quinnipiac St., Bldg. 40, Wallingford CT 06492
  
  
 ---------------------------------------------------------------
 Warning -- This program may not be used in any manner that
 competes with the business of Gaussian, Inc. or will provide
 assistance to any competitor of Gaussian, Inc.  The licensee
 of this program is prohibited from giving any competitor of
 Gaussian, Inc. access to this program.  By using this program,
 the user acknowledges that Gaussian, Inc. is engaged in the
 business of creating and licensing software in the field of
 computational chemistry and represents and warrants to the
 licensee that it is not a competitor of Gaussian, Inc. and that
 it will not use this program in any manner prohibited above.
 ---------------------------------------------------------------
  

 Cite this work as:
 Gaussian 16, Revision A.03,
 M. J. Frisch, G. W. Trucks, H. B. Schlegel, G. E. Scuseria, 
 M. A. Robb, J. R. Cheeseman, G. Scalmani, V. Barone, 
 G. A. Petersson, H. Nakatsuji, X. Li, M. Caricato, A. V. Marenich, 
 J. Bloino, B. G. Janesko, R. Gomperts, B. Mennucci, H. P. Hratchian, 
 J. V. Ortiz, A. F. Izmaylov, J. L. Sonnenberg, D. Williams-Young, 
 F. Ding, F. Lipparini, F. Egidi, J. Goings, B. Peng, A. Petrone, 
 T. Henderson, D. Ranasinghe, V. G. Zakrzewski, J. Gao, N. Rega, 
 G. Zheng, W. Liang, M. Hada, M. Ehara, K. Toyota, R. Fukuda, 
 J. Hasegawa, M. Ishida, T. Nakajima, Y. Honda, O. Kitao, H. Nakai, 
 T. Vreven, K. Throssell, J. A. Montgomery, Jr., J. E. Peralta, 
 F. Ogliaro, M. J. Bearpark, J. J. Heyd, E. N. Brothers, K. N. Kudin, 
 V. N. Staroverov, T. A. Keith, R. Kobayashi, J. Normand, 
 K. Raghavachari, A. P. Rendell, J. C. Burant, S. S. Iyengar, 
 J. Tomasi, M. Cossi, J. M. Millam, M. Klene, C. Adamo, R. Cammi, 
 J. W. Ochterski, R. L. Martin, K. Morokuma, O. Farkas, 
 J. B. Foresman, and D. J. Fox, Gaussian, Inc., Wallingford CT, 2016.
 
 ******************************************
 Gaussian 16:  ES64L-G16RevA.03 25-Dec-2016
                19-Jun-2021 
 ******************************************
 %chk=checkpoint.chk
 %nprocshared=16
 Will use up to   16 processors via shared memory.
 %mem=16GB
 -----------------------------------------------------------
 #p opt=modredundant freq=noraman ub3lyp jul-cc-pvdz pop=cm5
 -----------------------------------------------------------
 1/18=120,19=15,26=3,38=1/1,3;
 2/9=110,12=2,17=6,18=5,40=1/2;
 3/5=16,7=50,11=2,25=1,30=1,71=1,74=-5,116=2/1,2,3;
 4//1;
 5/5=2,38=5/2;
 6/7=2,8=2,9=2,10=2,28=1,79=1/1;
 7//1,2,3,16;
 1/18=20,19=15,26=3/3(2);
 2/9=110/2;
 99//99;
 2/9=110/2;
 3/5=16,7=50,11=2,25=1,30=1,71=1,74=-5,116=2/1,2,3;
 4/5=5,16=3,69=1/1;
 5/5=2,38=5/2;
 7//1,2,3,16;
 1/18=20,19=15,26=3/3(-5);
 2/9=110/2;
 6/7=2,8=2,9=2,10=2,19=2,28=1,79=1/1;
 99/9=1/99;
 Leave Link    1 at Sat Jun 19 21:34:34 2021, MaxMem=  2147483648 cpu:               1.9 elap:               0.2
 (Enter /SFS/product/gaussian/g16.a03/x86_64/avx/g16/l101.exe)
 -----
 title
 -----
 Symbolic Z-matrix:
 Charge =  0 Multiplicity = 6
 6                     2.25688  -1.69303   1.60831 
 6                     1.40055  -0.74138   1.03625 
 6                     1.28217   0.509     1.65871 
 6                     1.98996   0.79276   2.8259 
 6                     2.83285  -0.16434   3.39111 
 6                     2.96635  -1.40805   2.77557 
 6                     0.65815  -1.00163  -0.27277 
 6                     1.54079  -0.66547  -1.53872 
 6                     2.34966  -1.93616  -1.80594 
 6                     1.37427  -3.10174  -1.52215 
 6                     0.33611  -2.55114  -0.50794 
 6                    -1.09363  -2.50148  -0.9581 
 6                    -1.51012  -2.25716  -2.34914 
 8                    -0.59608  -0.34007  -0.34923 
 26                   -1.95637   0.71083   0.356 
 17                   -3.6166    0.35756  -1.11443 
 6                    -2.13611  -2.89709   0.0067 
 17                   -1.47236   2.85727   0.51374 
 17                   -2.52315  -0.15746   2.32455 
 1                     0.64056   1.27175   1.23362 
 1                     1.87217   1.76559   3.29445 
 1                     3.37896   0.05612   4.30395 
 1                     3.62014  -2.16344   3.20281 
 1                     2.3844   -2.67095   1.15228 
 1                     0.83212  -0.4683   -2.34975 
 6                     2.41415   0.57245  -1.38572 
 1                     2.74892  -1.96501  -2.82419 
 1                     3.20643  -1.9622   -1.12686 
 1                     0.88921  -3.43636  -2.44498 
 1                     1.8856   -3.97666  -1.10922 
 1                     0.36939  -3.07855   0.44759 
 1                    -2.07111  -3.99838   0.07751 
 1                    -1.9293   -2.50929   1.01043 
 1                    -3.14345  -2.61859  -0.30832 
 1                    -2.03771  -3.1539   -2.71149 
 1                    -2.2666   -1.45561  -2.33704 
 1                    -0.69958  -2.00771  -3.03149 
 8                     1.6972    1.68925  -1.58603 
 8                     3.59869   0.54929  -1.12685 
 6                     2.40497   2.94879  -1.43155 
 6                     1.47412   4.05518  -1.88686 
 1                     2.68674   3.05222  -0.37888 
 1                     3.32445   2.90277  -2.0226 
 1                     1.96971   5.0246   -1.76355 
 1                     1.21256   3.93511  -2.94332 
 1                     0.55268   4.05535  -1.29776 
 
 The following ModRedundant input section has been read:
 B       7      11 F                                                           
 B      12      14 F                                                           
 
 ITRead=  0  0  0  0  0  0  0  0  0  0  0  0  0  0  0  0  0  0  0  0
 ITRead=  0  0  0  0  0  0  0  0  0  0  0  0  0  0  0  0  0  0  0  0
 ITRead=  0  0  0  0  0  0
 MicOpt= -1 -1 -1 -1 -1 -1 -1 -1 -1 -1 -1 -1 -1 -1 -1 -1 -1 -1 -1 -1
 MicOpt= -1 -1 -1 -1 -1 -1 -1 -1 -1 -1 -1 -1 -1 -1 -1 -1 -1 -1 -1 -1
 MicOpt= -1 -1 -1 -1 -1 -1
 NAtoms=     46 NQM=       46 NQMF=       0 NMMI=      0 NMMIF=      0
                NMic=       0 NMicF=      0.
                    Isotopes and Nuclear Properties:
 (Nuclear quadrupole moments (NQMom) in fm**2, nuclear magnetic moments (NMagM)
  in nuclear magnetons)

  Atom         1           2           3           4           5           6           7           8           9          10
 IAtWgt=          12          12          12          12          12          12          12          12          12          12
 AtmWgt=  12.0000000  12.0000000  12.0000000  12.0000000  12.0000000  12.0000000  12.0000000  12.0000000  12.0000000  12.0000000
 NucSpn=           0           0           0           0           0           0           0           0           0           0
 AtZEff=  -0.0000000  -0.0000000  -0.0000000  -0.0000000  -0.0000000  -0.0000000  -0.0000000  -0.0000000  -0.0000000  -0.0000000
 NQMom=    0.0000000   0.0000000   0.0000000   0.0000000   0.0000000   0.0000000   0.0000000   0.0000000   0.0000000   0.0000000
 NMagM=    0.0000000   0.0000000   0.0000000   0.0000000   0.0000000   0.0000000   0.0000000   0.0000000   0.0000000   0.0000000
 AtZNuc=   6.0000000   6.0000000   6.0000000   6.0000000   6.0000000   6.0000000   6.0000000   6.0000000   6.0000000   6.0000000

  Atom        11          12          13          14          15          16          17          18          19          20
 IAtWgt=          12          12          12          16          56          35          12          35          35           1
 AtmWgt=  12.0000000  12.0000000  12.0000000  15.9949146  55.9349393  34.9688527  12.0000000  34.9688527  34.9688527   1.0078250
 NucSpn=           0           0           0           0           0           3           0           3           3           1
 AtZEff=  -0.0000000  -0.0000000  -0.0000000  -0.0000000  -0.0000000  -0.0000000  -0.0000000  -0.0000000  -0.0000000  -0.0000000
 NQMom=    0.0000000   0.0000000   0.0000000   0.0000000   0.0000000  -8.1650000   0.0000000  -8.1650000  -8.1650000   0.0000000
 NMagM=    0.0000000   0.0000000   0.0000000   0.0000000   0.0000000   0.8218740   0.0000000   0.8218740   0.8218740   2.7928460
 AtZNuc=   6.0000000   6.0000000   6.0000000   8.0000000  26.0000000  17.0000000   6.0000000  17.0000000  17.0000000   1.0000000

  Atom        21          22          23          24          25          26          27          28          29          30
 IAtWgt=           1           1           1           1           1          12           1           1           1           1
 AtmWgt=   1.0078250   1.0078250   1.0078250   1.0078250   1.0078250  12.0000000   1.0078250   1.0078250   1.0078250   1.0078250
 NucSpn=           1           1           1           1           1           0           1           1           1           1
 AtZEff=  -0.0000000  -0.0000000  -0.0000000  -0.0000000  -0.0000000  -0.0000000  -0.0000000  -0.0000000  -0.0000000  -0.0000000
 NQMom=    0.0000000   0.0000000   0.0000000   0.0000000   0.0000000   0.0000000   0.0000000   0.0000000   0.0000000   0.0000000
 NMagM=    2.7928460   2.7928460   2.7928460   2.7928460   2.7928460   0.0000000   2.7928460   2.7928460   2.7928460   2.7928460
 AtZNuc=   1.0000000   1.0000000   1.0000000   1.0000000   1.0000000   6.0000000   1.0000000   1.0000000   1.0000000   1.0000000

  Atom        31          32          33          34          35          36          37          38          39          40
 IAtWgt=           1           1           1           1           1           1           1          16          16          12
 AtmWgt=   1.0078250   1.0078250   1.0078250   1.0078250   1.0078250   1.0078250   1.0078250  15.9949146  15.9949146  12.0000000
 NucSpn=           1           1           1           1           1           1           1           0           0           0
 AtZEff=  -0.0000000  -0.0000000  -0.0000000  -0.0000000  -0.0000000  -0.0000000  -0.0000000  -0.0000000  -0.0000000  -0.0000000
 NQMom=    0.0000000   0.0000000   0.0000000   0.0000000   0.0000000   0.0000000   0.0000000   0.0000000   0.0000000   0.0000000
 NMagM=    2.7928460   2.7928460   2.7928460   2.7928460   2.7928460   2.7928460   2.7928460   0.0000000   0.0000000   0.0000000
 AtZNuc=   1.0000000   1.0000000   1.0000000   1.0000000   1.0000000   1.0000000   1.0000000   8.0000000   8.0000000   6.0000000

  Atom        41          42          43          44          45          46
 IAtWgt=          12           1           1           1           1           1
 AtmWgt=  12.0000000   1.0078250   1.0078250   1.0078250   1.0078250   1.0078250
 NucSpn=           0           1           1           1           1           1
 AtZEff=  -0.0000000  -0.0000000  -0.0000000  -0.0000000  -0.0000000  -0.0000000
 NQMom=    0.0000000   0.0000000   0.0000000   0.0000000   0.0000000   0.0000000
 NMagM=    0.0000000   2.7928460   2.7928460   2.7928460   2.7928460   2.7928460
 AtZNuc=   6.0000000   1.0000000   1.0000000   1.0000000   1.0000000   1.0000000
 Leave Link  101 at Sat Jun 19 21:34:34 2021, MaxMem=  2147483648 cpu:               6.4 elap:               0.5
 (Enter /SFS/product/gaussian/g16.a03/x86_64/avx/g16/l103.exe)

 GradGradGradGradGradGradGradGradGradGradGradGradGradGradGradGradGradGrad
 Berny optimization.
 Initialization pass.
                           ----------------------------
                           !    Initial Parameters    !
                           ! (Angstroms and Degrees)  !
 --------------------------                            --------------------------
 ! Name  Definition              Value          Derivative Info.                !
 --------------------------------------------------------------------------------
 ! R1    R(1,2)                  1.4022         estimate D2E/DX2                !
 ! R2    R(1,6)                  1.3954         estimate D2E/DX2                !
 ! R3    R(1,24)                 1.0865         estimate D2E/DX2                !
 ! R4    R(2,3)                  1.4018         estimate D2E/DX2                !
 ! R5    R(2,7)                  1.5272         estimate D2E/DX2                !
 ! R6    R(3,4)                  1.3942         estimate D2E/DX2                !
 ! R7    R(3,20)                 1.0836         estimate D2E/DX2                !
 ! R8    R(4,5)                  1.395          estimate D2E/DX2                !
 ! R9    R(4,21)                 1.0862         estimate D2E/DX2                !
 ! R10   R(5,6)                  1.3941         estimate D2E/DX2                !
 ! R11   R(5,22)                 1.0863         estimate D2E/DX2                !
 ! R12   R(6,23)                 1.0865         estimate D2E/DX2                !
 ! R13   R(7,8)                  1.5795         estimate D2E/DX2                !
 ! R14   R(7,11)                 1.6            Frozen                          !
 ! R15   R(7,14)                 1.4201         estimate D2E/DX2                !
 ! R16   R(8,9)                  1.5298         estimate D2E/DX2                !
 ! R17   R(8,25)                 1.0949         estimate D2E/DX2                !
 ! R18   R(8,26)                 1.5227         estimate D2E/DX2                !
 ! R19   R(9,10)                 1.5461         estimate D2E/DX2                !
 ! R20   R(9,27)                 1.0941         estimate D2E/DX2                !
 ! R21   R(9,28)                 1.0936         estimate D2E/DX2                !
 ! R22   R(10,11)                1.5523         estimate D2E/DX2                !
 ! R23   R(10,29)                1.0949         estimate D2E/DX2                !
 ! R24   R(10,30)                1.0943         estimate D2E/DX2                !
 ! R25   R(11,12)                1.4998         estimate D2E/DX2                !
 ! R26   R(11,31)                1.0919         estimate D2E/DX2                !
 ! R27   R(12,13)                1.4725         estimate D2E/DX2                !
 ! R28   R(12,14)                2.3            Frozen                          !
 ! R29   R(12,17)                1.4745         estimate D2E/DX2                !
 ! R30   R(13,35)                1.1017         estimate D2E/DX2                !
 ! R31   R(13,36)                1.1022         estimate D2E/DX2                !
 ! R32   R(13,37)                1.0885         estimate D2E/DX2                !
 ! R33   R(14,15)                1.858          estimate D2E/DX2                !
 ! R34   R(15,16)                2.2457         estimate D2E/DX2                !
 ! R35   R(15,18)                2.206          estimate D2E/DX2                !
 ! R36   R(15,19)                2.2249         estimate D2E/DX2                !
 ! R37   R(17,32)                1.1055         estimate D2E/DX2                !
 ! R38   R(17,33)                1.0957         estimate D2E/DX2                !
 ! R39   R(17,34)                1.0916         estimate D2E/DX2                !
 ! R40   R(26,38)                1.3422         estimate D2E/DX2                !
 ! R41   R(26,39)                1.2127         estimate D2E/DX2                !
 ! R42   R(38,40)                1.453          estimate D2E/DX2                !
 ! R43   R(40,41)                1.5159         estimate D2E/DX2                !
 ! R44   R(40,42)                1.0946         estimate D2E/DX2                !
 ! R45   R(40,43)                1.094          estimate D2E/DX2                !
 ! R46   R(41,44)                1.0957         estimate D2E/DX2                !
 ! R47   R(41,45)                1.095          estimate D2E/DX2                !
 ! R48   R(41,46)                1.0937         estimate D2E/DX2                !
 ! A1    A(2,1,6)              120.8755         estimate D2E/DX2                !
 ! A2    A(2,1,24)             120.7495         estimate D2E/DX2                !
 ! A3    A(6,1,24)             118.375          estimate D2E/DX2                !
 ! A4    A(1,2,3)              118.4116         estimate D2E/DX2                !
 ! A5    A(1,2,7)              122.0662         estimate D2E/DX2                !
 ! A6    A(3,2,7)              119.4431         estimate D2E/DX2                !
 ! A7    A(2,3,4)              120.6921         estimate D2E/DX2                !
 ! A8    A(2,3,20)             120.2451         estimate D2E/DX2                !
 ! A9    A(4,3,20)             119.062          estimate D2E/DX2                !
 ! A10   A(3,4,5)              120.4183         estimate D2E/DX2                !
 ! A11   A(3,4,21)             119.2328         estimate D2E/DX2                !
 ! A12   A(5,4,21)             120.3474         estimate D2E/DX2                !
 ! A13   A(4,5,6)              119.4095         estimate D2E/DX2                !
 ! A14   A(4,5,22)             120.3302         estimate D2E/DX2                !
 ! A15   A(6,5,22)             120.2602         estimate D2E/DX2                !
 ! A16   A(1,6,5)              120.1898         estimate D2E/DX2                !
 ! A17   A(1,6,23)             119.5301         estimate D2E/DX2                !
 ! A18   A(5,6,23)             120.2797         estimate D2E/DX2                !
 ! A19   A(2,7,8)              112.2761         estimate D2E/DX2                !
 ! A20   A(2,7,11)             112.883          estimate D2E/DX2                !
 ! A21   A(2,7,14)             113.3349         estimate D2E/DX2                !
 ! A22   A(8,7,11)             101.5829         estimate D2E/DX2                !
 ! A23   A(8,7,14)             110.5643         estimate D2E/DX2                !
 ! A24   A(11,7,14)            105.3957         estimate D2E/DX2                !
 ! A25   A(7,8,9)              104.9926         estimate D2E/DX2                !
 ! A26   A(7,8,25)             105.6841         estimate D2E/DX2                !
 ! A27   A(7,8,26)             114.3943         estimate D2E/DX2                !
 ! A28   A(9,8,25)             111.248          estimate D2E/DX2                !
 ! A29   A(9,8,26)             112.9272         estimate D2E/DX2                !
 ! A30   A(25,8,26)            107.4126         estimate D2E/DX2                !
 ! A31   A(8,9,10)             105.1032         estimate D2E/DX2                !
 ! A32   A(8,9,27)             112.1737         estimate D2E/DX2                !
 ! A33   A(8,9,28)             108.9997         estimate D2E/DX2                !
 ! A34   A(10,9,27)            112.405          estimate D2E/DX2                !
 ! A35   A(10,9,28)            111.2429         estimate D2E/DX2                !
 ! A36   A(27,9,28)            106.9415         estimate D2E/DX2                !
 ! A37   A(9,10,11)            105.9285         estimate D2E/DX2                !
 ! A38   A(9,10,29)            110.8033         estimate D2E/DX2                !
 ! A39   A(9,10,30)            112.1617         estimate D2E/DX2                !
 ! A40   A(11,10,29)           111.272          estimate D2E/DX2                !
 ! A41   A(11,10,30)           110.4606         estimate D2E/DX2                !
 ! A42   A(29,10,30)           106.3027         estimate D2E/DX2                !
 ! A43   A(7,11,10)            107.7543         estimate D2E/DX2                !
 ! A44   A(7,11,12)            101.7667         estimate D2E/DX2                !
 ! A45   A(7,11,31)            109.4517         estimate D2E/DX2                !
 ! A46   A(10,11,12)           116.9496         estimate D2E/DX2                !
 ! A47   A(10,11,31)           112.3365         estimate D2E/DX2                !
 ! A48   A(12,11,31)           107.9212         estimate D2E/DX2                !
 ! A49   A(11,12,13)           123.9657         estimate D2E/DX2                !
 ! A50   A(11,12,17)           117.9513         estimate D2E/DX2                !
 ! A51   A(13,12,17)           117.5608         estimate D2E/DX2                !
 ! A52   A(12,13,35)           108.1257         estimate D2E/DX2                !
 ! A53   A(12,13,36)           107.7235         estimate D2E/DX2                !
 ! A54   A(12,13,37)           114.8104         estimate D2E/DX2                !
 ! A55   A(35,13,36)           105.4774         estimate D2E/DX2                !
 ! A56   A(35,13,37)           109.6914         estimate D2E/DX2                !
 ! A57   A(36,13,37)           110.5662         estimate D2E/DX2                !
 ! A58   A(7,14,15)            152.8346         estimate D2E/DX2                !
 ! A59   A(14,15,16)           101.7562         estimate D2E/DX2                !
 ! A60   A(14,15,18)           114.6359         estimate D2E/DX2                !
 ! A61   A(14,15,19)           107.5534         estimate D2E/DX2                !
 ! A62   A(16,15,18)           111.2283         estimate D2E/DX2                !
 ! A63   A(16,15,19)           109.2446         estimate D2E/DX2                !
 ! A64   A(18,15,19)           111.8604         estimate D2E/DX2                !
 ! A65   A(12,17,32)           105.523          estimate D2E/DX2                !
 ! A66   A(12,17,33)           111.7769         estimate D2E/DX2                !
 ! A67   A(12,17,34)           113.2761         estimate D2E/DX2                !
 ! A68   A(32,17,33)           106.4277         estimate D2E/DX2                !
 ! A69   A(32,17,34)           109.0816         estimate D2E/DX2                !
 ! A70   A(33,17,34)           110.3798         estimate D2E/DX2                !
 ! A71   A(8,26,38)            110.7993         estimate D2E/DX2                !
 ! A72   A(8,26,39)            124.4825         estimate D2E/DX2                !
 ! A73   A(38,26,39)           124.7164         estimate D2E/DX2                !
 ! A74   A(26,38,40)           116.438          estimate D2E/DX2                !
 ! A75   A(38,40,41)           107.5555         estimate D2E/DX2                !
 ! A76   A(38,40,42)           108.0307         estimate D2E/DX2                !
 ! A77   A(38,40,43)           108.3904         estimate D2E/DX2                !
 ! A78   A(41,40,42)           112.2068         estimate D2E/DX2                !
 ! A79   A(41,40,43)           112.6146         estimate D2E/DX2                !
 ! A80   A(42,40,43)           107.8895         estimate D2E/DX2                !
 ! A81   A(40,41,44)           109.5236         estimate D2E/DX2                !
 ! A82   A(40,41,45)           110.8823         estimate D2E/DX2                !
 ! A83   A(40,41,46)           110.8365         estimate D2E/DX2                !
 ! A84   A(44,41,45)           108.2785         estimate D2E/DX2                !
 ! A85   A(44,41,46)           108.6817         estimate D2E/DX2                !
 ! A86   A(45,41,46)           108.5707         estimate D2E/DX2                !
 ! D1    D(6,1,2,3)              0.537          estimate D2E/DX2                !
 ! D2    D(6,1,2,7)            177.2833         estimate D2E/DX2                !
 ! D3    D(24,1,2,3)          -179.4258         estimate D2E/DX2                !
 ! D4    D(24,1,2,7)            -2.6796         estimate D2E/DX2                !
 ! D5    D(2,1,6,5)             -0.072          estimate D2E/DX2                !
 ! D6    D(2,1,6,23)           179.6984         estimate D2E/DX2                !
 ! D7    D(24,1,6,5)           179.8917         estimate D2E/DX2                !
 ! D8    D(24,1,6,23)           -0.3379         estimate D2E/DX2                !
 ! D9    D(1,2,3,4)             -0.6156         estimate D2E/DX2                !
 ! D10   D(1,2,3,20)           179.0623         estimate D2E/DX2                !
 ! D11   D(7,2,3,4)           -177.4494         estimate D2E/DX2                !
 ! D12   D(7,2,3,20)             2.2285         estimate D2E/DX2                !
 ! D13   D(1,2,7,8)            -84.799          estimate D2E/DX2                !
 ! D14   D(1,2,7,11)            29.306          estimate D2E/DX2                !
 ! D15   D(1,2,7,14)           149.0356         estimate D2E/DX2                !
 ! D16   D(3,2,7,8)             91.9147         estimate D2E/DX2                !
 ! D17   D(3,2,7,11)          -153.9803         estimate D2E/DX2                !
 ! D18   D(3,2,7,14)           -34.2507         estimate D2E/DX2                !
 ! D19   D(2,3,4,5)              0.2315         estimate D2E/DX2                !
 ! D20   D(2,3,4,21)          -179.3349         estimate D2E/DX2                !
 ! D21   D(20,3,4,5)          -179.4502         estimate D2E/DX2                !
 ! D22   D(20,3,4,21)            0.9835         estimate D2E/DX2                !
 ! D23   D(3,4,5,6)              0.2447         estimate D2E/DX2                !
 ! D24   D(3,4,5,22)          -179.623          estimate D2E/DX2                !
 ! D25   D(21,4,5,6)           179.8062         estimate D2E/DX2                !
 ! D26   D(21,4,5,22)           -0.0615         estimate D2E/DX2                !
 ! D27   D(4,5,6,1)             -0.3234         estimate D2E/DX2                !
 ! D28   D(4,5,6,23)           179.9078         estimate D2E/DX2                !
 ! D29   D(22,5,6,1)           179.5444         estimate D2E/DX2                !
 ! D30   D(22,5,6,23)           -0.2243         estimate D2E/DX2                !
 ! D31   D(2,7,8,9)             85.905          estimate D2E/DX2                !
 ! D32   D(2,7,8,25)          -156.3923         estimate D2E/DX2                !
 ! D33   D(2,7,8,26)           -38.447          estimate D2E/DX2                !
 ! D34   D(11,7,8,9)           -34.9527         estimate D2E/DX2                !
 ! D35   D(11,7,8,25)           82.75           estimate D2E/DX2                !
 ! D36   D(11,7,8,26)         -159.3046         estimate D2E/DX2                !
 ! D37   D(14,7,8,9)          -146.4428         estimate D2E/DX2                !
 ! D38   D(14,7,8,25)          -28.7401         estimate D2E/DX2                !
 ! D39   D(14,7,8,26)           89.2053         estimate D2E/DX2                !
 ! D40   D(2,7,11,10)         -101.6231         estimate D2E/DX2                !
 ! D41   D(2,7,11,12)          134.8188         estimate D2E/DX2                !
 ! D42   D(2,7,11,31)           20.8081         estimate D2E/DX2                !
 ! D43   D(8,7,11,10)           18.8086         estimate D2E/DX2                !
 ! D44   D(8,7,11,12)         -104.7495         estimate D2E/DX2                !
 ! D45   D(8,7,11,31)          141.2398         estimate D2E/DX2                !
 ! D46   D(14,7,11,10)         134.1712         estimate D2E/DX2                !
 ! D47   D(14,7,11,12)          10.6131         estimate D2E/DX2                !
 ! D48   D(14,7,11,31)        -103.3976         estimate D2E/DX2                !
 ! D49   D(2,7,14,15)           -3.9347         estimate D2E/DX2                !
 ! D50   D(8,7,14,15)         -131.0038         estimate D2E/DX2                !
 ! D51   D(11,7,14,15)         119.9858         estimate D2E/DX2                !
 ! D52   D(7,8,9,10)            38.731          estimate D2E/DX2                !
 ! D53   D(7,8,9,27)           161.1637         estimate D2E/DX2                !
 ! D54   D(7,8,9,28)           -80.5988         estimate D2E/DX2                !
 ! D55   D(25,8,9,10)          -75.123          estimate D2E/DX2                !
 ! D56   D(25,8,9,27)           47.3097         estimate D2E/DX2                !
 ! D57   D(25,8,9,28)          165.5472         estimate D2E/DX2                !
 ! D58   D(26,8,9,10)          164.0073         estimate D2E/DX2                !
 ! D59   D(26,8,9,27)          -73.56           estimate D2E/DX2                !
 ! D60   D(26,8,9,28)           44.6776         estimate D2E/DX2                !
 ! D61   D(7,8,26,38)          -79.9576         estimate D2E/DX2                !
 ! D62   D(7,8,26,39)          100.5036         estimate D2E/DX2                !
 ! D63   D(9,8,26,38)          160.0267         estimate D2E/DX2                !
 ! D64   D(9,8,26,39)          -19.5121         estimate D2E/DX2                !
 ! D65   D(25,8,26,38)          36.9991         estimate D2E/DX2                !
 ! D66   D(25,8,26,39)        -142.5397         estimate D2E/DX2                !
 ! D67   D(8,9,10,11)          -26.0776         estimate D2E/DX2                !
 ! D68   D(8,9,10,29)           94.7211         estimate D2E/DX2                !
 ! D69   D(8,9,10,30)         -146.6591         estimate D2E/DX2                !
 ! D70   D(27,9,10,11)        -148.3607         estimate D2E/DX2                !
 ! D71   D(27,9,10,29)         -27.5619         estimate D2E/DX2                !
 ! D72   D(27,9,10,30)          91.0578         estimate D2E/DX2                !
 ! D73   D(28,9,10,11)          91.7431         estimate D2E/DX2                !
 ! D74   D(28,9,10,29)        -147.4581         estimate D2E/DX2                !
 ! D75   D(28,9,10,30)         -28.8384         estimate D2E/DX2                !
 ! D76   D(9,10,11,7)            3.8228         estimate D2E/DX2                !
 ! D77   D(9,10,11,12)         117.5887         estimate D2E/DX2                !
 ! D78   D(9,10,11,31)        -116.8134         estimate D2E/DX2                !
 ! D79   D(29,10,11,7)        -116.6717         estimate D2E/DX2                !
 ! D80   D(29,10,11,12)         -2.9058         estimate D2E/DX2                !
 ! D81   D(29,10,11,31)        122.6921         estimate D2E/DX2                !
 ! D82   D(30,10,11,7)         125.5031         estimate D2E/DX2                !
 ! D83   D(30,10,11,12)       -120.731          estimate D2E/DX2                !
 ! D84   D(30,10,11,31)          4.8669         estimate D2E/DX2                !
 ! D85   D(7,11,12,13)          84.4276         estimate D2E/DX2                !
 ! D86   D(7,11,12,17)        -104.0797         estimate D2E/DX2                !
 ! D87   D(10,11,12,13)        -32.6588         estimate D2E/DX2                !
 ! D88   D(10,11,12,17)        138.8339         estimate D2E/DX2                !
 ! D89   D(31,11,12,13)       -160.4299         estimate D2E/DX2                !
 ! D90   D(31,11,12,17)         11.0629         estimate D2E/DX2                !
 ! D91   D(11,12,13,35)        116.726          estimate D2E/DX2                !
 ! D92   D(11,12,13,36)       -129.7332         estimate D2E/DX2                !
 ! D93   D(11,12,13,37)         -6.0889         estimate D2E/DX2                !
 ! D94   D(17,12,13,35)        -54.7974         estimate D2E/DX2                !
 ! D95   D(17,12,13,36)         58.7433         estimate D2E/DX2                !
 ! D96   D(17,12,13,37)       -177.6123         estimate D2E/DX2                !
 ! D97   D(11,12,17,32)        -74.0627         estimate D2E/DX2                !
 ! D98   D(11,12,17,33)         41.2167         estimate D2E/DX2                !
 ! D99   D(11,12,17,34)        166.6732         estimate D2E/DX2                !
 ! D100  D(13,12,17,32)         97.9821         estimate D2E/DX2                !
 ! D101  D(13,12,17,33)       -146.7385         estimate D2E/DX2                !
 ! D102  D(13,12,17,34)        -21.2819         estimate D2E/DX2                !
 ! D103  D(7,14,15,16)        -165.9644         estimate D2E/DX2                !
 ! D104  D(7,14,15,18)          73.882          estimate D2E/DX2                !
 ! D105  D(7,14,15,19)         -51.1969         estimate D2E/DX2                !
 ! D106  D(8,26,38,40)         178.3052         estimate D2E/DX2                !
 ! D107  D(39,26,38,40)         -2.1573         estimate D2E/DX2                !
 ! D108  D(26,38,40,41)        172.2278         estimate D2E/DX2                !
 ! D109  D(26,38,40,42)        -66.4489         estimate D2E/DX2                !
 ! D110  D(26,38,40,43)         50.2086         estimate D2E/DX2                !
 ! D111  D(38,40,41,44)        178.8051         estimate D2E/DX2                !
 ! D112  D(38,40,41,45)        -61.7597         estimate D2E/DX2                !
 ! D113  D(38,40,41,46)         58.8986         estimate D2E/DX2                !
 ! D114  D(42,40,41,44)         60.1323         estimate D2E/DX2                !
 ! D115  D(42,40,41,45)        179.5676         estimate D2E/DX2                !
 ! D116  D(42,40,41,46)        -59.7741         estimate D2E/DX2                !
 ! D117  D(43,40,41,44)        -61.838          estimate D2E/DX2                !
 ! D118  D(43,40,41,45)         57.5972         estimate D2E/DX2                !
 ! D119  D(43,40,41,46)        178.2555         estimate D2E/DX2                !
 --------------------------------------------------------------------------------
 Trust Radius=3.00D-01 FncErr=1.00D-07 GrdErr=1.00D-06 EigMax=2.50D+02 EigMin=1.00D-04
 Number of steps in this run=    263 maximum allowed number of steps=    276.
 GradGradGradGradGradGradGradGradGradGradGradGradGradGradGradGradGradGrad

 Leave Link  103 at Sat Jun 19 21:34:35 2021, MaxMem=  2147483648 cpu:               0.3 elap:               0.1
 (Enter /SFS/product/gaussian/g16.a03/x86_64/avx/g16/l202.exe)
                          Input orientation:                          
 ---------------------------------------------------------------------
 Center     Atomic      Atomic             Coordinates (Angstroms)
 Number     Number       Type             X           Y           Z
 ---------------------------------------------------------------------
      1          6           0        2.256884   -1.693034    1.608305
      2          6           0        1.400554   -0.741384    1.036246
      3          6           0        1.282174    0.509001    1.658705
      4          6           0        1.989956    0.792755    2.825899
      5          6           0        2.832848   -0.164342    3.391112
      6          6           0        2.966346   -1.408054    2.775570
      7          6           0        0.658150   -1.001631   -0.272768
      8          6           0        1.540790   -0.665474   -1.538718
      9          6           0        2.349658   -1.936157   -1.805936
     10          6           0        1.374266   -3.101744   -1.522147
     11          6           0        0.336112   -2.551143   -0.507937
     12          6           0       -1.093634   -2.501484   -0.958096
     13          6           0       -1.510121   -2.257160   -2.349136
     14          8           0       -0.596077   -0.340070   -0.349225
     15         26           0       -1.956369    0.710830    0.356003
     16         17           0       -3.616603    0.357556   -1.114434
     17          6           0       -2.136107   -2.897087    0.006704
     18         17           0       -1.472361    2.857270    0.513744
     19         17           0       -2.523145   -0.157460    2.324546
     20          1           0        0.640564    1.271746    1.233617
     21          1           0        1.872165    1.765588    3.294446
     22          1           0        3.378956    0.056120    4.303952
     23          1           0        3.620140   -2.163436    3.202808
     24          1           0        2.384404   -2.670951    1.152282
     25          1           0        0.832123   -0.468303   -2.349752
     26          6           0        2.414150    0.572448   -1.385723
     27          1           0        2.748918   -1.965013   -2.824188
     28          1           0        3.206430   -1.962204   -1.126855
     29          1           0        0.889205   -3.436356   -2.444983
     30          1           0        1.885601   -3.976658   -1.109216
     31          1           0        0.369392   -3.078549    0.447585
     32          1           0       -2.071107   -3.998377    0.077513
     33          1           0       -1.929299   -2.509290    1.010426
     34          1           0       -3.143448   -2.618589   -0.308319
     35          1           0       -2.037712   -3.153896   -2.711485
     36          1           0       -2.266595   -1.455608   -2.337038
     37          1           0       -0.699577   -2.007707   -3.031489
     38          8           0        1.697197    1.689251   -1.586026
     39          8           0        3.598691    0.549288   -1.126851
     40          6           0        2.404972    2.948791   -1.431553
     41          6           0        1.474115    4.055175   -1.886861
     42          1           0        2.686735    3.052218   -0.378879
     43          1           0        3.324447    2.902769   -2.022600
     44          1           0        1.969706    5.024602   -1.763554
     45          1           0        1.212560    3.935106   -2.943324
     46          1           0        0.552679    4.055354   -1.297762
 ---------------------------------------------------------------------
                    Distance matrix (angstroms):
                    1          2          3          4          5
     1  C    0.000000
     2  C    1.402209   0.000000
     3  C    2.408642   1.401760   0.000000
     4  C    2.780815   2.429781   1.394207   0.000000
     5  C    2.418064   2.815997   2.420581   1.394979   0.000000
     6  C    1.395370   2.433393   2.785484   2.408201   1.394107
     7  C    2.563674   1.527223   2.530218   3.820375   4.342163
     8  C    3.387097   2.579897   3.416107   4.623642   5.120915
     9  C    3.424143   3.225877   4.372877   5.387972   5.511997
    10  C    3.544462   3.481001   4.812876   5.869557   5.907276
    11  C    2.983990   2.606293   3.867021   5.003131   5.208944
    12  C    4.297206   3.646413   4.642750   5.888901   6.308336
    13  C    5.492714   4.714914   5.613497   6.952230   7.496113
    14  O    3.715080   2.463152   2.877591   4.248796   5.077256
    15  Fe   5.009823   3.720294   3.496559   4.656241   5.737108
    16  Cl   6.790882   5.568210   5.631274   6.866522   7.884652
    17  C    4.828379   4.267901   5.100509   6.211859   6.603986
    18  Cl   5.984196   4.634324   3.796415   4.647141   5.995349
    19  Cl   5.071456   4.170863   3.920200   4.639218   5.461160
    20  H    3.397470   2.160841   1.083579   2.141414   3.394590
    21  H    3.866930   3.406874   2.145402   1.086193   2.157982
    22  H    3.403689   3.902306   3.405720   2.157914   1.086331
    23  H    2.149927   3.412153   3.871984   3.396855   2.156772
    24  H    1.086527   2.169021   3.403450   3.867020   3.390656
    25  H    4.381338   3.444223   4.150349   5.451441   6.087102
    26  C    3.757838   2.935893   3.248682   4.238660   4.851425
    27  H    4.468005   4.268291   5.326201   6.332834   6.471431
    28  H    2.907781   3.070927   4.191534   4.969293   4.876874
    29  H    4.619401   4.432077   5.706183   6.846841   6.967340
    30  H    3.568993   3.912196   5.305341   6.184118   5.973607
    31  H    2.613341   2.621480   3.894932   4.823857   4.819291
    32  H    5.137065   4.855883   5.836190   6.855713   7.051846
    33  H    4.306723   3.770156   4.454650   5.436911   5.817602
    34  H    5.804626   5.097029   5.765165   6.914653   7.444812
    35  H    6.264045   5.629154   6.598259   7.903214   8.360710
    36  H    6.006993   5.033601   5.693805   7.058986   7.777107
    37  H    5.510660   4.749799   5.679707   7.027458   7.558163
    38  O    4.685814   3.587798   3.477573   4.511596   5.431152
    39  O    3.782794   3.343147   3.623147   4.274522   4.637647
    40  C    5.550604   4.551514   4.094258   4.790264   5.756107
    41  C    6.772800   5.617557   5.018290   5.754962   6.892567
    42  H    5.162469   4.248324   3.548590   3.982622   4.957866
    43  H    5.953534   5.132032   4.842831   5.453528   6.241564
    44  H    7.521871   6.435014   5.707470   6.242757   7.364831
    45  H    7.313269   6.143442   5.737745   6.615334   7.717246
    46  H    6.662845   5.401405   4.674343   5.451137   6.707499
                    6          7          8          9         10
     6  C    0.000000
     7  C    3.845167   0.000000
     8  C    4.603989   1.579457   0.000000
     9  C    4.652891   2.466808   1.529807   0.000000
    10  C    4.886070   2.546418   2.442011   1.546130   0.000000
    11  C    4.359610   1.600000   2.463637   2.473333   1.552272
    12  C    5.623103   2.405822   3.263165   3.590917   2.601729
    13  C    6.857284   3.254083   3.535293   3.911010   3.117198
    14  O    4.857550   1.420068   2.467181   3.653335   3.589546
    15  Fe   5.880229   3.188038   4.208836   5.497489   5.399657
    16  Cl   7.847594   4.563913   5.274970   6.429274   6.086194
    17  C    5.993235   3.388027   4.570339   4.932660   3.834317
    18  Cl   6.558275   4.477588   5.069655   6.554822   6.910715
    19  Cl   5.648178   4.192768   5.630138   6.630901   6.217368
    20  H    3.868877   2.727224   3.499867   4.738199   5.221108
    21  H    3.396832   4.675077   5.420272   6.320191   6.865740
    22  H    2.156387   5.428443   6.167361   6.508406   6.923461
    23  H    1.086545   4.711985   5.389773   5.172359   5.315033
    24  H    2.137435   2.792373   3.460506   3.048308   2.891113
    25  H    5.630894   2.151411   1.094925   2.180193   2.813158
    26  C    4.641516   2.607667   1.522700   2.544374   3.820950
    27  H    5.631587   3.436446   2.191075   1.094111   2.208424
    28  H    3.948879   2.854102   2.150697   1.093567   2.193543
    29  H    5.973500   3.271053   2.987251   2.189041   1.094932
    30  H    4.780931   3.325217   3.356681   2.205541   1.094281
    31  H    3.867071   2.217178   3.337739   3.210120   2.211369
    32  H    6.274171   4.068418   5.173610   5.229082   3.903006
    33  H    5.319379   3.257992   4.683942   5.154595   4.204577
    34  H    6.950205   4.131339   5.222128   5.734351   4.702824
    35  H    7.628652   4.224601   4.513680   4.642405   3.613702
    36  H    7.316057   3.608523   3.969610   4.671487   4.077950
    37  H    6.893512   3.235143   3.008189   3.287086   2.788522
    38  O    5.497959   3.169402   2.360388   3.690210   4.802291
    39  O    4.411342   3.432432   2.424920   2.863333   4.293525
    40  C    6.082526   4.472136   3.717688   4.899586   6.138366
    41  C    7.335659   5.370510   4.733939   6.055509   7.166901
    42  H    5.470170   4.534326   4.059514   5.199423   6.395380
    43  H    6.460175   5.041368   4.018449   4.940887   6.333075
    44  H    7.935742   6.344928   5.710647   6.971250   8.151707
    45  H    8.020653   5.640090   4.821409   6.087559   7.180749
    46  H    7.229568   5.160895   4.829145   6.275793   7.207594
                   11         12         13         14         15
    11  C    0.000000
    12  C    1.499761   0.000000
    13  C    2.623931   1.472463   0.000000
    14  O    2.404789   2.299999   2.917251   0.000000
    15  Fe   4.079501   3.576329   4.040530   1.857991   0.000000
    16  Cl   4.944929   3.816271   3.577498   3.193087   2.245744
    17  C    2.548804   1.474480   2.520188   3.006113   3.629240
    18  Cl   5.793560   5.570098   5.861305   3.425722   2.205981
    19  Cl   4.682737   4.279450   5.222859   3.300907   2.224932
    20  H    4.211910   4.695563   5.469437   2.575387   2.798016
    21  H    5.954137   6.714758   7.711834   4.878765   4.940105
    22  H    6.261868   7.364411   8.574259   6.132692   6.669381
    23  H    4.970391   6.296591   7.559924   5.806728   6.889351
    24  H    2.639352   4.071752   5.253425   4.070724   5.559929
    25  H    2.824275   3.127151   2.947222   2.461363   4.060437
    26  C    3.852995   4.683639   4.933026   3.311870   4.706824
    27  H    3.395615   4.305265   4.295397   4.467088   6.278015
    28  H    2.994768   4.337033   4.881273   4.206553   5.999873
    29  H    2.200377   2.648862   2.675155   4.023090   5.756906
    30  H    2.189645   3.327885   4.003124   4.467783   6.235394
    31  H    1.091919   2.109357   3.468270   3.011030   4.447128
    32  H    2.869136   2.066066   3.038942   3.967497   4.718830
    33  H    2.727502   2.138569   3.394987   2.886459   3.286058
    34  H    3.485934   2.153523   2.638811   3.417956   3.596597
    35  H    3.294537   2.095542   1.101719   3.946670   4.934795
    36  H    3.364505   2.090736   1.102218   2.826032   3.470182
    37  H    2.781419   2.167500   1.088492   3.160105   4.521623
    38  O    4.582114   5.073982   5.142313   3.302564   4.251744
    39  O    4.543143   5.599429   5.955677   4.357951   5.751838
    40  C    5.948321   6.493836   6.578133   4.581958   5.217770
    41  C    6.843970   7.102515   6.997495   5.095900   5.289925
    42  H    6.077807   6.743166   7.048759   4.720736   5.251720
    43  H    6.400743   7.061059   7.078456   5.355996   6.192687
    44  H    7.850931   8.165463   8.091734   6.112551   6.206063
    45  H    6.983602   7.119645   6.790450   5.317673   5.596751
    46  H    6.657066   6.768888   6.723717   4.641025   4.496232
                   16         17         18         19         20
    16  Cl   0.000000
    17  C    3.747202   0.000000
    18  Cl   3.673868   5.814660   0.000000
    19  Cl   3.645199   3.609397   3.670388   0.000000
    20  H    4.946975   5.156974   2.737984   3.638930   0.000000
    21  H    7.179648   6.972520   4.484409   4.894647   2.451069
    22  H    8.853678   7.589710   6.763682   6.228841   4.289929
    23  H    8.795705   6.624780   7.640165   6.521904   4.955407
    24  H    7.093796   4.668887   6.770790   5.637010   4.311897
    25  H    4.690332   4.501363   4.956782   5.762249   3.988107
    26  C    6.040675   5.889089   4.892173   6.218983   3.239686
    27  H    6.988379   5.722428   7.226022   7.587579   5.602459
    28  H    7.206609   5.540908   6.914476   6.928008   4.755410
    29  H    6.038744   3.931169   7.344439   6.718906   5.979979
    30  H    7.004262   4.311019   7.785402   6.768607   5.880878
    31  H    5.489524   2.550457   6.215334   4.519128   4.429046
    32  H    4.773201   1.105477   6.895556   4.472822   6.038537
    33  H    3.947256   1.095725   5.408831   2.758744   4.577144
    34  H    3.119477   1.091575   5.783887   3.657036   5.641899
    35  H    4.168185   2.732066   6.845133   5.880126   6.505636
    36  H    2.569989   2.754635   5.230553   4.845758   5.351599
    37  H    4.216469   3.476382   6.069092   5.952808   5.544540
    38  O    5.498389   6.185912   3.977361   6.042698   3.039929
    39  O    7.217852   6.786041   5.808089   7.063180   3.852826
    40  C    6.563111   7.540840   4.338925   6.931336   3.609536
    41  C    6.339120   8.059357   3.984922   7.173586   4.263762
    42  H    6.894513   7.668292   4.258270   6.689797   3.155478
    43  H    7.448560   8.220344   5.426277   7.902975   4.523982
    44  H    7.308182   9.096410   4.661678   7.984487   4.983330
    45  H    6.282079   8.160582   4.507976   7.645590   4.986733
    46  H    5.575862   7.567538   2.969469   6.350560   3.763519
                   21         22         23         24         25
    21  H    0.000000
    22  H    2.492349   0.000000
    23  H    4.301284   2.489401   0.000000
    24  H    4.953194   4.284749   2.447299   0.000000
    25  H    6.158647   7.143749   6.440298   4.418764   0.000000
    26  C    4.860176   5.793949   5.476686   4.118494   2.124929
    27  H    7.219679   7.435880   6.092871   4.055063   2.477768
    28  H    5.935031   5.796297   4.354036   2.524384   3.060155
    29  H    7.808167   7.996523   6.401240   3.970111   2.970129
    30  H    7.236422   6.913450   4.988983   2.658580   3.867467
    31  H    5.816237   5.809922   4.358446   2.173248   3.853907
    32  H    7.689041   8.000307   6.747205   4.771663   5.175112
    33  H    6.159745   6.753237   5.976824   4.319061   4.804360
    34  H    7.573460   8.424302   7.634219   5.717801   4.959470
    35  H    8.692506   9.426603   8.244463   5.892117   3.947051
    36  H    7.695391   8.846486   8.114466   5.940051   3.252228
    37  H    7.801863   8.643061   7.586215   5.239730   2.276101
    38  O    4.884204   6.339343   6.440018   5.194415   2.446767
    39  O    4.899811   5.457574   5.109333   4.127818   3.191375
    40  C    4.900910   6.497092   7.006340   6.185315   3.872141
    41  C    5.678609   7.612294   8.317528   7.436786   4.592197
    42  H    3.976463   5.602203   6.395528   5.932160   4.440495
    43  H    5.627902   6.937697   7.284144   6.483048   4.205096
    44  H    6.017811   7.967837   8.891376   8.239879   5.640011
    45  H    6.637143   8.500754   8.986857   7.860483   4.459492
    46  H    5.298344   7.440492   8.266668   7.389256   4.652767
                   26         27         28         29         30
    26  C    0.000000
    27  H    2.935977   0.000000
    28  H    2.668179   1.757915   0.000000
    29  H    4.417918   2.401495   3.046328   0.000000
    30  H    4.588048   2.780856   2.408926   1.751858   0.000000
    31  H    4.568570   4.196023   3.431308   2.960605   2.351408
    32  H    6.568944   5.982230   5.783502   3.929669   4.130900
    33  H    5.839879   6.073402   5.589543   4.554478   4.604293
    34  H    6.498493   6.440243   6.435976   4.636417   5.270400
    35  H    5.955028   4.933353   5.606443   2.952567   4.317011
    36  H    5.189160   5.064798   5.628071   3.727477   5.010386
    37  H    4.365895   3.454984   4.345871   2.215684   3.775586
    38  O    1.342159   3.999101   3.977656   5.259516   5.689057
    39  O    1.212719   3.150361   2.541940   4.996413   4.839336
    40  C    2.376803   5.118906   4.985283   6.640383   6.952373
    41  C    3.642004   6.224658   6.307723   7.535029   8.079876
    42  H    2.690222   5.581757   5.096467   7.042833   7.111983
    43  H    2.581598   4.966798   4.948156   6.803919   7.087388
    44  H    4.490207   7.112442   7.123927   8.556847   9.025404
    45  H    3.895819   6.098032   6.484855   7.395360   8.149414
    46  H    3.950120   6.587736   6.578952   7.586507   8.144044
                   31         32         33         34         35
    31  H    0.000000
    32  H    2.634212   0.000000
    33  H    2.434097   1.762900   0.000000
    34  H    3.622568   1.789580   1.795882   0.000000
    35  H    3.972348   2.914236   3.778874   2.698965   0.000000
    36  H    4.163711   3.511972   3.525554   2.497418   1.754075
    37  H    3.793857   3.938243   4.254513   3.709628   1.790742
    38  O    5.350753   7.022577   6.125421   6.604685   6.218704
    39  O    5.105724   7.367385   6.669447   7.494123   6.927747
    40  C    6.633519   8.400935   7.385108   7.939921   7.656269
    41  C    7.586835   9.015934   7.941643   8.267576   8.061243
    42  H    6.606014   8.517995   7.359912   8.133515   8.141087
    43  H    7.114094   9.008235   8.129666   8.675126   8.118528
    44  H    8.550509  10.056433   8.925062   9.310232   9.156735
    45  H    7.835850   9.102092   8.187408   8.298733   7.802049
    46  H    7.346591   8.581271   7.387997   7.692975   7.789867
                   36         37         38         39         40
    36  H    0.000000
    37  H    1.800728   0.000000
    38  O    5.115252   4.636959   0.000000
    39  O    6.315516   5.351727   2.264075   0.000000
    40  C    6.483994   6.063406   1.453014   2.697299   0.000000
    41  C    6.675650   6.541685   2.395384   4.169254   1.515878
    42  H    6.977848   6.641257   2.072213   2.766909   1.094628
    43  H    7.096060   6.428328   2.076335   2.533071   1.094024
    44  H    7.763263   7.627981   3.351170   4.804937   2.146782
    45  H    6.444525   6.243482   2.668519   4.522937   2.163357
    46  H    6.276870   6.429204   2.644137   4.647569   2.161798
                   41         42         43         44         45
    41  C    0.000000
    42  H    2.179537   0.000000
    43  H    2.184077   1.769415   0.000000
    44  H    1.095721   2.514310   2.530732   0.000000
    45  H    1.094962   3.086918   2.524583   1.775424   0.000000
    46  H    1.093655   2.530775   3.088129   1.778867   1.777013
                   46
    46  H    0.000000
 Stoichiometry    C17H22Cl3FeO3(6)
 Framework group  C1[X(C17H22Cl3FeO3)]
 Deg. of freedom   132
 Full point group                 C1      NOp   1
 Largest Abelian subgroup         C1      NOp   1
 Largest concise Abelian subgroup C1      NOp   1
                         Standard orientation:                         
 ---------------------------------------------------------------------
 Center     Atomic      Atomic             Coordinates (Angstroms)
 Number     Number       Type             X           Y           Z
 ---------------------------------------------------------------------
      1          6           0        2.256884   -1.693034    1.608305
      2          6           0        1.400554   -0.741384    1.036246
      3          6           0        1.282174    0.509001    1.658705
      4          6           0        1.989956    0.792755    2.825899
      5          6           0        2.832848   -0.164342    3.391112
      6          6           0        2.966346   -1.408054    2.775570
      7          6           0        0.658150   -1.001631   -0.272768
      8          6           0        1.540790   -0.665474   -1.538718
      9          6           0        2.349658   -1.936157   -1.805936
     10          6           0        1.374266   -3.101744   -1.522147
     11          6           0        0.336112   -2.551143   -0.507937
     12          6           0       -1.093634   -2.501484   -0.958096
     13          6           0       -1.510121   -2.257160   -2.349136
     14          8           0       -0.596077   -0.340070   -0.349225
     15         26           0       -1.956369    0.710830    0.356003
     16         17           0       -3.616603    0.357556   -1.114434
     17          6           0       -2.136107   -2.897087    0.006704
     18         17           0       -1.472361    2.857270    0.513744
     19         17           0       -2.523145   -0.157460    2.324546
     20          1           0        0.640564    1.271746    1.233617
     21          1           0        1.872165    1.765588    3.294446
     22          1           0        3.378956    0.056120    4.303952
     23          1           0        3.620140   -2.163436    3.202808
     24          1           0        2.384404   -2.670951    1.152282
     25          1           0        0.832123   -0.468303   -2.349752
     26          6           0        2.414150    0.572448   -1.385723
     27          1           0        2.748918   -1.965013   -2.824188
     28          1           0        3.206430   -1.962204   -1.126855
     29          1           0        0.889205   -3.436356   -2.444983
     30          1           0        1.885601   -3.976658   -1.109216
     31          1           0        0.369392   -3.078549    0.447585
     32          1           0       -2.071107   -3.998377    0.077513
     33          1           0       -1.929299   -2.509290    1.010426
     34          1           0       -3.143448   -2.618589   -0.308319
     35          1           0       -2.037712   -3.153896   -2.711485
     36          1           0       -2.266595   -1.455608   -2.337038
     37          1           0       -0.699577   -2.007707   -3.031489
     38          8           0        1.697197    1.689251   -1.586026
     39          8           0        3.598691    0.549288   -1.126851
     40          6           0        2.404972    2.948791   -1.431553
     41          6           0        1.474115    4.055175   -1.886861
     42          1           0        2.686735    3.052218   -0.378879
     43          1           0        3.324447    2.902769   -2.022600
     44          1           0        1.969706    5.024602   -1.763554
     45          1           0        1.212560    3.935106   -2.943324
     46          1           0        0.552679    4.055354   -1.297762
 ---------------------------------------------------------------------
 Rotational constants (GHZ):           0.2011879           0.1596676           0.1442456
 Leave Link  202 at Sat Jun 19 21:34:35 2021, MaxMem=  2147483648 cpu:               0.2 elap:               0.1
 (Enter /SFS/product/gaussian/g16.a03/x86_64/avx/g16/l301.exe)
 Standard basis: Jul-CC-pVDZ (5D, 7F)
 Ernie: Thresh=  0.10000D-02 Tol=  0.10000D-05 Strict=F.
 Ernie:  134 primitive shells out of 958 were deleted.
 There are   766 symmetry adapted cartesian basis functions of A   symmetry.
 There are   710 symmetry adapted basis functions of A   symmetry.
   710 basis functions,  1571 primitive gaussians,   766 cartesian basis functions
   115 alpha electrons      110 beta electrons
       nuclear repulsion energy      3353.6351609199 Hartrees.
 IExCor=  402 DFT=T Ex+Corr=B3LYP ExCW=0 ScaHFX=  0.200000
 ScaDFX=  0.800000  0.720000  1.000000  0.810000 ScalE2=  1.000000  1.000000
 IRadAn=      5 IRanWt=     -1 IRanGd=            0 ICorTp=0 IEmpDi=  4
 NAtoms=   46 NActive=   46 NUniq=   46 SFac= 1.00D+00 NAtFMM=   60 NAOKFM=F Big=F
 Integral buffers will be    131072 words long.
 Raffenetti 2 integral format.
 Two-electron integral symmetry is turned on.
 Leave Link  301 at Sat Jun 19 21:34:35 2021, MaxMem=  2147483648 cpu:               1.2 elap:               0.1
 (Enter /SFS/product/gaussian/g16.a03/x86_64/avx/g16/l302.exe)
 NPDir=0 NMtPBC=     1 NCelOv=     1 NCel=       1 NClECP=     1 NCelD=      1
         NCelK=      1 NCelE2=     1 NClLst=     1 CellRange=     0.0.
 One-electron integrals computed using PRISM.
 One-electron integral symmetry used in STVInt
 NBasis=   710 RedAO= T EigKep=  1.49D-06  NBF=   710
 NBsUse=   710 1.00D-06 EigRej= -1.00D+00 NBFU=   710
 Precomputing XC quadrature grid using
 IXCGrd= 4 IRadAn=           5 IRanWt=          -1 IRanGd=           0 AccXCQ= 0.00D+00.
 Generated NRdTot=       0 NPtTot=           0 NUsed=           0 NTot=          32
 NSgBfM=   764   764   764   764   764 MxSgAt=    46 MxSgA2=    46.
 Leave Link  302 at Sat Jun 19 21:34:36 2021, MaxMem=  2147483648 cpu:              22.0 elap:               1.4
 (Enter /SFS/product/gaussian/g16.a03/x86_64/avx/g16/l303.exe)
 DipDrv:  MaxL=1.
 Leave Link  303 at Sat Jun 19 21:34:37 2021, MaxMem=  2147483648 cpu:               3.4 elap:               0.3
 (Enter /SFS/product/gaussian/g16.a03/x86_64/avx/g16/l401.exe)
 ExpMin= 1.40D-02 ExpMax= 4.32D+06 ExpMxC= 4.91D+03 IAcc=3 IRadAn=         5 AccDes= 0.00D+00
 Harris functional with IExCor=  402 and IRadAn=       5 diagonalized for initial guess.
 HarFok:  IExCor=  402 AccDes= 0.00D+00 IRadAn=         5 IDoV= 1 UseB2=F ITyADJ=14
 ICtDFT=  3500011 ScaDFX=  1.000000  1.000000  1.000000  1.000000
 FoFCou: FMM=F IPFlag=           0 FMFlag=      100000 FMFlg1=           0
         NFxFlg=           0 DoJE=T BraDBF=F KetDBF=T FulRan=T
         wScrn=  0.000000 ICntrl=       500 IOpCl=  0 I1Cent=   200000004 NGrid=           0
         NMat0=    1 NMatS0=      1 NMatT0=    0 NMatD0=    1 NMtDS0=    0 NMtDT0=    0
 Petite list used in FoFCou.
 Harris En= -3531.08496297983    
 JPrj=0 DoOrth=F DoCkMO=F.
 Initial guess <Sx>= 0.0000 <Sy>= 0.0000 <Sz>= 2.5000 <S**2>= 8.7500 S= 2.5000
 Leave Link  401 at Sat Jun 19 21:34:45 2021, MaxMem=  2147483648 cpu:             129.1 elap:               8.1
 (Enter /SFS/product/gaussian/g16.a03/x86_64/avx/g16/l502.exe)
 Integral symmetry usage will be decided dynamically.
 UHF open shell SCF:
 Using DIIS extrapolation, IDIIS=  1040.
 NGot=  2147483648 LenX=  2146290678 LenY=  2145703156
 Requested convergence on RMS density matrix=1.00D-08 within 128 cycles.
 Requested convergence on MAX density matrix=1.00D-06.
 Requested convergence on             energy=1.00D-06.
 No special actions if energy rises.
 Fock matrices will be formed incrementally for  20 cycles.

 Cycle   1  Pass 1  IDiag  1:
 FoFJK:  IHMeth= 1 ICntrl=       0 DoSepK=F KAlg= 0 I1Cent=           0 FoldK=F
 IRaf= 920000000 NMat=       1 IRICut=       1 DoRegI=T DoRafI=F ISym2E= 0 IDoP0=0 IntGTp=1.
 FoFCou: FMM=F IPFlag=           0 FMFlag=      100000 FMFlg1=           0
         NFxFlg=           0 DoJE=F BraDBF=F KetDBF=F FulRan=T
         wScrn=  0.000000 ICntrl=         0 IOpCl=  1 I1Cent=           0 NGrid=           0
         NMat0=    1 NMatS0=      1 NMatT0=    0 NMatD0=    1 NMtDS0=    0 NMtDT0=    0
 Symmetry not used in FoFCou.
 E= -3530.34456539482    
 DIIS: error= 2.13D-02 at cycle   1 NSaved=   1.
 NSaved= 1 IEnMin= 1 EnMin= -3530.34456539482     IErMin= 1 ErrMin= 2.13D-02
 ErrMax= 2.13D-02  0.00D+00 EMaxC= 1.00D-01 BMatC= 4.68D+00 BMatP= 4.68D+00
 IDIUse=3 WtCom= 7.87D-01 WtEn= 2.13D-01
 Coeff-Com:  0.100D+01
 Coeff-En:   0.100D+01
 Coeff:      0.100D+01
 Gap=     0.098 Goal=   None    Shift=    0.000
 Gap=    -0.023 Goal=   None    Shift=    0.000
 GapD=   -0.023 DampG=0.250 DampE=0.250 DampFc=0.1250 IDamp=-1.
 Damping current iteration by 1.25D-01
 RMSDP=3.72D-02 MaxDP=1.40D+01              OVMax= 7.85D-01

 Cycle   2  Pass 1  IDiag  1:
 RMSU=  2.13D-03    CP:  9.50D-01
 E= -3530.67794964623     Delta-E=       -0.333384251412 Rises=F Damp=T
 DIIS: error= 8.32D-03 at cycle   2 NSaved=   2.
 NSaved= 2 IEnMin= 2 EnMin= -3530.67794964623     IErMin= 2 ErrMin= 8.32D-03
 ErrMax= 8.32D-03  0.00D+00 EMaxC= 1.00D-01 BMatC= 1.24D+00 BMatP= 4.68D+00
 IDIUse=3 WtCom= 9.17D-01 WtEn= 8.32D-02
 Coeff-Com: -0.443D+00 0.144D+01
 Coeff-En:   0.000D+00 0.100D+01
 Coeff:     -0.406D+00 0.141D+01
 Gap=     0.433 Goal=   None    Shift=    0.000
 Gap=    -0.071 Goal=   None    Shift=    0.000
 RMSDP=2.93D-02 MaxDP=1.04D+01 DE=-3.33D-01 OVMax= 9.58D-01

 Cycle   3  Pass 1  IDiag  1:
 RMSU=  7.99D-03    CP:  6.14D-01  2.80D+00
 E= -3530.18716275505     Delta-E=        0.490786891177 Rises=F Damp=F
 DIIS: error= 3.32D-02 at cycle   3 NSaved=   3.
 NSaved= 3 IEnMin= 2 EnMin= -3530.67794964623     IErMin= 2 ErrMin= 8.32D-03
 ErrMax= 3.32D-02  0.00D+00 EMaxC= 1.00D-01 BMatC= 5.42D+00 BMatP= 1.24D+00
 IDIUse=2 WtCom= 0.00D+00 WtEn= 1.00D+00
 Coeff-En:   0.000D+00 0.711D+00 0.289D+00
 Coeff:      0.000D+00 0.711D+00 0.289D+00
 Gap=    -0.324 Goal=   None    Shift=    0.000
 Gap=     0.256 Goal=   None    Shift=    0.000
 RMSDP=9.02D-03 MaxDP=2.20D+00 DE= 4.91D-01 OVMax= 7.95D-01

 Cycle   4  Pass 1  IDiag  1:
 RMSU=  6.31D-03    CP:  6.05D-01  3.00D+00  2.36D-01
 E= -3521.65731540277     Delta-E=        8.529847352282 Rises=F Damp=F
 DIIS: error= 9.82D-02 at cycle   4 NSaved=   4.
 NSaved= 4 IEnMin= 2 EnMin= -3530.67794964623     IErMin= 2 ErrMin= 8.32D-03
 ErrMax= 9.82D-02  0.00D+00 EMaxC= 1.00D-01 BMatC= 4.86D+01 BMatP= 1.24D+00
 IDIUse=2 WtCom= 0.00D+00 WtEn= 1.00D+00
 EnCoef did   100 forward-backward iterations
 Coeff-En:   0.323D+00 0.418D-01 0.459D+00 0.176D+00
 Coeff:      0.323D+00 0.418D-01 0.459D+00 0.176D+00
 Gap=     0.153 Goal=   None    Shift=    0.000
 Gap=     0.037 Goal=   None    Shift=    0.000
 RMSDP=6.14D-03 MaxDP=1.05D+00 DE= 8.53D+00 OVMax= 9.59D-01

 Cycle   5  Pass 1  IDiag  1:
 RMSU=  5.22D-03    CP:  6.28D-01  3.00D+00  3.96D-01  6.48D-01
 E= -3530.09592697310     Delta-E=       -8.438611570325 Rises=F Damp=F
 DIIS: error= 5.85D-02 at cycle   5 NSaved=   5.
 NSaved= 5 IEnMin= 2 EnMin= -3530.67794964623     IErMin= 2 ErrMin= 8.32D-03
 ErrMax= 5.85D-02  0.00D+00 EMaxC= 1.00D-01 BMatC= 8.72D+00 BMatP= 1.24D+00
 IDIUse=2 WtCom= 0.00D+00 WtEn= 1.00D+00
 EnCoef did     3 forward-backward iterations
 Coeff-En:   0.863D-02 0.000D+00 0.505D+00 0.000D+00 0.486D+00
 Coeff:      0.863D-02 0.000D+00 0.505D+00 0.000D+00 0.486D+00
 Gap=     0.097 Goal=   None    Shift=    0.000
 Gap=     0.128 Goal=   None    Shift=    0.000
 RMSDP=4.98D-03 MaxDP=1.20D+00 DE=-8.44D+00 OVMax= 4.46D-01

 Cycle   6  Pass 1  IDiag  1:
 RMSU=  3.70D-03    CP:  6.52D-01  2.76D+00  4.53D-01  4.46D-01  5.89D-01
 E= -3531.25163066910     Delta-E=       -1.155703696001 Rises=F Damp=F
 DIIS: error= 6.49D-03 at cycle   6 NSaved=   6.
 NSaved= 6 IEnMin= 6 EnMin= -3531.25163066910     IErMin= 6 ErrMin= 6.49D-03
 ErrMax= 6.49D-03  0.00D+00 EMaxC= 1.00D-01 BMatC= 6.11D-01 BMatP= 1.24D+00
 IDIUse=3 WtCom= 9.35D-01 WtEn= 6.49D-02
 EnCoef did     6 forward-backward iterations
 Coeff-Com: -0.429D+00 0.782D+00 0.268D+00-0.521D-02 0.836D-01 0.301D+00
 Coeff-En:   0.000D+00 0.000D+00 0.483D-02 0.000D+00 0.112D+00 0.884D+00
 Coeff:     -0.401D+00 0.731D+00 0.251D+00-0.487D-02 0.854D-01 0.338D+00
 Gap=     0.104 Goal=   None    Shift=    0.000
 Gap=     0.145 Goal=   None    Shift=    0.000
 RMSDP=3.68D-03 MaxDP=8.26D-01 DE=-1.16D+00 OVMax= 1.84D-01

 Cycle   7  Pass 1  IDiag  1:
 RMSU=  1.69D-03    CP:  6.32D-01  2.82D+00  4.75D-01  5.22D-01  7.98D-01
                    CP:  3.17D-01
 E= -3531.29798909093     Delta-E=       -0.046358421832 Rises=F Damp=F
 DIIS: error= 9.08D-03 at cycle   7 NSaved=   7.
 NSaved= 7 IEnMin= 7 EnMin= -3531.29798909093     IErMin= 6 ErrMin= 6.49D-03
 ErrMax= 9.08D-03  0.00D+00 EMaxC= 1.00D-01 BMatC= 4.73D-01 BMatP= 6.11D-01
 IDIUse=3 WtCom= 9.35D-01 WtEn= 6.49D-02
 Coeff-Com: -0.210D+00 0.316D+00 0.963D-01 0.715D-02-0.982D-01 0.297D+00
 Coeff-Com:  0.592D+00
 Coeff-En:   0.000D+00 0.000D+00 0.000D+00 0.000D+00 0.000D+00 0.419D+00
 Coeff-En:   0.581D+00
 Coeff:     -0.196D+00 0.295D+00 0.901D-01 0.669D-02-0.918D-01 0.305D+00
 Coeff:      0.591D+00
 Gap=     0.064 Goal=   None    Shift=    0.000
 Gap=     0.148 Goal=   None    Shift=    0.000
 RMSDP=1.50D-03 MaxDP=2.10D-01 DE=-4.64D-02 OVMax= 1.10D-01

 Cycle   8  Pass 1  IDiag  1:
 RMSU=  1.06D-03    CP:  6.32D-01  2.75D+00  4.85D-01  4.95D-01  7.11D-01
                    CP:  5.67D-01  9.45D-01
 E= -3531.39651931037     Delta-E=       -0.098530219442 Rises=F Damp=F
 DIIS: error= 1.76D-03 at cycle   8 NSaved=   8.
 NSaved= 8 IEnMin= 8 EnMin= -3531.39651931037     IErMin= 8 ErrMin= 1.76D-03
 ErrMax= 1.76D-03  0.00D+00 EMaxC= 1.00D-01 BMatC= 3.58D-02 BMatP= 4.73D-01
 IDIUse=3 WtCom= 9.82D-01 WtEn= 1.76D-02
 Coeff-Com: -0.955D-01 0.131D+00 0.279D-01 0.738D-02-0.573D-01 0.156D+00
 Coeff-Com:  0.345D+00 0.486D+00
 Coeff-En:   0.000D+00 0.000D+00 0.000D+00 0.000D+00 0.000D+00 0.000D+00
 Coeff-En:   0.000D+00 0.100D+01
 Coeff:     -0.938D-01 0.128D+00 0.274D-01 0.725D-02-0.563D-01 0.153D+00
 Coeff:      0.339D+00 0.495D+00
 Gap=     0.093 Goal=   None    Shift=    0.000
 Gap=     0.114 Goal=   None    Shift=    0.000
 RMSDP=6.12D-04 MaxDP=1.08D-01 DE=-9.85D-02 OVMax= 1.89D-02

 Cycle   9  Pass 1  IDiag  1:
 RMSU=  5.07D-04    CP:  6.32D-01  2.75D+00  4.72D-01  4.94D-01  6.77D-01
                    CP:  6.14D-01  1.04D+00  8.59D-01
 E= -3531.40246529370     Delta-E=       -0.005945983330 Rises=F Damp=F
 DIIS: error= 1.59D-03 at cycle   9 NSaved=   9.
 NSaved= 9 IEnMin= 9 EnMin= -3531.40246529370     IErMin= 9 ErrMin= 1.59D-03
 ErrMax= 1.59D-03  0.00D+00 EMaxC= 1.00D-01 BMatC= 1.49D-02 BMatP= 3.58D-02
 IDIUse=3 WtCom= 9.84D-01 WtEn= 1.59D-02
 Coeff-Com: -0.410D-01 0.511D-01-0.574D-02 0.340D-02 0.600D-02 0.758D-02
 Coeff-Com:  0.203D-01 0.212D+00 0.746D+00
 Coeff-En:   0.000D+00 0.000D+00 0.000D+00 0.000D+00 0.000D+00 0.000D+00
 Coeff-En:   0.000D+00 0.000D+00 0.100D+01
 Coeff:     -0.403D-01 0.503D-01-0.565D-02 0.335D-02 0.591D-02 0.746D-02
 Coeff:      0.200D-01 0.209D+00 0.750D+00
 Gap=     0.109 Goal=   None    Shift=    0.000
 Gap=     0.108 Goal=   None    Shift=    0.000
 RMSDP=3.21D-04 MaxDP=3.82D-02 DE=-5.95D-03 OVMax= 1.15D-02

 Cycle  10  Pass 1  IDiag  1:
 RMSU=  2.55D-04    CP:  6.33D-01  2.76D+00  4.58D-01  5.00D-01  6.85D-01
                    CP:  6.14D-01  1.05D+00  9.31D-01  1.23D+00
 E= -3531.40467154475     Delta-E=       -0.002206251047 Rises=F Damp=F
 DIIS: error= 8.31D-04 at cycle  10 NSaved=  10.
 NSaved=10 IEnMin=10 EnMin= -3531.40467154475     IErMin=10 ErrMin= 8.31D-04
 ErrMax= 8.31D-04  0.00D+00 EMaxC= 1.00D-01 BMatC= 3.90D-03 BMatP= 1.49D-02
 IDIUse=3 WtCom= 9.92D-01 WtEn= 8.31D-03
 Coeff-Com: -0.485D-02 0.316D-02-0.116D-01 0.104D-02 0.184D-01-0.319D-01
 Coeff-Com: -0.524D-01-0.498D-01 0.359D+00 0.769D+00
 Coeff-En:   0.000D+00 0.000D+00 0.000D+00 0.000D+00 0.000D+00 0.000D+00
 Coeff-En:   0.000D+00 0.000D+00 0.000D+00 0.100D+01
 Coeff:     -0.481D-02 0.313D-02-0.115D-01 0.103D-02 0.182D-01-0.316D-01
 Coeff:     -0.520D-01-0.494D-01 0.356D+00 0.771D+00
 Gap=     0.107 Goal=   None    Shift=    0.000
 Gap=     0.104 Goal=   None    Shift=    0.000
 RMSDP=1.91D-04 MaxDP=2.55D-02 DE=-2.21D-03 OVMax= 8.60D-03

 Cycle  11  Pass 1  IDiag  1:
 RMSU=  1.47D-04    CP:  6.33D-01  2.78D+00  4.53D-01  5.03D-01  6.87D-01
                    CP:  6.21D-01  1.05D+00  9.92D-01  1.38D+00  1.08D+00
 E= -3531.40504438275     Delta-E=       -0.000372838002 Rises=F Damp=F
 DIIS: error= 2.37D-04 at cycle  11 NSaved=  11.
 NSaved=11 IEnMin=11 EnMin= -3531.40504438275     IErMin=11 ErrMin= 2.37D-04
 ErrMax= 2.37D-04  0.00D+00 EMaxC= 1.00D-01 BMatC= 1.41D-03 BMatP= 3.90D-03
 IDIUse=3 WtCom= 9.98D-01 WtEn= 2.37D-03
 Coeff-Com:  0.311D-02-0.437D-02-0.450D-02 0.176D-03 0.346D-02-0.993D-02
 Coeff-Com:  0.599D-02-0.766D-01-0.369D-01 0.570D+00 0.550D+00
 Coeff-En:   0.000D+00 0.000D+00 0.000D+00 0.000D+00 0.000D+00 0.000D+00
 Coeff-En:   0.000D+00 0.000D+00 0.000D+00 0.247D+00 0.753D+00
 Coeff:      0.310D-02-0.436D-02-0.449D-02 0.176D-03 0.345D-02-0.991D-02
 Coeff:      0.598D-02-0.764D-01-0.368D-01 0.569D+00 0.550D+00
 Gap=     0.106 Goal=   None    Shift=    0.000
 Gap=     0.104 Goal=   None    Shift=    0.000
 RMSDP=9.81D-05 MaxDP=1.75D-02 DE=-3.73D-04 OVMax= 5.21D-03

 Cycle  12  Pass 1  IDiag  1:
 RMSU=  6.46D-05    CP:  6.33D-01  2.78D+00  4.51D-01  5.02D-01  6.85D-01
                    CP:  6.18D-01  1.06D+00  9.64D-01  1.46D+00  1.12D+00
                    CP:  7.49D-01
 E= -3531.40533210536     Delta-E=       -0.000287722604 Rises=F Damp=F
 DIIS: error= 1.02D-04 at cycle  12 NSaved=  12.
 NSaved=12 IEnMin=12 EnMin= -3531.40533210536     IErMin=12 ErrMin= 1.02D-04
 ErrMax= 1.02D-04  0.00D+00 EMaxC= 1.00D-01 BMatC= 1.79D-04 BMatP= 1.41D-03
 IDIUse=3 WtCom= 9.99D-01 WtEn= 1.02D-03
 Coeff-Com:  0.453D-03-0.809D-04-0.381D-03 0.121D-03-0.176D-02 0.201D-02
 Coeff-Com:  0.211D-01-0.369D-01-0.809D-01 0.256D+00 0.356D+00 0.485D+00
 Coeff-En:   0.000D+00 0.000D+00 0.000D+00 0.000D+00 0.000D+00 0.000D+00
 Coeff-En:   0.000D+00 0.000D+00 0.000D+00 0.000D+00 0.178D-01 0.982D+00
 Coeff:      0.452D-03-0.808D-04-0.381D-03 0.121D-03-0.175D-02 0.201D-02
 Coeff:      0.211D-01-0.368D-01-0.808D-01 0.255D+00 0.355D+00 0.485D+00
 Gap=     0.107 Goal=   None    Shift=    0.000
 Gap=     0.105 Goal=   None    Shift=    0.000
 RMSDP=4.73D-05 MaxDP=1.26D-02 DE=-2.88D-04 OVMax= 1.69D-03

 Cycle  13  Pass 1  IDiag  1:
 RMSU=  2.20D-05    CP:  6.33D-01  2.78D+00  4.51D-01  5.03D-01  6.87D-01
                    CP:  6.15D-01  1.06D+00  9.48D-01  1.44D+00  1.18D+00
                    CP:  7.54D-01  6.72D-01
 E= -3531.40537325382     Delta-E=       -0.000041148464 Rises=F Damp=F
 DIIS: error= 1.93D-05 at cycle  13 NSaved=  13.
 NSaved=13 IEnMin=13 EnMin= -3531.40537325382     IErMin=13 ErrMin= 1.93D-05
 ErrMax= 1.93D-05  0.00D+00 EMaxC= 1.00D-01 BMatC= 6.02D-06 BMatP= 1.79D-04
 IDIUse=1 WtCom= 1.00D+00 WtEn= 0.00D+00
 Coeff-Com:  0.546D-03-0.652D-03-0.185D-03 0.205D-04-0.645D-03 0.925D-03
 Coeff-Com:  0.706D-02-0.103D-01-0.291D-01 0.667D-01 0.106D+00 0.210D+00
 Coeff-Com:  0.650D+00
 Coeff:      0.546D-03-0.652D-03-0.185D-03 0.205D-04-0.645D-03 0.925D-03
 Coeff:      0.706D-02-0.103D-01-0.291D-01 0.667D-01 0.106D+00 0.210D+00
 Coeff:      0.650D+00
 Gap=     0.107 Goal=   None    Shift=    0.000
 Gap=     0.105 Goal=   None    Shift=    0.000
 RMSDP=1.21D-05 MaxDP=2.14D-03 DE=-4.11D-05 OVMax= 5.36D-04

 Cycle  14  Pass 1  IDiag  1:
 RMSU=  9.61D-06    CP:  6.33D-01  2.78D+00  4.51D-01  5.03D-01  6.87D-01
                    CP:  6.15D-01  1.06D+00  9.51D-01  1.44D+00  1.20D+00
                    CP:  7.71D-01  6.72D-01  8.81D-01
 E= -3531.40537494243     Delta-E=       -0.000001688613 Rises=F Damp=F
 DIIS: error= 1.01D-05 at cycle  14 NSaved=  14.
 NSaved=14 IEnMin=14 EnMin= -3531.40537494243     IErMin=14 ErrMin= 1.01D-05
 ErrMax= 1.01D-05  0.00D+00 EMaxC= 1.00D-01 BMatC= 1.68D-06 BMatP= 6.02D-06
 IDIUse=1 WtCom= 1.00D+00 WtEn= 0.00D+00
 Coeff-Com:  0.619D-04-0.112D-03 0.562D-04-0.185D-04 0.723D-04-0.735D-04
 Coeff-Com: -0.174D-02 0.401D-02 0.710D-02-0.275D-01-0.367D-01-0.151D-01
 Coeff-Com:  0.326D+00 0.744D+00
 Coeff:      0.619D-04-0.112D-03 0.562D-04-0.185D-04 0.723D-04-0.735D-04
 Coeff:     -0.174D-02 0.401D-02 0.710D-02-0.275D-01-0.367D-01-0.151D-01
 Coeff:      0.326D+00 0.744D+00
 Gap=     0.107 Goal=   None    Shift=    0.000
 Gap=     0.105 Goal=   None    Shift=    0.000
 RMSDP=5.47D-06 MaxDP=9.75D-04 DE=-1.69D-06 OVMax= 3.48D-04

 Cycle  15  Pass 1  IDiag  1:
 RMSU=  4.32D-06    CP:  6.33D-01  2.78D+00  4.51D-01  5.03D-01  6.87D-01
                    CP:  6.15D-01  1.06D+00  9.51D-01  1.44D+00  1.19D+00
                    CP:  7.67D-01  6.81D-01  9.79D-01  1.03D+00
 E= -3531.40537555943     Delta-E=       -0.000000616999 Rises=F Damp=F
 DIIS: error= 5.11D-06 at cycle  15 NSaved=  15.
 NSaved=15 IEnMin=15 EnMin= -3531.40537555943     IErMin=15 ErrMin= 5.11D-06
 ErrMax= 5.11D-06  0.00D+00 EMaxC= 1.00D-01 BMatC= 3.50D-07 BMatP= 1.68D-06
 IDIUse=1 WtCom= 1.00D+00 WtEn= 0.00D+00
 Coeff-Com:  0.376D-04-0.696D-04 0.317D-04-0.150D-04 0.170D-03-0.313D-03
 Coeff-Com: -0.217D-02 0.341D-02 0.901D-02-0.218D-01-0.346D-01-0.411D-01
 Coeff-Com:  0.428D-01 0.326D+00 0.718D+00
 Coeff:      0.376D-04-0.696D-04 0.317D-04-0.150D-04 0.170D-03-0.313D-03
 Coeff:     -0.217D-02 0.341D-02 0.901D-02-0.218D-01-0.346D-01-0.411D-01
 Coeff:      0.428D-01 0.326D+00 0.718D+00
 Gap=     0.107 Goal=   None    Shift=    0.000
 Gap=     0.105 Goal=   None    Shift=    0.000
 RMSDP=3.13D-06 MaxDP=3.53D-04 DE=-6.17D-07 OVMax= 1.87D-04

 Cycle  16  Pass 1  IDiag  1:
 RMSU=  2.49D-06    CP:  6.33D-01  2.78D+00  4.51D-01  5.03D-01  6.87D-01
                    CP:  6.15D-01  1.06D+00  9.51D-01  1.44D+00  1.19D+00
                    CP:  7.65D-01  6.92D-01  1.03D+00  1.07D+00  9.83D-01
 E= -3531.40537567534     Delta-E=       -0.000000115904 Rises=F Damp=F
 DIIS: error= 3.83D-06 at cycle  16 NSaved=  16.
 NSaved=16 IEnMin=16 EnMin= -3531.40537567534     IErMin=16 ErrMin= 3.83D-06
 ErrMax= 3.83D-06  0.00D+00 EMaxC= 1.00D-01 BMatC= 1.24D-07 BMatP= 3.50D-07
 IDIUse=1 WtCom= 1.00D+00 WtEn= 0.00D+00
 Coeff-Com: -0.298D-04 0.753D-04 0.159D-04-0.627D-05 0.764D-04-0.267D-03
 Coeff-Com: -0.909D-03 0.954D-03 0.401D-02-0.494D-02-0.115D-01-0.218D-01
 Coeff-Com: -0.723D-01-0.206D-01 0.458D+00 0.670D+00
 Coeff:     -0.298D-04 0.753D-04 0.159D-04-0.627D-05 0.764D-04-0.267D-03
 Coeff:     -0.909D-03 0.954D-03 0.401D-02-0.494D-02-0.115D-01-0.218D-01
 Coeff:     -0.723D-01-0.206D-01 0.458D+00 0.670D+00
 Gap=     0.107 Goal=   None    Shift=    0.000
 Gap=     0.105 Goal=   None    Shift=    0.000
 RMSDP=1.80D-06 MaxDP=2.16D-04 DE=-1.16D-07 OVMax= 1.07D-04

 Cycle  17  Pass 1  IDiag  1:
 RMSU=  1.16D-06    CP:  6.33D-01  2.78D+00  4.51D-01  5.03D-01  6.87D-01
                    CP:  6.15D-01  1.06D+00  9.51D-01  1.44D+00  1.19D+00
                    CP:  7.66D-01  6.95D-01  1.05D+00  1.14D+00  1.15D+00
                    CP:  8.03D-01
 E= -3531.40537572295     Delta-E=       -0.000000047610 Rises=F Damp=F
 DIIS: error= 1.28D-06 at cycle  17 NSaved=  17.
 NSaved=17 IEnMin=17 EnMin= -3531.40537572295     IErMin=17 ErrMin= 1.28D-06
 ErrMax= 1.28D-06  0.00D+00 EMaxC= 1.00D-01 BMatC= 1.74D-08 BMatP= 1.24D-07
 IDIUse=1 WtCom= 1.00D+00 WtEn= 0.00D+00
 Coeff-Com:  0.926D-05 0.594D-05-0.438D-05-0.230D-07 0.437D-05-0.629D-04
 Coeff-Com:  0.198D-04-0.294D-03 0.743D-04 0.255D-02 0.190D-02-0.543D-03
 Coeff-Com: -0.457D-01-0.833D-01 0.594D-01 0.329D+00 0.737D+00
 Coeff:      0.926D-05 0.594D-05-0.438D-05-0.230D-07 0.437D-05-0.629D-04
 Coeff:      0.198D-04-0.294D-03 0.743D-04 0.255D-02 0.190D-02-0.543D-03
 Coeff:     -0.457D-01-0.833D-01 0.594D-01 0.329D+00 0.737D+00
 Gap=     0.107 Goal=   None    Shift=    0.000
 Gap=     0.105 Goal=   None    Shift=    0.000
 RMSDP=7.62D-07 MaxDP=1.17D-04 DE=-4.76D-08 OVMax= 5.41D-05

 Cycle  18  Pass 1  IDiag  1:
 RMSU=  4.50D-07    CP:  6.33D-01  2.78D+00  4.51D-01  5.03D-01  6.87D-01
                    CP:  6.15D-01  1.06D+00  9.51D-01  1.44D+00  1.19D+00
                    CP:  7.65D-01  6.95D-01  1.05D+00  1.16D+00  1.24D+00
                    CP:  9.53D-01  9.46D-01
 E= -3531.40537573048     Delta-E=       -0.000000007533 Rises=F Damp=F
 DIIS: error= 4.25D-07 at cycle  18 NSaved=  18.
 NSaved=18 IEnMin=18 EnMin= -3531.40537573048     IErMin=18 ErrMin= 4.25D-07
 ErrMax= 4.25D-07  0.00D+00 EMaxC= 1.00D-01 BMatC= 2.79D-09 BMatP= 1.74D-08
 IDIUse=1 WtCom= 1.00D+00 WtEn= 0.00D+00
 Coeff-Com:  0.177D-04-0.217D-04-0.815D-05 0.901D-06-0.345D-05 0.159D-05
 Coeff-Com:  0.123D-03-0.305D-03-0.556D-03 0.189D-02 0.258D-02 0.305D-02
 Coeff-Com: -0.112D-01-0.374D-01-0.391D-01 0.633D-01 0.371D+00 0.646D+00
 Coeff:      0.177D-04-0.217D-04-0.815D-05 0.901D-06-0.345D-05 0.159D-05
 Coeff:      0.123D-03-0.305D-03-0.556D-03 0.189D-02 0.258D-02 0.305D-02
 Coeff:     -0.112D-01-0.374D-01-0.391D-01 0.633D-01 0.371D+00 0.646D+00
 Gap=     0.107 Goal=   None    Shift=    0.000
 Gap=     0.105 Goal=   None    Shift=    0.000
 RMSDP=2.79D-07 MaxDP=4.27D-05 DE=-7.53D-09 OVMax= 1.95D-05

 Cycle  19  Pass 1  IDiag  1:
 RMSU=  2.04D-07    CP:  6.33D-01  2.78D+00  4.51D-01  5.03D-01  6.87D-01
                    CP:  6.15D-01  1.06D+00  9.51D-01  1.44D+00  1.19D+00
                    CP:  7.66D-01  6.94D-01  1.05D+00  1.16D+00  1.24D+00
                    CP:  9.83D-01  1.03D+00  8.81D-01
 E= -3531.40537573156     Delta-E=       -0.000000001074 Rises=F Damp=F
 DIIS: error= 2.22D-07 at cycle  19 NSaved=  19.
 NSaved=19 IEnMin=19 EnMin= -3531.40537573156     IErMin=19 ErrMin= 2.22D-07
 ErrMax= 2.22D-07  0.00D+00 EMaxC= 1.00D-01 BMatC= 5.69D-10 BMatP= 2.79D-09
 IDIUse=1 WtCom= 1.00D+00 WtEn= 0.00D+00
 Coeff-Com: -0.412D-06-0.162D-05-0.209D-06 0.471D-06-0.484D-05 0.212D-04
 Coeff-Com:  0.668D-04-0.508D-04-0.287D-03 0.167D-03 0.621D-03 0.122D-02
 Coeff-Com:  0.475D-02 0.211D-02-0.254D-01-0.391D-01-0.552D-02 0.224D+00
 Coeff-Com:  0.837D+00
 Coeff:     -0.412D-06-0.162D-05-0.209D-06 0.471D-06-0.484D-05 0.212D-04
 Coeff:      0.668D-04-0.508D-04-0.287D-03 0.167D-03 0.621D-03 0.122D-02
 Coeff:      0.475D-02 0.211D-02-0.254D-01-0.391D-01-0.552D-02 0.224D+00
 Coeff:      0.837D+00
 Gap=     0.107 Goal=   None    Shift=    0.000
[...]
    13   Atom       -0.010605      0.007614      0.002991
    14   Atom       -0.243004      0.072191      0.170813
    15   Atom        0.048198     -0.068821      0.020623
    16   Atom        0.074026     -0.157295      0.083269
    17   Atom       -0.013036      0.026591     -0.013555
    18   Atom       -0.145338      0.254060     -0.108722
    19   Atom       -0.122769     -0.117221      0.239990
    20   Atom        0.043154     -0.023394     -0.019760
    21   Atom        0.004380     -0.004954      0.000574
    22   Atom        0.002056     -0.002337      0.000281
    23   Atom        0.001951     -0.000990     -0.000961
    24   Atom        0.003104      0.000787     -0.003891
    25   Atom        0.003982     -0.010199      0.006218
    26   Atom        0.010958     -0.006198     -0.004760
    27   Atom        0.001978     -0.001492     -0.000485
    28   Atom        0.004513     -0.001484     -0.003030
    29   Atom       -0.001370      0.002233     -0.000862
    30   Atom        0.000077      0.002528     -0.002605
    31   Atom       -0.003369      0.010887     -0.007518
    32   Atom       -0.006510      0.013080     -0.006570
    33   Atom       -0.018768      0.034880     -0.016112
    34   Atom       -0.009374      0.021928     -0.012554
    35   Atom       -0.005594      0.004778      0.000816
    36   Atom       -0.013696      0.001635      0.012061
    37   Atom       -0.006044     -0.000198      0.006242
    38   Atom        0.010154     -0.006102     -0.004052
    39   Atom        0.004272     -0.004365      0.000093
    40   Atom        0.005519     -0.002218     -0.003302
    41   Atom        0.002191      0.000114     -0.002305
    42   Atom        0.006647     -0.002087     -0.004560
    43   Atom        0.003543     -0.001791     -0.001752
    44   Atom        0.000977      0.001042     -0.002018
    45   Atom        0.000124     -0.000202      0.000078
    46   Atom        0.000958      0.003425     -0.004383
 --------------------------------------------------------
                        XY            XZ            YZ
 --------------------------------------------------------
     1   Atom       -0.007570      0.004680     -0.003807
     2   Atom       -0.013422      0.014612     -0.002792
     3   Atom       -0.002687      0.016999     -0.000350
     4   Atom        0.000141      0.009102     -0.000184
     5   Atom       -0.001637      0.005042     -0.000893
     6   Atom       -0.003140      0.004181     -0.001572
     7   Atom       -0.052497     -0.005125      0.004293
     8   Atom       -0.006770     -0.022968      0.003122
     9   Atom       -0.006422     -0.005154      0.003518
    10   Atom       -0.007148     -0.004107      0.004946
    11   Atom       -0.014788     -0.003480      0.008341
    12   Atom       -0.006129     -0.002748      0.014043
    13   Atom       -0.003437     -0.001897      0.017228
    14   Atom        0.118708     -0.186981      0.079436
    15   Atom       -0.071289     -0.037091      0.090138
    16   Atom        0.087549      0.273588      0.035982
    17   Atom        0.003373      0.000145      0.004105
    18   Atom        0.078493      0.030274      0.026601
    19   Atom        0.086875     -0.112518     -0.172722
    20   Atom        0.014101      0.025541      0.006539
    21   Atom        0.002428      0.007966      0.001955
    22   Atom       -0.000673      0.003445     -0.000500
    23   Atom       -0.002342      0.002309     -0.001277
    24   Atom       -0.006312      0.001792     -0.001457
    25   Atom       -0.005954     -0.015588      0.004799
    26   Atom        0.000349     -0.006189      0.000602
    27   Atom       -0.002967     -0.003696      0.001956
    28   Atom       -0.004270     -0.002061      0.001101
    29   Atom       -0.004112     -0.002706      0.004527
    30   Atom       -0.004462     -0.001372      0.001637
    31   Atom       -0.010515      0.000073     -0.001611
    32   Atom        0.000878     -0.000018      0.001479
    33   Atom        0.000304     -0.001405     -0.009368
    34   Atom        0.012927      0.002981      0.007332
    35   Atom        0.000384      0.000440      0.008887
    36   Atom        0.000812      0.003857      0.023939
    37   Atom       -0.003660     -0.004458      0.011048
    38   Atom        0.005378     -0.009736     -0.002233
    39   Atom       -0.000091     -0.002051      0.004439
    40   Atom        0.004855     -0.004027     -0.001824
    41   Atom        0.005662     -0.004595     -0.003442
    42   Atom        0.005114     -0.001657     -0.000662
    43   Atom        0.002538     -0.002830     -0.001093
    44   Atom        0.003940     -0.002024     -0.001918
    45   Atom        0.003854     -0.004074     -0.003757
    46   Atom        0.009614     -0.005865     -0.005831
 --------------------------------------------------------


 ---------------------------------------------------------------------------------
              Anisotropic Spin Dipole Couplings in Principal Axis System
 ---------------------------------------------------------------------------------

       Atom             a.u.   MegaHertz   Gauss  10(-4) cm-1        Axes

              Baa    -0.0069    -0.922    -0.329    -0.308  0.3660  0.8323  0.4163
     1 C(13)  Bbb    -0.0054    -0.723    -0.258    -0.241 -0.5150 -0.1915  0.8355
              Bcc     0.0123     1.645     0.587     0.549  0.7751 -0.5202  0.3586
 
              Baa    -0.0183    -2.456    -0.877    -0.819  0.4361  0.8363 -0.3323
     2 C(13)  Bbb    -0.0113    -1.517    -0.541    -0.506 -0.2171  0.4561  0.8630
              Bcc     0.0296     3.974     1.418     1.326  0.8733 -0.3042  0.3805
 
              Baa    -0.0158    -2.123    -0.757    -0.708  0.3374  0.6861 -0.6445
     3 C(13)  Bbb    -0.0142    -1.909    -0.681    -0.637 -0.2470  0.7252  0.6427
              Bcc     0.0300     4.031     1.439     1.345  0.9084 -0.0576  0.4141
 
              Baa    -0.0070    -0.938    -0.335    -0.313 -0.2012  0.9327  0.2994
     4 C(13)  Bbb    -0.0063    -0.846    -0.302    -0.282 -0.5185 -0.3608  0.7753
              Bcc     0.0133     1.784     0.637     0.595  0.8311  0.0007  0.5562
 
              Baa    -0.0040    -0.533    -0.190    -0.178  0.3954  0.8453 -0.3593
     5 C(13)  Bbb    -0.0037    -0.493    -0.176    -0.165 -0.3901  0.5087  0.7675
              Bcc     0.0076     1.026     0.366     0.342  0.8315 -0.1633  0.5309
 
              Baa    -0.0039    -0.517    -0.185    -0.173  0.5247  0.7498 -0.4031
     6 C(13)  Bbb    -0.0036    -0.477    -0.170    -0.159 -0.2064  0.5714  0.7943
              Bcc     0.0074     0.995     0.355     0.332  0.8259 -0.3336  0.4545
 
              Baa    -0.0400    -5.367    -1.915    -1.790  0.4369  0.7530 -0.4921
     7 C(13)  Bbb    -0.0378    -5.076    -1.811    -1.693  0.3031  0.3918  0.8687
              Bcc     0.0778    10.444     3.727     3.484  0.8469 -0.5287 -0.0571
 
              Baa    -0.0180    -2.420    -0.863    -0.807  0.5178  0.5885  0.6209
     8 C(13)  Bbb    -0.0156    -2.097    -0.748    -0.699 -0.2293  0.7947 -0.5620
              Bcc     0.0337     4.516     1.611     1.506  0.8242 -0.1486 -0.5464
 
              Baa    -0.0061    -0.816    -0.291    -0.272  0.3631 -0.1638  0.9172
     9 C(13)  Bbb    -0.0051    -0.687    -0.245    -0.229  0.5471  0.8343 -0.0676
              Bcc     0.0112     1.503     0.536     0.501  0.7542 -0.5264 -0.3926
 
              Baa    -0.0060    -0.806    -0.288    -0.269  0.5323 -0.0410  0.8456
    10 C(13)  Bbb    -0.0057    -0.764    -0.273    -0.255  0.6213  0.6974 -0.3573
              Bcc     0.0117     1.570     0.560     0.524 -0.5751  0.7155  0.3966
 
              Baa    -0.0196    -2.632    -0.939    -0.878  0.1647 -0.1209  0.9789
    11 C(13)  Bbb    -0.0148    -1.992    -0.711    -0.664  0.9315  0.3455 -0.1141
              Bcc     0.0345     4.624     1.650     1.542 -0.3244  0.9306  0.1695
 
              Baa    -0.0144    -1.928    -0.688    -0.643  0.0390 -0.3864  0.9215
    12 C(13)  Bbb    -0.0114    -1.530    -0.546    -0.510  0.9822  0.1845  0.0358
              Bcc     0.0258     3.457     1.234     1.153 -0.1838  0.9037  0.3867
 
              Baa    -0.0125    -1.683    -0.600    -0.561 -0.4817 -0.6154  0.6239
    13 C(13)  Bbb    -0.0106    -1.420    -0.507    -0.474  0.8690 -0.2436  0.4307
              Bcc     0.0231     3.103     1.107     1.035 -0.1131  0.7496  0.6522
 
              Baa    -0.3601    26.053     9.296     8.690  0.8820 -0.3078  0.3567
    14 O(17)  Bbb     0.1103    -7.984    -2.849    -2.663  0.3625  0.9269 -0.0966
              Bcc     0.2497   -18.069    -6.447    -6.027 -0.3009  0.2146  0.9292
 
              Baa    -0.1352    -2.341    -0.835    -0.781  0.2464  0.8632 -0.4407
    15 Fe(57) Bbb    -0.0004    -0.006    -0.002    -0.002  0.7223  0.1396  0.6773
              Bcc     0.1355     2.347     0.837     0.783  0.6462 -0.4852 -0.5891
 
              Baa    -0.2219   -11.614    -4.144    -3.874  0.6375 -0.5839 -0.5027
    16 Cl(35) Bbb    -0.1449    -7.584    -2.706    -2.530  0.3235  0.7950 -0.5132
              Bcc     0.3668    19.197     6.850     6.404  0.6993  0.1646  0.6956
 
              Baa    -0.0140    -1.882    -0.672    -0.628  0.2645 -0.1187  0.9570
    17 C(13)  Bbb    -0.0133    -1.780    -0.635    -0.594  0.9608 -0.0533 -0.2722
              Bcc     0.0273     3.662     1.307     1.221  0.0833  0.9915  0.1000
 
              Baa    -0.1705    -8.926    -3.185    -2.977  0.9118 -0.1445 -0.3844
    18 Cl(35) Bbb    -0.1011    -5.289    -1.887    -1.764  0.3639 -0.1493  0.9194
              Bcc     0.2716    14.215     5.072     4.742  0.1902  0.9782  0.0836
 
              Baa    -0.2137   -11.186    -3.992    -3.731 -0.5645  0.8082  0.1677
    19 Cl(35) Bbb    -0.1360    -7.118    -2.540    -2.374  0.7766  0.4512  0.4397
              Bcc     0.3497    18.304     6.531     6.106 -0.2797 -0.3784  0.8824
 
              Baa    -0.0295   -15.732    -5.614    -5.248 -0.2290 -0.4151  0.8805
    20 H(1)   Bbb    -0.0258   -13.754    -4.908    -4.588 -0.3075  0.8891  0.3391
              Bcc     0.0553    29.486    10.521     9.835  0.9236  0.1931  0.3313
 
              Baa    -0.0057    -3.051    -1.089    -1.018 -0.5833 -0.1756  0.7930
    21 H(1)   Bbb    -0.0055    -2.960    -1.056    -0.987 -0.2566  0.9662  0.0253
              Bcc     0.0113     6.011     2.145     2.005  0.7706  0.1887  0.6087
 
              Baa    -0.0024    -1.302    -0.465    -0.434  0.2801  0.9427 -0.1813
    22 H(1)   Bbb    -0.0024    -1.272    -0.454    -0.424 -0.5523  0.3127  0.7728
              Bcc     0.0048     2.574     0.918     0.859  0.7852 -0.1163  0.6082
 
              Baa    -0.0023    -1.219    -0.435    -0.407  0.4795  0.8775  0.0102
    23 H(1)   Bbb    -0.0022    -1.191    -0.425    -0.397 -0.3852  0.2000  0.9009
              Bcc     0.0045     2.410     0.860     0.804  0.7885 -0.4359  0.4339
 
              Baa    -0.0045    -2.389    -0.852    -0.797  0.6537  0.7398 -0.1592
    24 H(1)   Bbb    -0.0043    -2.298    -0.820    -0.767 -0.0324  0.2376  0.9708
              Bcc     0.0088     4.687     1.672     1.563  0.7561 -0.6294  0.1793
 
              Baa    -0.0125    -6.679    -2.383    -2.228  0.4780  0.8603  0.1774
    25 H(1)   Bbb    -0.0100    -5.317    -1.897    -1.773  0.5690 -0.4571  0.6836
              Bcc     0.0225    11.996     4.280     4.001 -0.6692  0.2259  0.7080
 
              Baa    -0.0073    -0.982    -0.351    -0.328  0.2828 -0.5203  0.8058
    26 C(13)  Bbb    -0.0058    -0.776    -0.277    -0.259  0.1647  0.8539  0.4936
              Bcc     0.0131     1.758     0.627     0.587  0.9450  0.0069 -0.3271
 
              Baa    -0.0033    -1.744    -0.622    -0.582  0.6579  0.6049  0.4485
    27 H(1)   Bbb    -0.0030    -1.599    -0.571    -0.533  0.1318 -0.6789  0.7223
              Bcc     0.0063     3.343     1.193     1.115  0.7415 -0.4162 -0.5264
 
              Baa    -0.0037    -1.978    -0.706    -0.660  0.4203  0.8913 -0.1700
    28 H(1)   Bbb    -0.0036    -1.897    -0.677    -0.633  0.2739  0.0540  0.9602
              Bcc     0.0073     3.875     1.383     1.293  0.8651 -0.4502 -0.2214
 
              Baa    -0.0042    -2.245    -0.801    -0.749  0.4778  0.6886 -0.5455
    29 H(1)   Bbb    -0.0038    -2.046    -0.730    -0.682  0.7464  0.0093  0.6655
              Bcc     0.0080     4.290     1.531     1.431 -0.4633  0.7251  0.5095
 
              Baa    -0.0034    -1.793    -0.640    -0.598  0.7917  0.5038  0.3456
    30 H(1)   Bbb    -0.0031    -1.639    -0.585    -0.547 -0.1512 -0.3865  0.9098
              Bcc     0.0064     3.433     1.225     1.145 -0.5919  0.7725  0.2298
 
              Baa    -0.0092    -4.928    -1.758    -1.644  0.8035  0.4510  0.3885
    31 H(1)   Bbb    -0.0073    -3.903    -1.393    -1.302 -0.3702 -0.1325  0.9194
              Bcc     0.0166     8.831     3.151     2.946 -0.4661  0.8826 -0.0605
 
              Baa    -0.0067    -3.586    -1.280    -1.196  0.4339 -0.0862  0.8968
    32 H(1)   Bbb    -0.0065    -3.473    -1.239    -1.158  0.8999 -0.0074 -0.4361
              Bcc     0.0132     7.059     2.519     2.354  0.0443  0.9962  0.0744
 
              Baa    -0.0197   -10.509    -3.750    -3.505  0.8216  0.0920  0.5626
    33 H(1)   Bbb    -0.0169    -8.994    -3.209    -3.000 -0.5700  0.1496  0.8079
              Bcc     0.0366    19.502     6.959     6.505  0.0099  0.9845 -0.1754
 
              Baa    -0.0144    -7.671    -2.737    -2.559 -0.6767  0.0935  0.7303
    34 H(1)   Bbb    -0.0137    -7.329    -2.615    -2.445  0.6564 -0.3728  0.6559
              Bcc     0.0281    15.000     5.353     5.004  0.3335  0.9232  0.1909
 
              Baa    -0.0063    -3.374    -1.204    -1.125 -0.1432 -0.6155  0.7750
    35 H(1)   Bbb    -0.0056    -2.987    -1.066    -0.996  0.9892 -0.1150  0.0915
              Bcc     0.0119     6.361     2.270     2.122  0.0328  0.7797  0.6253
 
              Baa    -0.0184    -9.803    -3.498    -3.270  0.3741  0.7053 -0.6022
    36 H(1)   Bbb    -0.0132    -7.068    -2.522    -2.358  0.9242 -0.3377  0.1786
              Bcc     0.0316    16.871     6.020     5.628  0.0774  0.6233  0.7781
 
              Baa    -0.0085    -4.559    -1.627    -1.521  0.2306  0.8116 -0.5368
    37 H(1)   Bbb    -0.0075    -3.995    -1.426    -1.333  0.9397 -0.0426  0.3394
              Bcc     0.0160     8.555     3.053     2.854 -0.2526  0.5827  0.7724
 
              Baa    -0.0091     0.660     0.236     0.220  0.4925 -0.2636  0.8294
    38 O(17)  Bbb    -0.0075     0.540     0.193     0.180 -0.0910  0.9322  0.3503
              Bcc     0.0166    -1.200    -0.428    -0.400  0.8656  0.2480 -0.4351
 
              Baa    -0.0072     0.520     0.186     0.174 -0.0893  0.8392 -0.5364
    39 O(17)  Bbb     0.0017    -0.120    -0.043    -0.040  0.5477  0.4913  0.6773
              Bcc     0.0055    -0.401    -0.143    -0.134  0.8319 -0.2333 -0.5035
 
              Baa    -0.0049    -0.654    -0.233    -0.218  0.4126 -0.1359  0.9007
    40 C(13)  Bbb    -0.0045    -0.607    -0.217    -0.203 -0.3225  0.9029  0.2840
              Bcc     0.0094     1.261     0.450     0.421  0.8519  0.4077 -0.3287
 
              Baa    -0.0052    -0.695    -0.248    -0.232  0.5695 -0.0770  0.8184
    41 C(13)  Bbb    -0.0045    -0.601    -0.214    -0.201 -0.4334  0.8178  0.3786
              Bcc     0.0097     1.296     0.462     0.432  0.6985  0.5703 -0.4323
 
              Baa    -0.0048    -2.568    -0.916    -0.857  0.2141 -0.1680  0.9623
    42 H(1)   Bbb    -0.0044    -2.359    -0.842    -0.787 -0.3773  0.8944  0.2401
              Bcc     0.0092     4.928     1.758     1.644  0.9010  0.4145 -0.1281
 
              Baa    -0.0030    -1.590    -0.567    -0.530  0.4101 -0.0378  0.9113
    43 H(1)   Bbb    -0.0028    -1.494    -0.533    -0.498 -0.2984  0.9386  0.1732
              Bcc     0.0058     3.084     1.100     1.029  0.8619  0.3429 -0.3737
 
              Baa    -0.0031    -1.628    -0.581    -0.543  0.5905 -0.2024  0.7813
    44 H(1)   Bbb    -0.0029    -1.534    -0.547    -0.512 -0.4547  0.7164  0.5292
              Bcc     0.0059     3.162     1.128     1.055  0.6668  0.6677 -0.3310
 
              Baa    -0.0040    -2.126    -0.759    -0.709  0.7828 -0.2191  0.5824
    45 H(1)   Bbb    -0.0038    -2.033    -0.726    -0.678 -0.1973  0.8002  0.5663
              Bcc     0.0078     4.160     1.484     1.388  0.5901  0.5582 -0.5832
 
              Baa    -0.0082    -4.378    -1.562    -1.460  0.6439 -0.1568  0.7489
    46 H(1)   Bbb    -0.0071    -3.807    -1.358    -1.270 -0.4534  0.7102  0.5385
              Bcc     0.0153     8.184     2.920     2.730  0.6163  0.6863 -0.3862
 

 ---------------------------------------------------------------------------------

 No NMR shielding tensors so no spin-rotation constants.
 Leave Link  601 at Sun Jun 20 10:29:09 2021, MaxMem=  2147483648 cpu:             102.6 elap:               6.6
 (Enter /SFS/product/gaussian/g16.a03/x86_64/avx/g16/l9999.exe)
 1\1\GINC-KTCHPCPX177\SP\UB3LYP\Jul-CC-pVDZ\C17H22Cl3Fe1O3(6)\KWANEU\20
 -Jun-2021\0\\#p ub3lyp jul-cc-pvdz pop=cm5 scrf=(pcm,solvent=water) gu
 ess=read geom=allcheck\\title\\0,6\C,0,2.2370774193,-1.693297602,1.616
 4899366\C,0,1.3910294959,-0.735678916,1.0361380734\C,0,1.2749828019,0.
 5157353587,1.659196876\C,0,1.9731290354,0.7942549929,2.8359178802\C,0,
 2.8063107511,-0.1692862744,3.4101608541\C,0,2.9385643806,-1.4148890268
 ,2.7928983498\C,0,0.6598990996,-0.9944194153,-0.2793757559\C,0,1.55278
 97547,-0.6545118704,-1.5384000929\C,0,2.3526897278,-1.9290898918,-1.81
 50479716\C,0,1.3679901667,-3.0890857003,-1.5432258085\C,0,0.3392077682
 ,-2.543540442,-0.5189212117\C,0,-1.0963351542,-2.5002874027,-0.9528834
 572\C,0,-1.5267428504,-2.2551947189,-2.3368676451\O,0,-0.5951470972,-0
 .3335955295,-0.3661521368\Fe,0,-1.9971690819,0.6877727933,0.3735495807
 \Cl,0,-3.6809754116,0.3057241773,-1.073484667\C,0,-2.1205227346,-2.913
 7832988,0.0187682446\Cl,0,-1.5280273297,2.8461627179,0.5265538153\Cl,0
 ,-2.5096171178,-0.1942449738,2.3581436106\H,0,0.636893867,1.2861291646
 ,1.2305495189\H,0,1.8553831685,1.7706993292,3.3075850291\H,0,3.3465128
 198,0.047873255,4.3326981637\H,0,3.5867851496,-2.1775405705,3.22690106
 32\H,0,2.3681382697,-2.6749087524,1.1601357515\H,0,0.8429980441,-0.447
 6448903,-2.3499471142\C,0,2.428846848,0.5795225515,-1.3820098748\H,0,2
 .7513352962,-1.9496161736,-2.8372541801\H,0,3.2130061135,-1.9706637379
 ,-1.1360018163\H,0,0.8759170576,-3.4091114313,-2.4711985674\H,0,1.8755
 50902,-3.9759818204,-1.1429522705\H,0,0.3847964726,-3.0740238821,0.437
 2617666\H,0,-2.0213846587,-4.0167991548,0.0840008315\H,0,-1.9082223725
 ,-2.5257970836,1.0249031029\H,0,-3.1397343066,-2.660296812,-0.28918278
 58\H,0,-2.0354471,-3.168313495,-2.6971358037\H,0,-2.3093194475,-1.4749
 714803,-2.3116408833\H,0,-0.7244539366,-1.9828252877,-3.0252950625\O,0
 ,1.7293880306,1.6995450731,-1.6257848733\O,0,3.6068218596,0.5546764613
 ,-1.0927082331\C,0,2.4445232579,2.9589577061,-1.4735032214\C,0,1.50929
 62353,4.0708875627,-1.9020592618\H,0,2.7468015738,3.0509581599,-0.4213
 694445\H,0,3.3552789154,2.9131813566,-2.0855088107\H,0,2.0158227756,5.
 0387800679,-1.7758524297\H,0,1.2288967844,3.9632491785,-2.9592740794\H
 ,0,0.5951677568,4.0699967282,-1.2942069894\\Version=ES64L-G16RevA.03\S
 tate=6-A\HF=-3531.4391329\S2=8.761934\S2-1=0.\S2A=8.750045\RMSD=5.411e
 -09\Dipole=1.9347487,-4.9694506,-2.328559\Quadrupole=-25.0130461,22.64
 86079,2.3644382,13.2200776,8.5615033,6.5466024\PG=C01 [X(C17H22Cl3Fe1O
 3)]\\@


 UNDER MOST GREENE GRASSE LY MOST GREATE SNAKES.
 -- PROVERBS AND REASONS OF THE YEAR 1585
           AS REPRINTED IN PAISLEY MAGAZINE 1828.
 Job cpu time:       0 days  6 hours  1 minutes 22.5 seconds.
 Elapsed time:       0 days  0 hours 22 minutes 38.9 seconds.
 File lengths (MBytes):  RWF=    655 Int=      0 D2E=      0 Chk=     57 Scr=      1
 Normal termination of Gaussian 16 at Sun Jun 20 10:29:09 2021.
