 Entering Gaussian System, Link 0=g16
 Input=prenyl-first_betaine_grid-CC_220_CO_250-b3lyp_d3bj-juldz-gas.gjf
 Output=prenyl-first_betaine_grid-CC_220_CO_250-b3lyp_d3bj-juldz-gas.out
 Initial command:
 /SFS/product/gaussian/g16.a03/x86_64/avx/g16/l1.exe "/scratch/kwaneu.2874295.bmbhpcps002/Gau-57973.inp" -scrdir="/scratch/kwaneu.2874295.bmbhpcps002/"
 Entering Link 1 = /SFS/product/gaussian/g16.a03/x86_64/avx/g16/l1.exe PID=     57976.
  
 Copyright (c) 1988,1990,1992,1993,1995,1998,2003,2009,2016,
            Gaussian, Inc.  All Rights Reserved.
  
 This is part of the Gaussian(R) 16 program.  It is based on
 the Gaussian(R) 09 system (copyright 2009, Gaussian, Inc.),
 the Gaussian(R) 03 system (copyright 2003, Gaussian, Inc.),
 the Gaussian(R) 98 system (copyright 1998, Gaussian, Inc.),
 the Gaussian(R) 94 system (copyright 1995, Gaussian, Inc.),
 the Gaussian 92(TM) system (copyright 1992, Gaussian, Inc.),
 the Gaussian 90(TM) system (copyright 1990, Gaussian, Inc.),
 the Gaussian 88(TM) system (copyright 1988, Gaussian, Inc.),
 the Gaussian 86(TM) system (copyright 1986, Carnegie Mellon
 University), and the Gaussian 82(TM) system (copyright 1983,
 Carnegie Mellon University). Gaussian is a federally registered
 trademark of Gaussian, Inc.
  
 This software contains proprietary and confidential information,
 including trade secrets, belonging to Gaussian, Inc.
  
 This software is provided under written license and may be
 used, copied, transmitted, or stored only in accord with that
 written license.
  
 The following legend is applicable only to US Government
 contracts under FAR:
  
                    RESTRICTED RIGHTS LEGEND
  
 Use, reproduction and disclosure by the US Government is
 subject to restrictions as set forth in subparagraphs (a)
 and (c) of the Commercial Computer Software - Restricted
 Rights clause in FAR 52.227-19.
  
 Gaussian, Inc.
 340 Quinnipiac St., Bldg. 40, Wallingford CT 06492
  
  
 ---------------------------------------------------------------
 Warning -- This program may not be used in any manner that
 competes with the business of Gaussian, Inc. or will provide
 assistance to any competitor of Gaussian, Inc.  The licensee
 of this program is prohibited from giving any competitor of
 Gaussian, Inc. access to this program.  By using this program,
 the user acknowledges that Gaussian, Inc. is engaged in the
 business of creating and licensing software in the field of
 computational chemistry and represents and warrants to the
 licensee that it is not a competitor of Gaussian, Inc. and that
 it will not use this program in any manner prohibited above.
 ---------------------------------------------------------------
  

 Cite this work as:
 Gaussian 16, Revision A.03,
 M. J. Frisch, G. W. Trucks, H. B. Schlegel, G. E. Scuseria, 
 M. A. Robb, J. R. Cheeseman, G. Scalmani, V. Barone, 
 G. A. Petersson, H. Nakatsuji, X. Li, M. Caricato, A. V. Marenich, 
 J. Bloino, B. G. Janesko, R. Gomperts, B. Mennucci, H. P. Hratchian, 
 J. V. Ortiz, A. F. Izmaylov, J. L. Sonnenberg, D. Williams-Young, 
 F. Ding, F. Lipparini, F. Egidi, J. Goings, B. Peng, A. Petrone, 
 T. Henderson, D. Ranasinghe, V. G. Zakrzewski, J. Gao, N. Rega, 
 G. Zheng, W. Liang, M. Hada, M. Ehara, K. Toyota, R. Fukuda, 
 J. Hasegawa, M. Ishida, T. Nakajima, Y. Honda, O. Kitao, H. Nakai, 
 T. Vreven, K. Throssell, J. A. Montgomery, Jr., J. E. Peralta, 
 F. Ogliaro, M. J. Bearpark, J. J. Heyd, E. N. Brothers, K. N. Kudin, 
 V. N. Staroverov, T. A. Keith, R. Kobayashi, J. Normand, 
 K. Raghavachari, A. P. Rendell, J. C. Burant, S. S. Iyengar, 
 J. Tomasi, M. Cossi, J. M. Millam, M. Klene, C. Adamo, R. Cammi, 
 J. W. Ochterski, R. L. Martin, K. Morokuma, O. Farkas, 
 J. B. Foresman, and D. J. Fox, Gaussian, Inc., Wallingford CT, 2016.
 
 ******************************************
 Gaussian 16:  ES64L-G16RevA.03 25-Dec-2016
                19-Jun-2021 
 ******************************************
 %chk=checkpoint.chk
 %nprocshared=16
 Will use up to   16 processors via shared memory.
 %mem=16GB
 -----------------------------------------------------------
 #p opt=modredundant freq=noraman ub3lyp jul-cc-pvdz pop=cm5
 -----------------------------------------------------------
 1/18=120,19=15,26=3,38=1/1,3;
 2/9=110,12=2,17=6,18=5,40=1/2;
 3/5=16,7=50,11=2,25=1,30=1,71=1,74=-5,116=2/1,2,3;
 4//1;
 5/5=2,38=5/2;
 6/7=2,8=2,9=2,10=2,28=1,79=1/1;
 7//1,2,3,16;
 1/18=20,19=15,26=3/3(2);
 2/9=110/2;
 99//99;
 2/9=110/2;
 3/5=16,7=50,11=2,25=1,30=1,71=1,74=-5,116=2/1,2,3;
 4/5=5,16=3,69=1/1;
 5/5=2,38=5/2;
 7//1,2,3,16;
 1/18=20,19=15,26=3/3(-5);
 2/9=110/2;
 6/7=2,8=2,9=2,10=2,19=2,28=1,79=1/1;
 99/9=1/99;
 Leave Link    1 at Sat Jun 19 21:34:59 2021, MaxMem=  2147483648 cpu:               1.3 elap:               0.1
 (Enter /SFS/product/gaussian/g16.a03/x86_64/avx/g16/l101.exe)
 -----
 title
 -----
 Symbolic Z-matrix:
 Charge =  0 Multiplicity = 6
 6                    -3.2128   -0.07103   0.51267 
 6                    -1.886     0.35252   0.72483 
 6                    -1.48461   0.6867    2.03257 
 6                    -2.38494   0.61363   3.0919 
 6                    -3.70009   0.20422   2.86632 
 6                    -4.10769  -0.1433    1.57538 
 6                    -0.86654   0.41499  -0.36559 
 6                    -0.98069  -0.47909  -1.63283 
 6                    -1.95994   0.03482  -2.69455 
 6                    -1.7127    1.54067  -2.85413 
 6                    -1.62274   2.15399  -1.48095 
 6                    -0.5667    2.85688  -0.97761 
 6                     0.75132   3.00143  -1.67479 
 8                     0.32682   0.73446  -0.00451 
 26                    2.09302   0.13239   0.39675 
 17                    2.96779  -0.64683  -1.47117 
 6                    -0.67492   3.57021   0.3325 
 17                    1.96698  -1.32991   2.03597 
 17                    3.11427   1.96395   1.09902 
 1                    -0.45771   0.9774    2.21291 
 1                    -2.05374   0.86607   4.09481 
 1                    -4.40242   0.14453   3.69312 
 1                    -5.12482  -0.47895   1.39572 
 1                    -3.54744  -0.36983  -0.47176 
 1                     0.03264  -0.47465  -2.04742 
 6                    -1.29504  -1.93317  -1.23956 
 1                    -1.80081  -0.50544  -3.63353 
 1                    -2.99263  -0.16451  -2.39844 
 1                    -0.79571   1.71112  -3.42539 
 1                    -2.52947   2.00637  -3.41965 
 1                    -2.56665   2.23505  -0.948 
 1                    -1.66648   3.48701   0.78308 
 1                     0.07966   3.18465   1.03012 
 1                    -0.44266   4.63443   0.18967 
 1                     0.75616   3.96612  -2.20466 
 1                     1.57555   3.02812  -0.95666 
 1                     0.95228   2.21986  -2.40881 
 8                    -0.22484  -2.51711  -0.69514 
 8                    -2.3669   -2.47064  -1.42241 
 6                    -0.37003  -3.90911  -0.28683 
 6                     1.01707  -4.46892  -0.04513 
 1                    -0.98827  -3.92681   0.61632 
 1                    -0.9061   -4.44012  -1.07773 
 1                     0.93441  -5.51561   0.26873 
 1                     1.61823  -4.42784  -0.95867 
 1                     1.53525  -3.90786   0.73681 
 
 The following ModRedundant input section has been read:
 B       7      11 F                                                           
 B      12      14 F                                                           
 
 ITRead=  0  0  0  0  0  0  0  0  0  0  0  0  0  0  0  0  0  0  0  0
 ITRead=  0  0  0  0  0  0  0  0  0  0  0  0  0  0  0  0  0  0  0  0
 ITRead=  0  0  0  0  0  0
 MicOpt= -1 -1 -1 -1 -1 -1 -1 -1 -1 -1 -1 -1 -1 -1 -1 -1 -1 -1 -1 -1
 MicOpt= -1 -1 -1 -1 -1 -1 -1 -1 -1 -1 -1 -1 -1 -1 -1 -1 -1 -1 -1 -1
 MicOpt= -1 -1 -1 -1 -1 -1
 NAtoms=     46 NQM=       46 NQMF=       0 NMMI=      0 NMMIF=      0
                NMic=       0 NMicF=      0.
                    Isotopes and Nuclear Properties:
 (Nuclear quadrupole moments (NQMom) in fm**2, nuclear magnetic moments (NMagM)
  in nuclear magnetons)

  Atom         1           2           3           4           5           6           7           8           9          10
 IAtWgt=          12          12          12          12          12          12          12          12          12          12
 AtmWgt=  12.0000000  12.0000000  12.0000000  12.0000000  12.0000000  12.0000000  12.0000000  12.0000000  12.0000000  12.0000000
 NucSpn=           0           0           0           0           0           0           0           0           0           0
 AtZEff=  -0.0000000  -0.0000000  -0.0000000  -0.0000000  -0.0000000  -0.0000000  -0.0000000  -0.0000000  -0.0000000  -0.0000000
 NQMom=    0.0000000   0.0000000   0.0000000   0.0000000   0.0000000   0.0000000   0.0000000   0.0000000   0.0000000   0.0000000
 NMagM=    0.0000000   0.0000000   0.0000000   0.0000000   0.0000000   0.0000000   0.0000000   0.0000000   0.0000000   0.0000000
 AtZNuc=   6.0000000   6.0000000   6.0000000   6.0000000   6.0000000   6.0000000   6.0000000   6.0000000   6.0000000   6.0000000

  Atom        11          12          13          14          15          16          17          18          19          20
 IAtWgt=          12          12          12          16          56          35          12          35          35           1
 AtmWgt=  12.0000000  12.0000000  12.0000000  15.9949146  55.9349393  34.9688527  12.0000000  34.9688527  34.9688527   1.0078250
 NucSpn=           0           0           0           0           0           3           0           3           3           1
 AtZEff=  -0.0000000  -0.0000000  -0.0000000  -0.0000000  -0.0000000  -0.0000000  -0.0000000  -0.0000000  -0.0000000  -0.0000000
 NQMom=    0.0000000   0.0000000   0.0000000   0.0000000   0.0000000  -8.1650000   0.0000000  -8.1650000  -8.1650000   0.0000000
 NMagM=    0.0000000   0.0000000   0.0000000   0.0000000   0.0000000   0.8218740   0.0000000   0.8218740   0.8218740   2.7928460
 AtZNuc=   6.0000000   6.0000000   6.0000000   8.0000000  26.0000000  17.0000000   6.0000000  17.0000000  17.0000000   1.0000000

  Atom        21          22          23          24          25          26          27          28          29          30
 IAtWgt=           1           1           1           1           1          12           1           1           1           1
 AtmWgt=   1.0078250   1.0078250   1.0078250   1.0078250   1.0078250  12.0000000   1.0078250   1.0078250   1.0078250   1.0078250
 NucSpn=           1           1           1           1           1           0           1           1           1           1
 AtZEff=  -0.0000000  -0.0000000  -0.0000000  -0.0000000  -0.0000000  -0.0000000  -0.0000000  -0.0000000  -0.0000000  -0.0000000
 NQMom=    0.0000000   0.0000000   0.0000000   0.0000000   0.0000000   0.0000000   0.0000000   0.0000000   0.0000000   0.0000000
 NMagM=    2.7928460   2.7928460   2.7928460   2.7928460   2.7928460   0.0000000   2.7928460   2.7928460   2.7928460   2.7928460
 AtZNuc=   1.0000000   1.0000000   1.0000000   1.0000000   1.0000000   6.0000000   1.0000000   1.0000000   1.0000000   1.0000000

  Atom        31          32          33          34          35          36          37          38          39          40
 IAtWgt=           1           1           1           1           1           1           1          16          16          12
 AtmWgt=   1.0078250   1.0078250   1.0078250   1.0078250   1.0078250   1.0078250   1.0078250  15.9949146  15.9949146  12.0000000
 NucSpn=           1           1           1           1           1           1           1           0           0           0
 AtZEff=  -0.0000000  -0.0000000  -0.0000000  -0.0000000  -0.0000000  -0.0000000  -0.0000000  -0.0000000  -0.0000000  -0.0000000
 NQMom=    0.0000000   0.0000000   0.0000000   0.0000000   0.0000000   0.0000000   0.0000000   0.0000000   0.0000000   0.0000000
 NMagM=    2.7928460   2.7928460   2.7928460   2.7928460   2.7928460   2.7928460   2.7928460   0.0000000   0.0000000   0.0000000
 AtZNuc=   1.0000000   1.0000000   1.0000000   1.0000000   1.0000000   1.0000000   1.0000000   8.0000000   8.0000000   6.0000000

  Atom        41          42          43          44          45          46
 IAtWgt=          12           1           1           1           1           1
 AtmWgt=  12.0000000   1.0078250   1.0078250   1.0078250   1.0078250   1.0078250
 NucSpn=           0           1           1           1           1           1
 AtZEff=  -0.0000000  -0.0000000  -0.0000000  -0.0000000  -0.0000000  -0.0000000
 NQMom=    0.0000000   0.0000000   0.0000000   0.0000000   0.0000000   0.0000000
 NMagM=    0.0000000   2.7928460   2.7928460   2.7928460   2.7928460   2.7928460
 AtZNuc=   6.0000000   1.0000000   1.0000000   1.0000000   1.0000000   1.0000000
 Leave Link  101 at Sat Jun 19 21:34:59 2021, MaxMem=  2147483648 cpu:               5.7 elap:               0.4
 (Enter /SFS/product/gaussian/g16.a03/x86_64/avx/g16/l103.exe)

 GradGradGradGradGradGradGradGradGradGradGradGradGradGradGradGradGradGrad
 Berny optimization.
 Initialization pass.
                           ----------------------------
                           !    Initial Parameters    !
                           ! (Angstroms and Degrees)  !
 --------------------------                            --------------------------
 ! Name  Definition              Value          Derivative Info.                !
 --------------------------------------------------------------------------------
 ! R1    R(1,2)                  1.4088         estimate D2E/DX2                !
 ! R2    R(1,6)                  1.3912         estimate D2E/DX2                !
 ! R3    R(1,24)                 1.0818         estimate D2E/DX2                !
 ! R4    R(2,3)                  1.4082         estimate D2E/DX2                !
 ! R5    R(2,7)                  1.4941         estimate D2E/DX2                !
 ! R6    R(3,4)                  1.3922         estimate D2E/DX2                !
 ! R7    R(3,20)                 1.0824         estimate D2E/DX2                !
 ! R8    R(4,5)                  1.3957         estimate D2E/DX2                !
 ! R9    R(4,21)                 1.0859         estimate D2E/DX2                !
 ! R10   R(5,6)                  1.3977         estimate D2E/DX2                !
 ! R11   R(5,22)                 1.0865         estimate D2E/DX2                !
 ! R12   R(6,23)                 1.086          estimate D2E/DX2                !
 ! R13   R(7,8)                  1.5551         estimate D2E/DX2                !
 ! R14   R(7,11)                 2.2            Frozen                          !
 ! R15   R(7,14)                 1.2871         estimate D2E/DX2                !
 ! R16   R(8,9)                  1.5331         estimate D2E/DX2                !
 ! R17   R(8,25)                 1.0949         estimate D2E/DX2                !
 ! R18   R(8,26)                 1.5388         estimate D2E/DX2                !
 ! R19   R(9,10)                 1.5343         estimate D2E/DX2                !
 ! R20   R(9,27)                 1.0949         estimate D2E/DX2                !
 ! R21   R(9,28)                 1.0926         estimate D2E/DX2                !
 ! R22   R(10,11)                1.5066         estimate D2E/DX2                !
 ! R23   R(10,29)                1.0937         estimate D2E/DX2                !
 ! R24   R(10,30)                1.0972         estimate D2E/DX2                !
 ! R25   R(11,12)                1.3648         estimate D2E/DX2                !
 ! R26   R(11,31)                1.087          estimate D2E/DX2                !
 ! R27   R(12,13)                1.498          estimate D2E/DX2                !
 ! R28   R(12,14)                2.5            Frozen                          !
 ! R29   R(12,17)                1.4956         estimate D2E/DX2                !
 ! R30   R(13,35)                1.1006         estimate D2E/DX2                !
 ! R31   R(13,36)                1.0935         estimate D2E/DX2                !
 ! R32   R(13,37)                1.0909         estimate D2E/DX2                !
 ! R33   R(14,15)                1.9087         estimate D2E/DX2                !
 ! R34   R(15,16)                2.2049         estimate D2E/DX2                !
 ! R35   R(15,18)                2.2003         estimate D2E/DX2                !
 ! R36   R(15,19)                2.2115         estimate D2E/DX2                !
 ! R37   R(17,32)                1.0923         estimate D2E/DX2                !
 ! R38   R(17,33)                1.0976         estimate D2E/DX2                !
 ! R39   R(17,34)                1.0986         estimate D2E/DX2                !
 ! R40   R(26,38)                1.3352         estimate D2E/DX2                !
 ! R41   R(26,39)                1.2129         estimate D2E/DX2                !
 ! R42   R(38,40)                1.4579         estimate D2E/DX2                !
 ! R43   R(40,41)                1.5152         estimate D2E/DX2                !
 ! R44   R(40,42)                1.0946         estimate D2E/DX2                !
 ! R45   R(40,43)                1.0931         estimate D2E/DX2                !
 ! R46   R(41,44)                1.0959         estimate D2E/DX2                !
 ! R47   R(41,45)                1.0944         estimate D2E/DX2                !
 ! R48   R(41,46)                1.093          estimate D2E/DX2                !
 ! A1    A(2,1,6)              120.4233         estimate D2E/DX2                !
 ! A2    A(2,1,24)             120.7568         estimate D2E/DX2                !
 ! A3    A(6,1,24)             118.8013         estimate D2E/DX2                !
 ! A4    A(1,2,3)              118.6625         estimate D2E/DX2                !
 ! A5    A(1,2,7)              123.0431         estimate D2E/DX2                !
 ! A6    A(3,2,7)              118.2524         estimate D2E/DX2                !
 ! A7    A(2,3,4)              120.6537         estimate D2E/DX2                !
 ! A8    A(2,3,20)             119.2678         estimate D2E/DX2                !
 ! A9    A(4,3,20)             120.0589         estimate D2E/DX2                !
 ! A10   A(3,4,5)              120.1183         estimate D2E/DX2                !
 ! A11   A(3,4,21)             119.5577         estimate D2E/DX2                !
 ! A12   A(5,4,21)             120.3202         estimate D2E/DX2                !
 ! A13   A(4,5,6)              119.8021         estimate D2E/DX2                !
 ! A14   A(4,5,22)             120.1474         estimate D2E/DX2                !
 ! A15   A(6,5,22)             120.0467         estimate D2E/DX2                !
 ! A16   A(1,6,5)              120.3343         estimate D2E/DX2                !
 ! A17   A(1,6,23)             119.481          estimate D2E/DX2                !
 ! A18   A(5,6,23)             120.1832         estimate D2E/DX2                !
 ! A19   A(2,7,8)              121.3737         estimate D2E/DX2                !
 ! A20   A(2,7,14)             115.9949         estimate D2E/DX2                !
 ! A21   A(8,7,14)             116.0645         estimate D2E/DX2                !
 ! A22   A(7,8,9)              114.7409         estimate D2E/DX2                !
 ! A23   A(7,8,25)             103.7867         estimate D2E/DX2                !
 ! A24   A(7,8,26)             110.4884         estimate D2E/DX2                !
 ! A25   A(9,8,25)             109.122          estimate D2E/DX2                !
 ! A26   A(9,8,26)             111.3015         estimate D2E/DX2                !
 ! A27   A(25,8,26)            106.8388         estimate D2E/DX2                !
 ! A28   A(8,9,10)             107.3434         estimate D2E/DX2                !
 ! A29   A(8,9,27)             109.6132         estimate D2E/DX2                !
 ! A30   A(8,9,28)             110.786          estimate D2E/DX2                !
 ! A31   A(10,9,27)            111.817          estimate D2E/DX2                !
 ! A32   A(10,9,28)            111.0711         estimate D2E/DX2                !
 ! A33   A(27,9,28)            106.245          estimate D2E/DX2                !
 ! A34   A(9,10,11)            108.3217         estimate D2E/DX2                !
 ! A35   A(9,10,29)            110.0212         estimate D2E/DX2                !
 ! A36   A(9,10,30)            110.5013         estimate D2E/DX2                !
 ! A37   A(11,10,29)           111.2566         estimate D2E/DX2                !
 ! A38   A(11,10,30)           109.9648         estimate D2E/DX2                !
 ! A39   A(29,10,30)           106.7844         estimate D2E/DX2                !
 ! A40   A(10,11,12)           126.2992         estimate D2E/DX2                !
 ! A41   A(10,11,31)           115.1746         estimate D2E/DX2                !
 ! A42   A(12,11,31)           116.9165         estimate D2E/DX2                !
 ! A43   A(11,12,13)           123.9763         estimate D2E/DX2                !
 ! A44   A(11,12,17)           120.8441         estimate D2E/DX2                !
 ! A45   A(13,12,17)           115.1697         estimate D2E/DX2                !
 ! A46   A(12,13,35)           108.2094         estimate D2E/DX2                !
 ! A47   A(12,13,36)           111.0934         estimate D2E/DX2                !
 ! A48   A(12,13,37)           113.9598         estimate D2E/DX2                !
 ! A49   A(35,13,36)           106.945          estimate D2E/DX2                !
 ! A50   A(35,13,37)           107.6507         estimate D2E/DX2                !
 ! A51   A(36,13,37)           108.6942         estimate D2E/DX2                !
 ! A52   A(7,14,15)            147.0001         estimate D2E/DX2                !
 ! A53   A(14,15,16)           107.488          estimate D2E/DX2                !
 ! A54   A(14,15,18)           108.2555         estimate D2E/DX2                !
 ! A55   A(14,15,19)           103.4638         estimate D2E/DX2                !
 ! A56   A(16,15,18)           114.7717         estimate D2E/DX2                !
 ! A57   A(16,15,19)           112.2408         estimate D2E/DX2                !
 ! A58   A(18,15,19)           109.8947         estimate D2E/DX2                !
 ! A59   A(12,17,32)           112.9977         estimate D2E/DX2                !
 ! A60   A(12,17,33)           109.8444         estimate D2E/DX2                !
 ! A61   A(12,17,34)           109.441          estimate D2E/DX2                !
 ! A62   A(32,17,33)           109.5802         estimate D2E/DX2                !
 ! A63   A(32,17,34)           108.6223         estimate D2E/DX2                !
 ! A64   A(33,17,34)           106.1156         estimate D2E/DX2                !
 ! A65   A(8,26,38)            110.7166         estimate D2E/DX2                !
 ! A66   A(8,26,39)            124.106          estimate D2E/DX2                !
 ! A67   A(38,26,39)           125.1689         estimate D2E/DX2                !
 ! A68   A(26,38,40)           116.8694         estimate D2E/DX2                !
 ! A69   A(38,40,41)           107.8347         estimate D2E/DX2                !
 ! A70   A(38,40,42)           107.623          estimate D2E/DX2                !
 ! A71   A(38,40,43)           108.0605         estimate D2E/DX2                !
 ! A72   A(41,40,42)           112.2999         estimate D2E/DX2                !
 ! A73   A(41,40,43)           112.637          estimate D2E/DX2                !
 ! A74   A(42,40,43)           108.1884         estimate D2E/DX2                !
 ! A75   A(40,41,44)           109.2398         estimate D2E/DX2                !
 ! A76   A(40,41,45)           110.8459         estimate D2E/DX2                !
 ! A77   A(40,41,46)           111.0055         estimate D2E/DX2                !
 ! A78   A(44,41,45)           108.4435         estimate D2E/DX2                !
 ! A79   A(44,41,46)           108.7322         estimate D2E/DX2                !
 ! A80   A(45,41,46)           108.5109         estimate D2E/DX2                !
 ! D1    D(6,1,2,3)              0.6164         estimate D2E/DX2                !
 ! D2    D(6,1,2,7)            178.2177         estimate D2E/DX2                !
 ! D3    D(24,1,2,3)          -177.7952         estimate D2E/DX2                !
 ! D4    D(24,1,2,7)            -0.1939         estimate D2E/DX2                !
 ! D5    D(2,1,6,5)              0.0212         estimate D2E/DX2                !
 ! D6    D(2,1,6,23)          -179.5446         estimate D2E/DX2                !
 ! D7    D(24,1,6,5)           178.4635         estimate D2E/DX2                !
 ! D8    D(24,1,6,23)           -1.1023         estimate D2E/DX2                !
 ! D9    D(1,2,3,4)             -0.6791         estimate D2E/DX2                !
 ! D10   D(1,2,3,20)           177.7112         estimate D2E/DX2                !
 ! D11   D(7,2,3,4)           -178.3965         estimate D2E/DX2                !
 ! D12   D(7,2,3,20)            -0.0062         estimate D2E/DX2                !
 ! D13   D(1,2,7,8)            -25.012          estimate D2E/DX2                !
 ! D14   D(1,2,7,14)          -175.4577         estimate D2E/DX2                !
 ! D15   D(3,2,7,8)            152.5985         estimate D2E/DX2                !
 ! D16   D(3,2,7,14)             2.1529         estimate D2E/DX2                !
 ! D17   D(2,3,4,5)              0.1025         estimate D2E/DX2                !
 ! D18   D(2,3,4,21)           179.4008         estimate D2E/DX2                !
 ! D19   D(20,3,4,5)          -178.2751         estimate D2E/DX2                !
 ! D20   D(20,3,4,21)            1.0232         estimate D2E/DX2                !
 ! D21   D(3,4,5,6)              0.5466         estimate D2E/DX2                !
 ! D22   D(3,4,5,22)           179.8399         estimate D2E/DX2                !
 ! D23   D(21,4,5,6)          -178.7463         estimate D2E/DX2                !
 ! D24   D(21,4,5,22)            0.547          estimate D2E/DX2                !
 ! D25   D(4,5,6,1)             -0.609          estimate D2E/DX2                !
 ! D26   D(4,5,6,23)           178.9538         estimate D2E/DX2                !
 ! D27   D(22,5,6,1)          -179.903          estimate D2E/DX2                !
 ! D28   D(22,5,6,23)           -0.3402         estimate D2E/DX2                !
 ! D29   D(2,7,8,9)             80.0278         estimate D2E/DX2                !
 ! D30   D(2,7,8,25)          -160.995          estimate D2E/DX2                !
 ! D31   D(2,7,8,26)           -46.7839         estimate D2E/DX2                !
 ! D32   D(14,7,8,9)          -129.5458         estimate D2E/DX2                !
 ! D33   D(14,7,8,25)          -10.5687         estimate D2E/DX2                !
 ! D34   D(14,7,8,26)          103.6425         estimate D2E/DX2                !
 ! D35   D(2,7,14,15)          101.4539         estimate D2E/DX2                !
 ! D36   D(8,7,14,15)          -50.5891         estimate D2E/DX2                !
 ! D37   D(7,8,9,10)            44.7107         estimate D2E/DX2                !
 ! D38   D(7,8,9,27)           166.3527         estimate D2E/DX2                !
 ! D39   D(7,8,9,28)           -76.7166         estimate D2E/DX2                !
 ! D40   D(25,8,9,10)          -71.2329         estimate D2E/DX2                !
 ! D41   D(25,8,9,27)           50.4091         estimate D2E/DX2                !
 ! D42   D(25,8,9,28)          167.3399         estimate D2E/DX2                !
 ! D43   D(26,8,9,10)          171.1044         estimate D2E/DX2                !
 ! D44   D(26,8,9,27)          -67.2536         estimate D2E/DX2                !
 ! D45   D(26,8,9,28)           49.6772         estimate D2E/DX2                !
 ! D46   D(7,8,26,38)          -72.4992         estimate D2E/DX2                !
 ! D47   D(7,8,26,39)          108.5083         estimate D2E/DX2                !
 ! D48   D(9,8,26,38)          158.8016         estimate D2E/DX2                !
 ! D49   D(9,8,26,39)          -20.1908         estimate D2E/DX2                !
 ! D50   D(25,8,26,38)          39.7654         estimate D2E/DX2                !
 ! D51   D(25,8,26,39)        -139.227          estimate D2E/DX2                !
 ! D52   D(8,9,10,11)          -46.2514         estimate D2E/DX2                !
 ! D53   D(8,9,10,29)           75.5605         estimate D2E/DX2                !
 ! D54   D(8,9,10,30)         -166.7696         estimate D2E/DX2                !
 ! D55   D(27,9,10,11)        -166.5033         estimate D2E/DX2                !
 ! D56   D(27,9,10,29)         -44.6915         estimate D2E/DX2                !
 ! D57   D(27,9,10,30)          72.9784         estimate D2E/DX2                !
 ! D58   D(28,9,10,11)          74.9968         estimate D2E/DX2                !
 ! D59   D(28,9,10,29)        -163.1914         estimate D2E/DX2                !
 ! D60   D(28,9,10,30)         -45.5215         estimate D2E/DX2                !
 ! D61   D(9,10,11,12)         122.023          estimate D2E/DX2                !
 ! D62   D(9,10,11,31)         -72.9816         estimate D2E/DX2                !
 ! D63   D(29,10,11,12)          0.9724         estimate D2E/DX2                !
 ! D64   D(29,10,11,31)        165.9679         estimate D2E/DX2                !
 ! D65   D(30,10,11,12)       -117.1255         estimate D2E/DX2                !
 ! D66   D(30,10,11,31)         47.8699         estimate D2E/DX2                !
 ! D67   D(10,11,12,13)         -7.1078         estimate D2E/DX2                !
 ! D68   D(10,11,12,17)        171.6923         estimate D2E/DX2                !
 ! D69   D(31,11,12,13)       -171.8732         estimate D2E/DX2                !
 ! D70   D(31,11,12,17)          6.9269         estimate D2E/DX2                !
 ! D71   D(11,12,13,35)         97.4854         estimate D2E/DX2                !
 ! D72   D(11,12,13,36)       -145.4015         estimate D2E/DX2                !
 ! D73   D(11,12,13,37)        -22.2164         estimate D2E/DX2                !
 ! D74   D(17,12,13,35)        -81.3763         estimate D2E/DX2                !
 ! D75   D(17,12,13,36)         35.7367         estimate D2E/DX2                !
 ! D76   D(17,12,13,37)        158.9219         estimate D2E/DX2                !
 ! D77   D(11,12,17,32)         -2.0727         estimate D2E/DX2                !
 ! D78   D(11,12,17,33)        120.6259         estimate D2E/DX2                !
 ! D79   D(11,12,17,34)       -123.2495         estimate D2E/DX2                !
 ! D80   D(13,12,17,32)        176.8279         estimate D2E/DX2                !
 ! D81   D(13,12,17,33)        -60.4735         estimate D2E/DX2                !
 ! D82   D(13,12,17,34)         55.6511         estimate D2E/DX2                !
 ! D83   D(7,14,15,16)          66.2082         estimate D2E/DX2                !
 ! D84   D(7,14,15,18)         -58.2996         estimate D2E/DX2                !
 ! D85   D(7,14,15,19)        -174.8783         estimate D2E/DX2                !
 ! D86   D(8,26,38,40)        -179.2627         estimate D2E/DX2                !
 ! D87   D(39,26,38,40)         -0.2832         estimate D2E/DX2                !
 ! D88   D(26,38,40,41)        165.4602         estimate D2E/DX2                !
 ! D89   D(26,38,40,42)        -73.1781         estimate D2E/DX2                !
 ! D90   D(26,38,40,43)         43.442          estimate D2E/DX2                !
 ! D91   D(38,40,41,44)        179.7128         estimate D2E/DX2                !
 ! D92   D(38,40,41,45)        -60.8509         estimate D2E/DX2                !
 ! D93   D(38,40,41,46)         59.8207         estimate D2E/DX2                !
 ! D94   D(42,40,41,44)         61.3082         estimate D2E/DX2                !
 ! D95   D(42,40,41,45)       -179.2556         estimate D2E/DX2                !
 ! D96   D(42,40,41,46)        -58.584          estimate D2E/DX2                !
 ! D97   D(43,40,41,44)        -61.142          estimate D2E/DX2                !
 ! D98   D(43,40,41,45)         58.2943         estimate D2E/DX2                !
 ! D99   D(43,40,41,46)        178.9659         estimate D2E/DX2                !
 --------------------------------------------------------------------------------
 Trust Radius=3.00D-01 FncErr=1.00D-07 GrdErr=1.00D-06 EigMax=2.50D+02 EigMin=1.00D-04
 Number of steps in this run=    237 maximum allowed number of steps=    276.
 GradGradGradGradGradGradGradGradGradGradGradGradGradGradGradGradGradGrad

 Leave Link  103 at Sat Jun 19 21:34:59 2021, MaxMem=  2147483648 cpu:               0.2 elap:               0.1
 (Enter /SFS/product/gaussian/g16.a03/x86_64/avx/g16/l202.exe)
                          Input orientation:                          
 ---------------------------------------------------------------------
 Center     Atomic      Atomic             Coordinates (Angstroms)
 Number     Number       Type             X           Y           Z
 ---------------------------------------------------------------------
      1          6           0       -3.212795   -0.071026    0.512668
      2          6           0       -1.886004    0.352523    0.724834
      3          6           0       -1.484608    0.686696    2.032573
      4          6           0       -2.384944    0.613627    3.091899
      5          6           0       -3.700089    0.204218    2.866320
      6          6           0       -4.107693   -0.143303    1.575376
      7          6           0       -0.866538    0.414987   -0.365586
      8          6           0       -0.980689   -0.479090   -1.632831
      9          6           0       -1.959941    0.034818   -2.694545
     10          6           0       -1.712702    1.540670   -2.854129
     11          6           0       -1.622744    2.153988   -1.480947
     12          6           0       -0.566704    2.856882   -0.977608
     13          6           0        0.751323    3.001432   -1.674788
     14          8           0        0.326819    0.734457   -0.004508
     15         26           0        2.093025    0.132386    0.396753
     16         17           0        2.967794   -0.646825   -1.471165
     17          6           0       -0.674921    3.570211    0.332496
     18         17           0        1.966982   -1.329912    2.035969
     19         17           0        3.114267    1.963952    1.099024
     20          1           0       -0.457706    0.977398    2.212905
     21          1           0       -2.053740    0.866067    4.094809
     22          1           0       -4.402424    0.144529    3.693120
     23          1           0       -5.124817   -0.478945    1.395720
     24          1           0       -3.547441   -0.369827   -0.471760
     25          1           0        0.032639   -0.474651   -2.047423
     26          6           0       -1.295037   -1.933171   -1.239558
     27          1           0       -1.800808   -0.505444   -3.633531
     28          1           0       -2.992629   -0.164512   -2.398442
     29          1           0       -0.795713    1.711117   -3.425388
     30          1           0       -2.529473    2.006373   -3.419651
     31          1           0       -2.566650    2.235047   -0.948001
     32          1           0       -1.666475    3.487013    0.783084
     33          1           0        0.079655    3.184653    1.030118
     34          1           0       -0.442664    4.634429    0.189666
     35          1           0        0.756162    3.966121   -2.204660
     36          1           0        1.575552    3.028118   -0.956659
     37          1           0        0.952282    2.219864   -2.408811
     38          8           0       -0.224844   -2.517108   -0.695141
     39          8           0       -2.366901   -2.470644   -1.422411
     40          6           0       -0.370028   -3.909113   -0.286832
     41          6           0        1.017070   -4.468922   -0.045132
     42          1           0       -0.988266   -3.926805    0.616324
     43          1           0       -0.906100   -4.440118   -1.077732
     44          1           0        0.934414   -5.515614    0.268729
     45          1           0        1.618233   -4.427841   -0.958666
     46          1           0        1.535250   -3.907856    0.736810
 ---------------------------------------------------------------------
                    Distance matrix (angstroms):
                    1          2          3          4          5
     1  C    0.000000
     2  C    1.408823   0.000000
     3  C    2.422991   1.408180   0.000000
     4  C    2.794015   2.433128   1.392162   0.000000
     5  C    2.419275   2.810491   2.415838   1.395746   0.000000
     6  C    1.391192   2.430055   2.788997   2.416744   1.397658
     7  C    2.551952   1.494064   2.491386   3.781431   4.303330
     8  C    3.122816   2.658902   3.879198   5.048667   5.301359
     9  C    3.444860   3.434903   4.795470   5.830830   5.829239
    10  C    4.022830   3.775010   4.966000   6.055292   6.201560
    11  C    3.384295   2.860079   3.810098   4.885139   5.197663
    12  C    4.218455   3.303131   3.822754   4.989897   5.624101
    13  C    5.471672   4.441891   4.909370   6.185393   6.947024
    14  O    3.666762   2.361017   2.726398   4.117766   4.973811
    15  Fe   5.310983   3.998596   3.972735   5.248582   6.297943
    16  Cl   6.516657   5.420375   5.820510   7.145775   7.999920
    17  C    4.442057   3.460371   3.443910   4.390885   5.186696
    18  Cl   5.543945   4.403994   3.997523   4.881761   5.929480
    19  Cl   6.672081   5.266824   4.863389   6.003020   7.256407
    20  H    3.403015   2.155194   1.082384   2.149234   3.396735
    21  H    3.879856   3.413004   2.146835   1.085933   2.158169
    22  H    3.402493   3.896967   3.400737   2.156790   1.086478
    23  H    2.145229   3.410475   3.874974   3.402593   2.158524
    24  H    1.081836   2.171175   3.412214   3.875338   3.390517
    25  H    4.153290   3.471429   4.505234   5.782879   6.207978
    26  C    3.196197   3.071233   4.196008   5.141556   5.216411
    27  H    4.401522   4.442827   5.798786   6.842875   6.808741
    28  H    2.920920   3.353624   4.757371   5.578407   5.324864
    29  H    4.952434   4.500984   5.595834   6.797438   7.091667
    30  H    4.499516   4.508440   5.706140   6.660399   6.643157
    31  H    2.805179   2.608745   3.528743   4.356927   4.467437
    32  H    3.888942   3.142708   3.071819   3.755419   4.387733
    33  H    4.659123   3.460921   3.113137   4.115260   5.151805
    34  H    5.469850   4.550204   4.479570   5.325623   6.115723
    35  H    6.279733   5.349866   5.807738   7.011369   7.728190
    36  H    5.889982   4.687067   4.876714   6.156794   7.100843
    37  H    5.579524   4.621965   5.292913   6.631356   7.316720
    38  O    4.045982   3.607016   4.392242   5.367421   5.671591
    39  O    3.196597   3.579413   4.762788   5.467362   5.227379
    40  C    4.842668   4.634997   5.267199   5.994238   6.160452
    41  C    6.127348   5.680407   6.095543   6.873643   7.250268
    42  H    4.452674   4.373826   4.851444   5.356744   5.429716
    43  H    5.190297   5.213335   6.024358   6.716632   6.703117
    44  H    6.848532   6.526701   6.887050   7.520374   7.806573
    45  H    6.669745   6.161634   6.688320   7.605847   8.023156
    46  H    6.108636   5.464060   5.648757   6.431032   6.989474
                    6          7          8          9         10
     6  C    0.000000
     7  C    3.818914   0.000000
     8  C    4.492605   1.555093   0.000000
     9  C    4.782969   2.600790   1.533060   0.000000
    10  C    5.309639   2.859371   2.471203   1.534335   0.000000
    11  C    4.560003   2.200000   2.714480   2.465239   1.506612
    12  C    5.296927   2.535216   3.424823   3.585112   2.562627
    13  C    6.637994   3.319817   3.887886   4.146282   3.097756
    14  O    4.788673   1.287066   2.415307   3.599315   3.595826
    15  Fe   6.317758   3.069208   3.733742   5.098252   5.199525
    16  Cl   7.719939   4.129389   3.955349   5.122877   5.348342
    17  C    5.207577   3.237202   4.511413   4.828380   3.917985
    18  Cl   6.206598   4.103776   4.782547   6.297696   6.759687
    19  Cl   7.538179   4.515660   5.495466   6.622712   6.253496
    20  H    3.871023   2.670593   4.145426   5.218068   5.250440
    21  H    3.403688   4.637677   5.980531   6.840694   6.989931
    22  H    2.157441   5.389688   6.361047   6.839592   7.214588
    23  H    1.086035   4.694066   5.132827   5.197178   5.812279
    24  H    2.134470   2.795433   2.819262   2.761280   3.562576
    25  H    5.511516   2.104412   1.094870   2.156085   2.785410
    26  C    4.363315   2.541906   1.538775   2.536152   3.853421
    27  H    5.708378   3.521295   2.162427   1.094943   2.191304
    28  H    4.127354   2.998097   2.175551   1.092636   2.180254
    29  H    6.278194   3.323757   2.836280   2.167841   1.093736
    30  H    5.662348   3.824288   3.430595   2.176505   1.097182
    31  H    3.794574   2.557774   3.217267   2.873938   2.201070
    32  H    4.445949   3.375898   4.694350   4.908938   4.125495
    33  H    5.376475   3.242579   4.651735   5.287204   4.582859
    34  H    6.178944   4.276876   5.455185   5.637129   4.522060
    35  H    7.404939   4.315774   4.806614   4.803368   3.521351
    36  H    6.983437   3.625138   4.392276   4.947707   4.077439
    37  H    6.860150   3.277263   3.409234   3.652001   2.785992
    38  O    5.085933   3.019530   2.367294   3.677024   4.831202
    39  O    4.175356   3.419771   2.435600   2.839240   4.309110
    40  C    5.623103   4.353225   3.734927   4.886665   6.172027
    41  C    6.899291   5.244353   4.736094   6.013789   7.173375
    42  H    4.996548   4.453103   4.116491   5.253614   6.516298
    43  H    5.979281   4.907215   4.000430   4.873368   6.290947
    44  H    7.482773   6.230394   5.714029   6.925719   8.157856
    45  H    7.587151   5.475291   4.775095   5.977619   7.093027
    46  H    6.835046   5.066639   4.868427   6.287705   7.289065
                   11         12         13         14         15
    11  C    0.000000
    12  C    1.364782   0.000000
    13  C    2.528227   1.498049   0.000000
    14  O    2.827673   2.499999   2.847668   0.000000
    15  Fe   4.628128   4.047951   3.784557   1.908660   0.000000
    16  Cl   5.377517   5.001224   4.273638   3.321712   2.204883
    17  C    2.488500   1.495634   2.527226   3.026311   4.414102
    18  Cl   6.114932   5.747213   5.831645   3.333962   2.200280
    19  Cl   5.397373   4.319638   3.788654   3.240263   2.211505
    20  H    4.047990   3.704553   4.546715   2.364618   3.243252
    21  H    5.738776   5.648366   6.761391   4.742234   5.604424
    22  H    6.207698   6.624599   7.971038   6.032098   7.284026
    23  H    5.241380   6.126730   7.487995   5.757892   7.312243
    24  H    3.330549   4.421801   5.593928   4.055571   5.728995
    25  H    3.157678   3.550046   3.569106   2.392067   3.253872
    26  C    4.107375   4.852185   5.359787   3.357381   4.292203
    27  H    3.426062   4.458943   4.759015   4.385654   5.640208
    28  H    2.844965   4.127070   4.956214   4.190203   5.810778
    29  H    2.158927   2.712351   2.668864   3.730464   5.044399
    30  H    2.145349   3.246444   3.846857   4.630267   6.280466
    31  H    1.086996   2.094598   3.482027   3.393245   5.286030
    32  H    2.627680   2.169469   3.481763   3.488565   5.053377
    33  H    3.204041   2.134520   2.793067   2.671142   3.710949
    34  H    3.214984   2.130161   2.751086   3.979898   5.171170
    35  H    3.076813   2.118028   1.100642   3.933021   4.822041
    36  H    3.356796   2.149191   1.093515   2.779713   3.238019
    37  H    2.737888   2.182075   1.090882   2.894531   3.678321
    38  O    4.938700   5.392256   5.689191   3.369567   3.685725
    39  O    4.684487   5.641019   6.303224   4.420322   5.475040
    40  C    6.305268   6.804009   7.137190   4.704046   4.782011
    41  C    7.272766   7.552831   7.650659   5.249119   4.746049
    42  H    6.463525   6.981171   7.501722   4.882852   5.100941
    43  H    6.645178   7.305575   7.647234   5.426613   5.663625
    44  H    8.271833   8.596825   8.737898   6.285477   5.767033
    45  H    7.355079   7.605360   7.513885   5.406245   4.781031
    46  H    7.185912   7.288286   7.359933   4.853960   4.092714
                   16         17         18         19         20
    16  Cl   0.000000
    17  C    5.857129   0.000000
    18  Cl   3.710555   5.821742   0.000000
    19  Cl   3.666535   4.186356   3.611602   0.000000
    20  H    5.286258   3.210265   3.351731   3.869497   0.000000
    21  H    7.647530   4.834101   5.022684   6.073580   2.470077
    22  H    9.034168   6.076460   6.744587   8.157222   4.294823
    23  H    8.587058   6.109639   7.171309   8.598737   4.956879
    24  H    6.597259   4.941872   6.133460   7.231337   4.309165
    25  H    2.996140   4.746110   4.598613   5.034217   4.527613
    26  C    4.458706   5.757005   4.661949   6.332337   4.592607
    27  H    5.237879   5.797237   6.857056   7.256236   6.179285
    28  H    6.051373   5.174741   6.754250   7.352333   5.384637
    29  H    4.852099   4.194343   6.834235   5.985163   5.695870
    30  H    6.407496   4.468060   7.817461   7.229939   6.089064
    31  H    6.261706   2.645935   6.493599   6.044553   4.002581
    32  H    6.606565   1.092305   6.162345   5.027427   3.131083
    33  H    5.410914   1.097596   4.995502   3.271655   2.561194
    34  H    6.502402   1.098592   6.692428   4.539839   4.179426
    35  H    5.168037   2.939712   6.891806   4.525889   5.469993
    36  H    3.963365   2.649606   5.301082   2.779555   4.287858
    37  H    3.627585   3.462079   5.778113   4.128508   4.989193
    38  O    3.780623   6.189835   3.697634   5.869292   4.552200
    39  O    5.638055   6.514171   5.660760   7.487755   5.361860
    40  C    4.815208   7.511113   4.184411   6.968056   5.489477
    41  C    4.521871   8.223934   3.884160   6.862157   6.077507
    42  H    5.546737   7.508928   4.182432   7.194775   5.184763
    43  H    5.436075   8.136803   5.255770   7.868528   6.354434
    44  H    5.555805   9.227472   4.659338   7.834862   6.919322
    45  H    4.047228   8.419887   4.322803   6.879478   6.601893
    46  H    4.190663   7.808317   2.918904   6.091192   5.478726
                   21         22         23         24         25
    21  H    0.000000
    22  H    2.489636   0.000000
    23  H    4.304144   2.487693   0.000000
    24  H    4.961061   4.282731   2.446938   0.000000
    25  H    6.624011   7.280591   6.201178   3.912886   0.000000
    26  C    6.071807   6.189023   4.871004   2.847259   2.131349
    27  H    7.853169   7.801967   6.028524   3.614680   2.424503
    28  H    6.641228   6.260204   4.363572   2.015459   3.061315
    29  H    7.671382   8.132387   6.839634   4.541614   2.713399
    30  H    7.615361   7.587221   6.008362   3.920797   3.821375
    31  H    5.250440   5.411131   4.404884   2.823849   3.912479
    32  H    4.241091   5.208256   5.297573   4.470781   5.156892
    33  H    4.395401   6.035144   6.375119   5.295828   4.781629
    34  H    5.660942   6.936360   7.037309   5.926188   5.597605
    35  H    7.562354   8.717763   8.204100   6.350149   4.502073
    36  H    6.585101   8.103809   7.920109   6.166540   3.979917
    37  H    7.291502   8.379347   7.660885   5.541315   2.869975
    38  O    6.142830   6.617652   5.703994   3.962369   2.463046
    39  O    6.455341   6.095174   4.417559   2.590530   3.183146
    40  C    6.695970   6.966509   6.099594   4.759905   3.880380
    41  C    7.418294   8.039240   7.464499   6.149744   4.575202
    42  H    6.017202   6.139944   5.441163   4.515019   4.478299
    43  H    7.498524   7.483602   6.293364   4.889903   4.188849
    44  H    8.018342   8.499736   7.959424   6.863998   5.620415
    45  H    8.188190   8.876598   8.161228   6.587013   4.396272
    46  H    6.851813   7.772874   7.519846   6.309678   4.668693
                   26         27         28         29         30
    26  C    0.000000
    27  H    2.832899   0.000000
    28  H    2.711639   1.749891   0.000000
    29  H    4.278786   2.442679   3.065786   0.000000
    30  H    4.668688   2.624104   2.443384   1.758730   0.000000
    31  H    4.367613   3.912656   2.836040   3.090011   2.482484
    32  H    5.797193   5.955187   5.021397   4.650083   4.538727
    33  H    5.764836   6.237193   5.693054   4.773794   5.291156
    34  H    6.775145   6.548258   6.019174   4.662511   4.928349
    35  H    6.319849   5.345527   5.581498   2.997255   4.014002
    36  H    5.738876   5.572388   5.756727   3.667698   4.895051
    37  H    4.864699   4.062850   4.609520   2.085123   3.631803
    38  O    1.335172   3.894174   4.012054   5.065375   5.761610
    39  O    1.212932   3.011897   2.581166   4.895679   4.905005
    40  C    2.380688   4.983221   5.035769   6.451258   7.033543
    41  C    3.633528   6.043691   6.335906   7.273596   8.117561
    42  H    2.740982   5.516086   5.221220   6.939645   7.339415
    43  H    2.542094   4.776429   4.937478   6.584935   7.048203
    44  H    4.480991   6.914541   7.153304   8.298523   9.065481
    45  H    3.845702   5.850636   6.442746   7.042631   8.041083
    46  H    3.976925   6.465723   6.659138   7.370898   8.293145
                   31         32         33         34         35
    31  H    0.000000
    32  H    2.318273   0.000000
    33  H    3.437679   1.789250   0.000000
    34  H    3.400388   1.779444   1.755285   0.000000
    35  H    3.951821   3.876252   3.395901   2.759822   0.000000
    36  H    4.217449   3.707834   2.491886   2.822675   1.763166
    37  H    3.810128   4.318767   3.676755   3.811572   1.769055
    38  O    5.303864   6.349245   5.964840   7.209356   6.728542
    39  O    4.733761   6.391282   6.631962   7.535486   7.197040
    40  C    6.558429   7.584733   7.228976   8.557128   8.183256
    41  C    7.655157   8.437076   7.785379   9.222633   8.711004
    42  H    6.550330   7.446642   7.203091   8.589205   8.561499
    43  H    6.879832   8.178032   7.971943   9.174338   8.642797
    44  H    8.591311   9.384907   8.775248  10.243338   9.800649
    45  H    7.868128   8.744593   8.017016   9.364331   8.529611
    46  H    7.576241   8.058367   7.246273   8.785337   8.441489
                   36         37         38         39         40
    36  H    0.000000
    37  H    1.774961   0.000000
    38  O    5.836039   5.173122   0.000000
    39  O    6.782053   5.830165   2.262629   0.000000
    40  C    7.235960   6.619340   1.457900   2.710394   0.000000
    41  C    7.572872   7.094437   2.403006   4.164285   1.515205
    42  H    7.577492   7.120303   2.071231   2.859629   1.094633
    43  H    7.870693   7.041357   2.075681   2.476201   1.093098
    44  H    8.654940   8.185790   3.356183   4.799008   2.142676
    45  H    7.456081   6.836548   2.667823   4.463964   2.161856
    46  H    7.139832   6.912578   2.661314   4.685573   2.162852
                   41         42         43         44         45
    41  C    0.000000
    42  H    2.180089   0.000000
    43  H    2.183043   1.772023   0.000000
    44  H    1.095858   2.518300   2.521337   0.000000
    45  H    1.094362   3.086336   2.527169   1.776895   0.000000
    46  H    1.093041   2.526462   3.088050   1.779042   1.775362
                   46
    46  H    0.000000
 Stoichiometry    C17H22Cl3FeO3(6)
 Framework group  C1[X(C17H22Cl3FeO3)]
 Deg. of freedom   132
 Full point group                 C1      NOp   1
 Largest Abelian subgroup         C1      NOp   1
 Largest concise Abelian subgroup C1      NOp   1
                         Standard orientation:                         
 ---------------------------------------------------------------------
 Center     Atomic      Atomic             Coordinates (Angstroms)
 Number     Number       Type             X           Y           Z
 ---------------------------------------------------------------------
      1          6           0        3.212795    0.071024    0.512668
      2          6           0        1.886004   -0.352524    0.724834
      3          6           0        1.484607   -0.686697    2.032573
      4          6           0        2.384944   -0.613629    3.091899
      5          6           0        3.700089   -0.204221    2.866320
      6          6           0        4.107693    0.143300    1.575376
      7          6           0        0.866538   -0.414988   -0.365586
      8          6           0        0.980689    0.479089   -1.632831
      9          6           0        1.959941   -0.034819   -2.694545
     10          6           0        1.712701   -1.540671   -2.854129
     11          6           0        1.622742   -2.153989   -1.480947
     12          6           0        0.566702   -2.856882   -0.977608
     13          6           0       -0.751325   -3.001431   -1.674788
     14          8           0       -0.326820   -0.734457   -0.004508
     15         26           0       -2.093025   -0.132385    0.396753
     16         17           0       -2.967794    0.646827   -1.471165
     17          6           0        0.674918   -3.570211    0.332496
     18         17           0       -1.966981    1.329913    2.035969
     19         17           0       -3.114268   -1.963950    1.099024
     20          1           0        0.457705   -0.977398    2.212905
     21          1           0        2.053739   -0.866068    4.094809
     22          1           0        4.402424   -0.144532    3.693120
     23          1           0        5.124817    0.478942    1.395720
     24          1           0        3.547441    0.369825   -0.471760
     25          1           0       -0.032639    0.474651   -2.047423
     26          6           0        1.295038    1.933170   -1.239558
     27          1           0        1.800808    0.505443   -3.633531
     28          1           0        2.992629    0.164510   -2.398442
     29          1           0        0.795712   -1.711118   -3.425388
     30          1           0        2.529472   -2.006375   -3.419651
     31          1           0        2.566648   -2.235049   -0.948001
     32          1           0        1.666473   -3.487014    0.783084
     33          1           0       -0.079657   -3.184653    1.030118
     34          1           0        0.442661   -4.634429    0.189666
     35          1           0       -0.756165   -3.966120   -2.204660
     36          1           0       -1.575554   -3.028117   -0.956659
     37          1           0       -0.952284   -2.219863   -2.408811
     38          8           0        0.224846    2.517108   -0.695141
     39          8           0        2.366903    2.470642   -1.422411
     40          6           0        0.370031    3.909113   -0.286832
     41          6           0       -1.017067    4.468923   -0.045132
     42          1           0        0.988269    3.926804    0.616324
     43          1           0        0.906103    4.440117   -1.077732
     44          1           0       -0.934410    5.515615    0.268729
     45          1           0       -1.618230    4.427842   -0.958666
     46          1           0       -1.535247    3.907857    0.736810
 ---------------------------------------------------------------------
 Rotational constants (GHZ):           0.1971397           0.1652291           0.1415342
 Leave Link  202 at Sat Jun 19 21:34:59 2021, MaxMem=  2147483648 cpu:               0.2 elap:               0.1
 (Enter /SFS/product/gaussian/g16.a03/x86_64/avx/g16/l301.exe)
 Standard basis: Jul-CC-pVDZ (5D, 7F)
 Ernie: Thresh=  0.10000D-02 Tol=  0.10000D-05 Strict=F.
 Ernie:  134 primitive shells out of 958 were deleted.
 There are   766 symmetry adapted cartesian basis functions of A   symmetry.
 There are   710 symmetry adapted basis functions of A   symmetry.
   710 basis functions,  1571 primitive gaussians,   766 cartesian basis functions
   115 alpha electrons      110 beta electrons
       nuclear repulsion energy      3347.3452395856 Hartrees.
 IExCor=  402 DFT=T Ex+Corr=B3LYP ExCW=0 ScaHFX=  0.200000
 ScaDFX=  0.800000  0.720000  1.000000  0.810000 ScalE2=  1.000000  1.000000
 IRadAn=      5 IRanWt=     -1 IRanGd=            0 ICorTp=0 IEmpDi=  4
 NAtoms=   46 NActive=   46 NUniq=   46 SFac= 1.00D+00 NAtFMM=   60 NAOKFM=F Big=F
 Integral buffers will be    131072 words long.
 Raffenetti 2 integral format.
 Two-electron integral symmetry is turned on.
 Leave Link  301 at Sat Jun 19 21:34:59 2021, MaxMem=  2147483648 cpu:               0.9 elap:               0.1
 (Enter /SFS/product/gaussian/g16.a03/x86_64/avx/g16/l302.exe)
 NPDir=0 NMtPBC=     1 NCelOv=     1 NCel=       1 NClECP=     1 NCelD=      1
         NCelK=      1 NCelE2=     1 NClLst=     1 CellRange=     0.0.
 One-electron integrals computed using PRISM.
 One-electron integral symmetry used in STVInt
 NBasis=   710 RedAO= T EigKep=  1.68D-06  NBF=   710
 NBsUse=   710 1.00D-06 EigRej= -1.00D+00 NBFU=   710
 Precomputing XC quadrature grid using
 IXCGrd= 4 IRadAn=           5 IRanWt=          -1 IRanGd=           0 AccXCQ= 0.00D+00.
 Generated NRdTot=       0 NPtTot=           0 NUsed=           0 NTot=          32
 NSgBfM=   764   764   764   764   764 MxSgAt=    46 MxSgA2=    46.
 Leave Link  302 at Sat Jun 19 21:35:01 2021, MaxMem=  2147483648 cpu:              20.7 elap:               1.3
 (Enter /SFS/product/gaussian/g16.a03/x86_64/avx/g16/l303.exe)
 DipDrv:  MaxL=1.
 Leave Link  303 at Sat Jun 19 21:35:01 2021, MaxMem=  2147483648 cpu:               2.5 elap:               0.2
 (Enter /SFS/product/gaussian/g16.a03/x86_64/avx/g16/l401.exe)
 ExpMin= 1.40D-02 ExpMax= 4.32D+06 ExpMxC= 4.91D+03 IAcc=3 IRadAn=         5 AccDes= 0.00D+00
 Harris functional with IExCor=  402 and IRadAn=       5 diagonalized for initial guess.
 HarFok:  IExCor=  402 AccDes= 0.00D+00 IRadAn=         5 IDoV= 1 UseB2=F ITyADJ=14
 ICtDFT=  3500011 ScaDFX=  1.000000  1.000000  1.000000  1.000000
 FoFCou: FMM=F IPFlag=           0 FMFlag=      100000 FMFlg1=           0
         NFxFlg=           0 DoJE=T BraDBF=F KetDBF=T FulRan=T
         wScrn=  0.000000 ICntrl=       500 IOpCl=  0 I1Cent=   200000004 NGrid=           0
         NMat0=    1 NMatS0=      1 NMatT0=    0 NMatD0=    1 NMtDS0=    0 NMtDT0=    0
 Petite list used in FoFCou.
 Harris En= -3531.10742837837    
 JPrj=0 DoOrth=F DoCkMO=F.
 Initial guess <Sx>= 0.0000 <Sy>= 0.0000 <Sz>= 2.5000 <S**2>= 8.7500 S= 2.5000
 Leave Link  401 at Sat Jun 19 21:35:10 2021, MaxMem=  2147483648 cpu:             136.1 elap:               8.6
 (Enter /SFS/product/gaussian/g16.a03/x86_64/avx/g16/l502.exe)
 Integral symmetry usage will be decided dynamically.
 UHF open shell SCF:
 Using DIIS extrapolation, IDIIS=  1040.
 NGot=  2147483648 LenX=  2146290678 LenY=  2145703156
 Requested convergence on RMS density matrix=1.00D-08 within 128 cycles.
 Requested convergence on MAX density matrix=1.00D-06.
 Requested convergence on             energy=1.00D-06.
 No special actions if energy rises.
 Fock matrices will be formed incrementally for  20 cycles.

 Cycle   1  Pass 1  IDiag  1:
 FoFJK:  IHMeth= 1 ICntrl=       0 DoSepK=F KAlg= 0 I1Cent=           0 FoldK=F
 IRaf= 920000000 NMat=       1 IRICut=       1 DoRegI=T DoRafI=F ISym2E= 0 IDoP0=0 IntGTp=1.
 FoFCou: FMM=F IPFlag=           0 FMFlag=      100000 FMFlg1=           0
         NFxFlg=           0 DoJE=F BraDBF=F KetDBF=F FulRan=T
         wScrn=  0.000000 ICntrl=         0 IOpCl=  1 I1Cent=           0 NGrid=           0
         NMat0=    1 NMatS0=      1 NMatT0=    0 NMatD0=    1 NMtDS0=    0 NMtDT0=    0
 Symmetry not used in FoFCou.
 E= -3530.36434038697    
 DIIS: error= 1.67D-02 at cycle   1 NSaved=   1.
 NSaved= 1 IEnMin= 1 EnMin= -3530.36434038697     IErMin= 1 ErrMin= 1.67D-02
 ErrMax= 1.67D-02  0.00D+00 EMaxC= 1.00D-01 BMatC= 4.50D+00 BMatP= 4.50D+00
 IDIUse=3 WtCom= 8.33D-01 WtEn= 1.67D-01
 Coeff-Com:  0.100D+01
 Coeff-En:   0.100D+01
 Coeff:      0.100D+01
 Gap=     0.163 Goal=   None    Shift=    0.000
 Gap=     0.055 Goal=   None    Shift=    0.000
 GapD=    0.055 DampG=0.500 DampE=0.250 DampFc=0.1250 IDamp=-1.
 Damping current iteration by 1.25D-01
 RMSDP=3.70D-02 MaxDP=9.43D+00              OVMax= 8.99D-01

 Cycle   2  Pass 1  IDiag  1:
 RMSU=  2.59D-03    CP:  9.53D-01
 E= -3530.65608943894     Delta-E=       -0.291749051972 Rises=F Damp=T
 DIIS: error= 8.29D-03 at cycle   2 NSaved=   2.
 NSaved= 2 IEnMin= 2 EnMin= -3530.65608943894     IErMin= 2 ErrMin= 8.29D-03
 ErrMax= 8.29D-03  0.00D+00 EMaxC= 1.00D-01 BMatC= 1.22D+00 BMatP= 4.50D+00
 IDIUse=3 WtCom= 9.17D-01 WtEn= 8.29D-02
 Coeff-Com: -0.383D+00 0.138D+01
 Coeff-En:   0.551D-01 0.945D+00
 Coeff:     -0.347D+00 0.135D+01
 Gap=    -0.278 Goal=   None    Shift=    0.000
 Gap=    -0.010 Goal=   None    Shift=    0.000
 RMSDP=3.00D-02 MaxDP=9.24D+00 DE=-2.92D-01 OVMax= 9.60D-01

 Cycle   3  Pass 1  IDiag  1:
 RMSU=  8.10D-03    CP:  6.04D-01  2.32D+00
 E= -3529.99302716940     Delta-E=        0.663062269538 Rises=F Damp=F
 DIIS: error= 3.09D-02 at cycle   3 NSaved=   3.
 NSaved= 3 IEnMin= 2 EnMin= -3530.65608943894     IErMin= 2 ErrMin= 8.29D-03
 ErrMax= 3.09D-02  0.00D+00 EMaxC= 1.00D-01 BMatC= 6.25D+00 BMatP= 1.22D+00
 IDIUse=2 WtCom= 0.00D+00 WtEn= 1.00D+00
 Coeff-En:   0.000D+00 0.735D+00 0.265D+00
 Coeff:      0.000D+00 0.735D+00 0.265D+00
 Gap=    -0.134 Goal=   None    Shift=    0.000
 Gap=     0.218 Goal=   None    Shift=    0.000
 RMSDP=7.78D-03 MaxDP=1.41D+00 DE= 6.63D-01 OVMax= 6.83D-01

 Cycle   4  Pass 1  IDiag  1:
 RMSU=  5.51D-03    CP:  6.27D-01  3.00D+00  4.90D-01
 E= -3521.68847486105     Delta-E=        8.304552308355 Rises=F Damp=F
 DIIS: error= 8.47D-02 at cycle   4 NSaved=   4.
 NSaved= 4 IEnMin= 2 EnMin= -3530.65608943894     IErMin= 2 ErrMin= 8.29D-03
 ErrMax= 8.47D-02  0.00D+00 EMaxC= 1.00D-01 BMatC= 4.67D+01 BMatP= 1.22D+00
 IDIUse=2 WtCom= 0.00D+00 WtEn= 1.00D+00
 EnCoef did   100 forward-backward iterations
 Coeff-En:   0.373D+00 0.188D-01 0.421D+00 0.187D+00
 Coeff:      0.373D+00 0.188D-01 0.421D+00 0.187D+00
 Gap=     0.113 Goal=   None    Shift=    0.000
 Gap=     0.037 Goal=   None    Shift=    0.000
 RMSDP=5.38D-03 MaxDP=6.03D-01 DE= 8.30D+00 OVMax= 9.70D-01

 Cycle   5  Pass 1  IDiag  1:
 RMSU=  3.41D-03    CP:  6.36D-01  2.33D+00  6.38D-01  5.50D-01
 E= -3530.72272620017     Delta-E=       -9.034251339115 Rises=F Damp=F
 DIIS: error= 3.12D-02 at cycle   5 NSaved=   5.
 NSaved= 5 IEnMin= 5 EnMin= -3530.72272620017     IErMin= 2 ErrMin= 8.29D-03
 ErrMax= 3.12D-02  0.00D+00 EMaxC= 1.00D-01 BMatC= 4.39D+00 BMatP= 1.22D+00
 IDIUse=2 WtCom= 0.00D+00 WtEn= 1.00D+00
 Coeff-En:   0.000D+00 0.000D+00 0.383D+00 0.000D+00 0.617D+00
 Coeff:      0.000D+00 0.000D+00 0.383D+00 0.000D+00 0.617D+00
 Gap=     0.138 Goal=   None    Shift=    0.000
 Gap=     0.129 Goal=   None    Shift=    0.000
 RMSDP=4.49D-03 MaxDP=7.18D-01 DE=-9.03D+00 OVMax= 4.02D-01

 Cycle   6  Pass 1  IDiag  1:
 RMSU=  2.70D-03    CP:  6.64D-01  1.65D+00  6.49D-01  3.19D-01  5.10D-01
 E= -3531.17593017423     Delta-E=       -0.453203974070 Rises=F Damp=F
 DIIS: error= 1.23D-02 at cycle   6 NSaved=   6.
 NSaved= 6 IEnMin= 6 EnMin= -3531.17593017423     IErMin= 2 ErrMin= 8.29D-03
 ErrMax= 1.23D-02  0.00D+00 EMaxC= 1.00D-01 BMatC= 1.27D+00 BMatP= 1.22D+00
 IDIUse=3 WtCom= 8.77D-01 WtEn= 1.23D-01
 Coeff-Com: -0.375D+00 0.679D+00 0.219D+00 0.898D-04 0.173D+00 0.303D+00
 Coeff-En:   0.000D+00 0.000D+00 0.000D+00 0.000D+00 0.325D+00 0.675D+00
 Coeff:     -0.329D+00 0.596D+00 0.192D+00 0.787D-04 0.192D+00 0.349D+00
 Gap=     0.123 Goal=   None    Shift=    0.000
 Gap=     0.179 Goal=   None    Shift=    0.000
 RMSDP=3.46D-03 MaxDP=6.53D-01 DE=-4.53D-01 OVMax= 1.74D-01

 Cycle   7  Pass 1  IDiag  1:
 RMSU=  1.45D-03    CP:  6.42D-01  2.05D+00  6.77D-01  3.97D-01  7.04D-01
                    CP:  1.87D-01
 E= -3531.38250476810     Delta-E=       -0.206574593865 Rises=F Damp=F
 DIIS: error= 3.74D-03 at cycle   7 NSaved=   7.
 NSaved= 7 IEnMin= 7 EnMin= -3531.38250476810     IErMin= 7 ErrMin= 3.74D-03
 ErrMax= 3.74D-03  0.00D+00 EMaxC= 1.00D-01 BMatC= 1.67D-01 BMatP= 1.22D+00
 IDIUse=3 WtCom= 9.63D-01 WtEn= 3.74D-02
 Coeff-Com: -0.168D+00 0.237D+00 0.381D-01 0.732D-02-0.206D-01 0.269D+00
 Coeff-Com:  0.637D+00
 Coeff-En:   0.000D+00 0.000D+00 0.000D+00 0.000D+00 0.000D+00 0.170D+00
 Coeff-En:   0.830D+00
 Coeff:     -0.161D+00 0.228D+00 0.367D-01 0.704D-02-0.199D-01 0.266D+00
 Coeff:      0.644D+00
 Gap=     0.131 Goal=   None    Shift=    0.000
 Gap=     0.140 Goal=   None    Shift=    0.000
 RMSDP=1.17D-03 MaxDP=1.07D-01 DE=-2.07D-01 OVMax= 7.45D-02

 Cycle   8  Pass 1  IDiag  1:
 RMSU=  9.05D-04    CP:  6.44D-01  2.01D+00  6.78D-01  4.07D-01  6.95D-01
                    CP:  3.90D-01  6.88D-01
 E= -3531.41117295831     Delta-E=       -0.028668190212 Rises=F Damp=F
 DIIS: error= 2.57D-03 at cycle   8 NSaved=   8.
 NSaved= 8 IEnMin= 8 EnMin= -3531.41117295831     IErMin= 8 ErrMin= 2.57D-03
 ErrMax= 2.57D-03  0.00D+00 EMaxC= 1.00D-01 BMatC= 7.05D-02 BMatP= 1.67D-01
 IDIUse=3 WtCom= 9.74D-01 WtEn= 2.57D-02
 Coeff-Com: -0.936D-01 0.124D+00 0.321D-02 0.753D-02-0.368D-01 0.120D+00
 Coeff-Com:  0.454D+00 0.421D+00
 Coeff-En:   0.000D+00 0.000D+00 0.000D+00 0.000D+00 0.000D+00 0.000D+00
 Coeff-En:   0.240D+00 0.760D+00
 Coeff:     -0.912D-01 0.121D+00 0.313D-02 0.734D-02-0.359D-01 0.117D+00
 Coeff:      0.449D+00 0.430D+00
 Gap=     0.144 Goal=   None    Shift=    0.000
 Gap=     0.137 Goal=   None    Shift=    0.000
 RMSDP=5.73D-04 MaxDP=5.49D-02 DE=-2.87D-02 OVMax= 3.38D-02

 Cycle   9  Pass 1  IDiag  1:
 RMSU=  3.59D-04    CP:  6.46D-01  1.98D+00  6.69D-01  4.05D-01  6.54D-01
                    CP:  4.32D-01  8.14D-01  6.62D-01
 E= -3531.42103773156     Delta-E=       -0.009864773245 Rises=F Damp=F
 DIIS: error= 1.67D-03 at cycle   9 NSaved=   9.
 NSaved= 9 IEnMin= 9 EnMin= -3531.42103773156     IErMin= 9 ErrMin= 1.67D-03
 ErrMax= 1.67D-03  0.00D+00 EMaxC= 1.00D-01 BMatC= 2.05D-02 BMatP= 7.05D-02
 IDIUse=3 WtCom= 9.83D-01 WtEn= 1.67D-02
 Coeff-Com: -0.262D-01 0.420D-01-0.587D-02 0.148D-02 0.150D-01-0.601D-01
 Coeff-Com:  0.339D-02 0.143D+00 0.887D+00
 Coeff-En:   0.000D+00 0.000D+00 0.000D+00 0.000D+00 0.000D+00 0.000D+00
 Coeff-En:   0.000D+00 0.000D+00 0.100D+01
 Coeff:     -0.257D-01 0.413D-01-0.577D-02 0.145D-02 0.148D-01-0.591D-01
 Coeff:      0.333D-02 0.140D+00 0.889D+00
 Gap=     0.150 Goal=   None    Shift=    0.000
 Gap=     0.133 Goal=   None    Shift=    0.000
 RMSDP=3.46D-04 MaxDP=5.32D-02 DE=-9.86D-03 OVMax= 1.59D-02

 Cycle  10  Pass 1  IDiag  1:
 RMSU=  2.59D-04    CP:  6.47D-01  1.99D+00  6.56D-01  4.20D-01  6.72D-01
                    CP:  4.31D-01  8.72D-01  7.23D-01  1.16D+00
 E= -3531.42429212017     Delta-E=       -0.003254388616 Rises=F Damp=F
 DIIS: error= 4.19D-04 at cycle  10 NSaved=  10.
 NSaved=10 IEnMin=10 EnMin= -3531.42429212017     IErMin=10 ErrMin= 4.19D-04
 ErrMax= 4.19D-04  0.00D+00 EMaxC= 1.00D-01 BMatC= 3.21D-03 BMatP= 2.05D-02
 IDIUse=3 WtCom= 9.96D-01 WtEn= 4.19D-03
 Coeff-Com:  0.203D-03 0.408D-02-0.565D-02 0.514D-05 0.206D-01-0.647D-01
 Coeff-Com: -0.743D-01 0.143D-01 0.617D+00 0.489D+00
 Coeff-En:   0.000D+00 0.000D+00 0.000D+00 0.000D+00 0.000D+00 0.000D+00
 Coeff-En:   0.000D+00 0.000D+00 0.000D+00 0.100D+01
 Coeff:      0.202D-03 0.406D-02-0.562D-02 0.512D-05 0.206D-01-0.644D-01
 Coeff:     -0.740D-01 0.143D-01 0.614D+00 0.491D+00
 Gap=     0.148 Goal=   None    Shift=    0.000
 Gap=     0.130 Goal=   None    Shift=    0.000
 RMSDP=1.66D-04 MaxDP=1.51D-02 DE=-3.25D-03 OVMax= 1.10D-02

 Cycle  11  Pass 1  IDiag  1:
 RMSU=  1.27D-04    CP:  6.47D-01  2.00D+00  6.55D-01  4.22D-01  6.73D-01
                    CP:  4.27D-01  8.43D-01  7.99D-01  1.23D+00  7.99D-01
 E= -3531.42496167649     Delta-E=       -0.000669556321 Rises=F Damp=F
 DIIS: error= 1.40D-04 at cycle  11 NSaved=  11.
 NSaved=11 IEnMin=11 EnMin= -3531.42496167649     IErMin=11 ErrMin= 1.40D-04
 ErrMax= 1.40D-04  0.00D+00 EMaxC= 1.00D-01 BMatC= 2.88D-04 BMatP= 3.21D-03
 IDIUse=3 WtCom= 9.99D-01 WtEn= 1.40D-03
 Coeff-Com:  0.945D-03 0.137D-02-0.110D-02-0.179D-03 0.502D-02-0.201D-01
 Coeff-Com: -0.186D-01-0.118D-01 0.112D+00 0.239D+00 0.693D+00
 Coeff-En:   0.000D+00 0.000D+00 0.000D+00 0.000D+00 0.000D+00 0.000D+00
 Coeff-En:   0.000D+00 0.000D+00 0.000D+00 0.000D+00 0.100D+01
 Coeff:      0.944D-03 0.137D-02-0.110D-02-0.178D-03 0.501D-02-0.200D-01
 Coeff:     -0.186D-01-0.118D-01 0.112D+00 0.239D+00 0.694D+00
 Gap=     0.148 Goal=   None    Shift=    0.000
 Gap=     0.130 Goal=   None    Shift=    0.000
 RMSDP=5.41D-05 MaxDP=4.97D-03 DE=-6.70D-04 OVMax= 2.86D-03

 Cycle  12  Pass 1  IDiag  1:
 RMSU=  4.07D-05    CP:  6.47D-01  2.00D+00  6.55D-01  4.22D-01  6.74D-01
                    CP:  4.23D-01  8.57D-01  7.94D-01  1.27D+00  8.35D-01
                    CP:  8.42D-01
 E= -3531.42502385354     Delta-E=       -0.000062177043 Rises=F Damp=F
 DIIS: error= 7.12D-05 at cycle  12 NSaved=  12.
 NSaved=12 IEnMin=12 EnMin= -3531.42502385354     IErMin=12 ErrMin= 7.12D-05
 ErrMax= 7.12D-05  0.00D+00 EMaxC= 1.00D-01 BMatC= 5.10D-05 BMatP= 2.88D-04
 IDIUse=1 WtCom= 1.00D+00 WtEn= 0.00D+00
 Coeff-Com:  0.877D-03-0.400D-03-0.116D-03-0.175D-04-0.249D-03-0.189D-02
 Coeff-Com:  0.392D-02-0.453D-02-0.160D-01 0.726D-01 0.391D+00 0.555D+00
 Coeff:      0.877D-03-0.400D-03-0.116D-03-0.175D-04-0.249D-03-0.189D-02
 Coeff:      0.392D-02-0.453D-02-0.160D-01 0.726D-01 0.391D+00 0.555D+00
 Gap=     0.148 Goal=   None    Shift=    0.000
 Gap=     0.130 Goal=   None    Shift=    0.000
 RMSDP=2.21D-05 MaxDP=1.36D-03 DE=-6.22D-05 OVMax= 1.57D-03

 Cycle  13  Pass 1  IDiag  1:
 RMSU=  1.85D-05    CP:  6.47D-01  2.00D+00  6.55D-01  4.22D-01  6.74D-01
                    CP:  4.23D-01  8.57D-01  7.92D-01  1.26D+00  8.40D-01
                    CP:  8.97D-01  7.78D-01
 E= -3531.42503764277     Delta-E=       -0.000013789229 Rises=F Damp=F
 DIIS: error= 2.57D-05 at cycle  13 NSaved=  13.
 NSaved=13 IEnMin=13 EnMin= -3531.42503764277     IErMin=13 ErrMin= 2.57D-05
 ErrMax= 2.57D-05  0.00D+00 EMaxC= 1.00D-01 BMatC= 4.78D-06 BMatP= 5.10D-05
 IDIUse=1 WtCom= 1.00D+00 WtEn= 0.00D+00
 Coeff-Com:  0.471D-03-0.453D-03 0.838D-05-0.366D-05-0.472D-03 0.465D-03
 Coeff-Com:  0.263D-02-0.118D-02-0.148D-01 0.130D-01 0.920D-01 0.259D+00
 Coeff-Com:  0.650D+00
 Coeff:      0.471D-03-0.453D-03 0.838D-05-0.366D-05-0.472D-03 0.465D-03
 Coeff:      0.263D-02-0.118D-02-0.148D-01 0.130D-01 0.920D-01 0.259D+00
 Coeff:      0.650D+00
 Gap=     0.148 Goal=   None    Shift=    0.000
 Gap=     0.130 Goal=   None    Shift=    0.000
 RMSDP=9.94D-06 MaxDP=1.00D-03 DE=-1.38D-05 OVMax= 7.63D-04

 Cycle  14  Pass 1  IDiag  1:
 RMSU=  9.28D-06    CP:  6.47D-01  2.00D+00  6.55D-01  4.22D-01  6.74D-01
                    CP:  4.22D-01  8.58D-01  7.93D-01  1.26D+00  8.45D-01
                    CP:  8.98D-01  8.38D-01  1.03D+00
 E= -3531.42503944859     Delta-E=       -0.000001805827 Rises=F Damp=F
 DIIS: error= 1.36D-05 at cycle  14 NSaved=  14.
 NSaved=14 IEnMin=14 EnMin= -3531.42503944859     IErMin=14 ErrMin= 1.36D-05
 ErrMax= 1.36D-05  0.00D+00 EMaxC= 1.00D-01 BMatC= 1.38D-06 BMatP= 4.78D-06
 IDIUse=1 WtCom= 1.00D+00 WtEn= 0.00D+00
 Coeff-Com: -0.289D-04-0.477D-04 0.773D-04-0.452D-05-0.160D-03 0.676D-03
 Coeff-Com: -0.227D-03 0.326D-03-0.189D-02-0.146D-01-0.760D-01-0.342D-01
 Coeff-Com:  0.359D+00 0.767D+00
 Coeff:     -0.289D-04-0.477D-04 0.773D-04-0.452D-05-0.160D-03 0.676D-03
 Coeff:     -0.227D-03 0.326D-03-0.189D-02-0.146D-01-0.760D-01-0.342D-01
 Coeff:      0.359D+00 0.767D+00
 Gap=     0.148 Goal=   None    Shift=    0.000
 Gap=     0.130 Goal=   None    Shift=    0.000
 RMSDP=7.63D-06 MaxDP=6.41D-04 DE=-1.81D-06 OVMax= 6.98D-04

 Cycle  15  Pass 1  IDiag  1:
 RMSU=  5.39D-06    CP:  6.47D-01  2.00D+00  6.55D-01  4.22D-01  6.74D-01
                    CP:  4.22D-01  8.58D-01  7.93D-01  1.26D+00  8.48D-01
                    CP:  8.97D-01  8.92D-01  1.23D+00  1.22D+00
 E= -3531.42504021225     Delta-E=       -0.000000763655 Rises=F Damp=F
 DIIS: error= 6.20D-06 at cycle  15 NSaved=  15.
 NSaved=15 IEnMin=15 EnMin= -3531.42504021225     IErMin=15 ErrMin= 6.20D-06
 ErrMax= 6.20D-06  0.00D+00 EMaxC= 1.00D-01 BMatC= 4.10D-07 BMatP= 1.38D-06
 IDIUse=1 WtCom= 1.00D+00 WtEn= 0.00D+00
 Coeff-Com: -0.993D-04 0.327D-04 0.433D-04-0.969D-06 0.500D-04 0.178D-03
 Coeff-Com: -0.958D-03 0.596D-03 0.407D-02-0.106D-01-0.601D-01-0.887D-01
 Coeff-Com:  0.100D-01 0.374D+00 0.771D+00
 Coeff:     -0.993D-04 0.327D-04 0.433D-04-0.969D-06 0.500D-04 0.178D-03
 Coeff:     -0.958D-03 0.596D-03 0.407D-02-0.106D-01-0.601D-01-0.887D-01
 Coeff:      0.100D-01 0.374D+00 0.771D+00
 Gap=     0.149 Goal=   None    Shift=    0.000
 Gap=     0.130 Goal=   None    Shift=    0.000
 RMSDP=4.64D-06 MaxDP=5.53D-04 DE=-7.64D-07 OVMax= 3.64D-04

 Cycle  16  Pass 1  IDiag  1:
 RMSU=  2.74D-06    CP:  6.47D-01  2.00D+00  6.55D-01  4.22D-01  6.74D-01
                    CP:  4.22D-01  8.58D-01  7.94D-01  1.26D+00  8.47D-01
                    CP:  8.97D-01  9.28D-01  1.35D+00  1.48D+00  1.16D+00
 E= -3531.42504044200     Delta-E=       -0.000000229756 Rises=F Damp=F
 DIIS: error= 4.07D-06 at cycle  16 NSaved=  16.
 NSaved=16 IEnMin=16 EnMin= -3531.42504044200     IErMin=16 ErrMin= 4.07D-06
 ErrMax= 4.07D-06  0.00D+00 EMaxC= 1.00D-01 BMatC= 1.04D-07 BMatP= 4.10D-07
 IDIUse=1 WtCom= 1.00D+00 WtEn= 0.00D+00
 Coeff-Com: -0.121D-03 0.170D-03 0.389D-04-0.793D-06 0.163D-04-0.804D-04
 Coeff-Com: -0.398D-03 0.352D-03 0.245D-02-0.197D-02-0.111D-01-0.371D-01
 Coeff-Com: -0.774D-01 0.146D-01 0.401D+00 0.709D+00
 Coeff:     -0.121D-03 0.170D-03 0.389D-04-0.793D-06 0.163D-04-0.804D-04
 Coeff:     -0.398D-03 0.352D-03 0.245D-02-0.197D-02-0.111D-01-0.371D-01
 Coeff:     -0.774D-01 0.146D-01 0.401D+00 0.709D+00
 Gap=     0.149 Goal=   None    Shift=    0.000
 Gap=     0.130 Goal=   None    Shift=    0.000
 RMSDP=2.44D-06 MaxDP=4.18D-04 DE=-2.30D-07 OVMax= 1.82D-04

 Cycle  17  Pass 1  IDiag  1:
 RMSU=  1.16D-06    CP:  6.47D-01  2.00D+00  6.55D-01  4.22D-01  6.74D-01
                    CP:  4.22D-01  8.58D-01  7.94D-01  1.26D+00  8.47D-01
                    CP:  8.99D-01  9.39D-01  1.41D+00  1.59D+00  1.38D+00
                    CP:  1.21D+00
 E= -3531.42504050069     Delta-E=       -0.000000058682 Rises=F Damp=F
 DIIS: error= 2.44D-06 at cycle  17 NSaved=  17.
 NSaved=17 IEnMin=17 EnMin= -3531.42504050069     IErMin=17 ErrMin= 2.44D-06
 ErrMax= 2.44D-06  0.00D+00 EMaxC= 1.00D-01 BMatC= 2.60D-08 BMatP= 1.04D-07
 IDIUse=1 WtCom= 1.00D+00 WtEn= 0.00D+00
 Coeff-Com: -0.174D-04 0.440D-04 0.400D-05-0.651D-06 0.551D-05-0.790D-04
 Coeff-Com: -0.220D-04 0.809D-04 0.215D-03 0.154D-02 0.837D-02 0.173D-02
 Coeff-Com: -0.467D-01-0.876D-01 0.230D-01 0.399D+00 0.701D+00
 Coeff:     -0.174D-04 0.440D-04 0.400D-05-0.651D-06 0.551D-05-0.790D-04
 Coeff:     -0.220D-04 0.809D-04 0.215D-03 0.154D-02 0.837D-02 0.173D-02
 Coeff:     -0.467D-01-0.876D-01 0.230D-01 0.399D+00 0.701D+00
 Gap=     0.149 Goal=   None    Shift=    0.000
 Gap=     0.130 Goal=   None    Shift=    0.000
 RMSDP=1.51D-06 MaxDP=2.54D-04 DE=-5.87D-08 OVMax= 9.45D-05

 Cycle  18  Pass 1  IDiag  1:
 RMSU=  6.46D-07    CP:  6.47D-01  2.00D+00  6.55D-01  4.22D-01  6.74D-01
                    CP:  4.22D-01  8.58D-01  7.94D-01  1.26D+00  8.47D-01
                    CP:  8.99D-01  9.48D-01  1.43D+00  1.65D+00  1.50D+00
                    CP:  1.48D+00  1.37D+00
 E= -3531.42504051870     Delta-E=       -0.000000018013 Rises=F Damp=F
 DIIS: error= 1.15D-06 at cycle  18 NSaved=  18.
 NSaved=18 IEnMin=18 EnMin= -3531.42504051870     IErMin=18 ErrMin= 1.15D-06
 ErrMax= 1.15D-06  0.00D+00 EMaxC= 1.00D-01 BMatC= 9.04D-09 BMatP= 2.60D-08
 IDIUse=1 WtCom= 1.00D+00 WtEn= 0.00D+00
 Coeff-Com:  0.180D-04-0.132D-04-0.776D-05 0.509D-07 0.337D-05-0.253D-04
 Coeff-Com:  0.750D-04-0.757D-04-0.581D-03 0.143D-02 0.784D-02 0.112D-01
 Coeff-Com: -0.749D-02-0.566D-01-0.995D-01 0.436D-01 0.424D+00 0.676D+00
 Coeff:      0.180D-04-0.132D-04-0.776D-05 0.509D-07 0.337D-05-0.253D-04
 Coeff:      0.750D-04-0.757D-04-0.581D-03 0.143D-02 0.784D-02 0.112D-01
 Coeff:     -0.749D-02-0.566D-01-0.995D-01 0.436D-01 0.424D+00 0.676D+00
 Gap=     0.149 Goal=   None    Shift=    0.000
 Gap=     0.130 Goal=   None    Shift=    0.000
 RMSDP=9.03D-07 MaxDP=1.97D-04 DE=-1.80D-08 OVMax= 5.42D-05

 Cycle  19  Pass 1  IDiag  1:
 RMSU=  3.50D-07    CP:  6.47D-01  2.00D+00  6.55D-01  4.22D-01  6.74D-01
                    CP:  4.22D-01  8.58D-01  7.94D-01  1.26D+00  8.47D-01
                    CP:  8.99D-01  9.49D-01  1.45D+00  1.69D+00  1.56D+00
                    CP:  1.64D+00  1.67D+00  1.22D+00
 E= -3531.42504052469     Delta-E=       -0.000000005992 Rises=F Damp=F
 DIIS: error= 6.10D-07 at cycle  19 NSaved=  19.
 NSaved=19 IEnMin=19 EnMin= -3531.42504052469     IErMin=19 ErrMin= 6.10D-07
 ErrMax= 6.10D-07  0.00D+00 EMaxC= 1.00D-01 BMatC= 1.74D-09 BMatP= 9.04D-09
 IDIUse=1 WtCom= 1.00D+00 WtEn= 0.00D+00
 Coeff-Com:  0.174D-04-0.236D-04-0.609D-05-0.652D-08-0.498D-06 0.117D-04
 Coeff-Com:  0.608D-04-0.792D-04-0.398D-03 0.117D-03 0.987D-03 0.507D-02
 Coeff-Com:  0.133D-01 0.354D-02-0.541D-01-0.122D+00-0.576D-01 0.261D+00
 Coeff-Com:  0.950D+00
 Coeff:      0.174D-04-0.236D-04-0.609D-05-0.652D-08-0.498D-06 0.117D-04
 Coeff:      0.608D-04-0.792D-04-0.398D-03 0.117D-03 0.987D-03 0.507D-02
 Coeff:      0.133D-01 0.354D-02-0.541D-01-0.122D+00-0.576D-01 0.261D+00
 Coeff:      0.950D+00
 Gap=     0.149 Goal=   None    Shift=    0.000
 Gap=     0.130 Goal=   None    Shift=    0.000
 RMSDP=6.69D-07 MaxDP=1.13D-04 DE=-5.99D-09 OVMax= 3.58D-05

 Cycle  20  Pass 1  IDiag  1:
 RMSU=  1.77D-07    CP:  6.47D-01  2.00D+00  6.55D-01  4.22D-01  6.74D-01
                    CP:  4.22D-01  8.58D-01  7.94D-01  1.26D+00  8.48D-01
                    CP:  8.99D-01  9.52D-01  1.45D+00  1.71D+00  1.61D+00
                    CP:  1.77D+00  1.94D+00  1.50D+00  1.31D+00
 E= -3531.42504052659     Delta-E=       -0.000000001896 Rises=F Damp=F
 DIIS: error= 2.51D-07 at cycle  20 NSaved=  20.
 NSaved=20 IEnMin=20 EnMin= -3531.42504052659     IErMin=20 ErrMin= 2.51D-07
 ErrMax= 2.51D-07  0.00D+00 EMaxC= 1.00D-01 BMatC= 4.03D-10 BMatP= 1.74D-09
 IDIUse=1 WtCom= 1.00D+00 WtEn= 0.00D+00
 Coeff-Com:  0.138D-05-0.428D-05-0.387D-06 0.358D-07-0.134D-05 0.101D-04
 Coeff-Com:  0.104D-04-0.264D-04-0.403D-04-0.263D-03-0.117D-02-0.105D-03
 Coeff-Com:  0.773D-02 0.134D-01-0.470D-02-0.665D-01-0.105D+00-0.246D-01
 Coeff-Com:  0.448D+00 0.733D+00
 Coeff:      0.138D-05-0.428D-05-0.387D-06 0.358D-07-0.134D-05 0.101D-04
 Coeff:      0.104D-04-0.264D-04-0.403D-04-0.263D-03-0.117D-02-0.105D-03
 Coeff:      0.773D-02 0.134D-01-0.470D-02-0.665D-01-0.105D+00-0.246D-01
 Coeff:      0.448D+00 0.733D+00
 Gap=     0.149 Goal=   None    Shift=    0.000
 Gap=     0.130 Goal=   None    Shift=    0.000
 RMSDP=2.26D-07 MaxDP=4.48D-05 DE=-1.90D-09 OVMax= 1.25D-05

 Cycle  21  Pass 1  IDiag  1:
 Restarting incremental Fock formation.
 E= -3531.42504052682     Delta-E=       -0.000000000228 Rises=F Damp=F
 DIIS: error= 1.02D-07 at cycle  21 NSaved=  20.
 NSaved=20 IEnMin=20 EnMin= -3531.42504052682     IErMin=20 ErrMin= 1.02D-07
 ErrMax= 1.02D-07  0.00D+00 EMaxC= 1.00D-01 BMatC= 1.19D-10 BMatP= 4.03D-10
 IDIUse=1 WtCom= 1.00D+00 WtEn= 0.00D+00
 Coeff-Com: -0.179D-05 0.142D-05 0.819D-06-0.126D-05 0.215D-05-0.165D-05
 Coeff-Com:  0.398D-05 0.582D-04-0.980D-04-0.496D-03-0.694D-03 0.108D-02
 Coeff-Com:  0.475D-02 0.613D-02-0.890D-02-0.343D-01-0.583D-01 0.230D-01
 Coeff-Com:  0.351D+00 0.717D+00
 Coeff:     -0.179D-05 0.142D-05 0.819D-06-0.126D-05 0.215D-05-0.165D-05
 Coeff:      0.398D-05 0.582D-04-0.980D-04-0.496D-03-0.694D-03 0.108D-02
 Coeff:      0.475D-02 0.613D-02-0.890D-02-0.343D-01-0.583D-01 0.230D-01
 Coeff:      0.351D+00 0.717D+00
 Gap=     0.149 Goal=   None    Shift=    0.000
 Gap=     0.130 Goal=   None    Shift=    0.000
[...]
    14   Atom        0.022031     -0.069879      0.047848
    15   Atom        0.109417      0.010417     -0.119834
    16   Atom       -0.094197     -0.091980      0.186177
    17   Atom        0.001223      0.006525     -0.007749
    18   Atom       -0.142603      0.053522      0.089081
    19   Atom       -0.090735      0.193592     -0.102857
    20   Atom        0.015163     -0.016421      0.001259
    21   Atom        0.002581     -0.003720      0.001139
    22   Atom        0.002561     -0.001837     -0.000724
    23   Atom        0.003610     -0.001792     -0.001819
    24   Atom        0.007328     -0.003741     -0.003588
    25   Atom        0.004851     -0.017611      0.012760
    26   Atom        0.007143     -0.001703     -0.005441
    27   Atom        0.001396     -0.003761      0.002364
    28   Atom        0.004711     -0.003556     -0.001154
    29   Atom       -0.000597     -0.004334      0.004931
    30   Atom        0.001560     -0.002480      0.000920
    31   Atom        0.008226     -0.003417     -0.004809
    32   Atom        0.003413      0.001384     -0.004797
    33   Atom       -0.000149      0.011346     -0.011197
    34   Atom       -0.001298      0.006318     -0.005020
    35   Atom       -0.004568      0.005902     -0.001334
    36   Atom       -0.016805      0.027314     -0.010509
    37   Atom       -0.009243      0.000153      0.009090
    38   Atom        0.001939      0.006585     -0.008524
    39   Atom        0.003061     -0.000609     -0.002452
    40   Atom       -0.000953      0.006408     -0.005454
    41   Atom       -0.005227      0.010746     -0.005519
    42   Atom        0.000845      0.004175     -0.005019
    43   Atom       -0.000379      0.003312     -0.002933
    44   Atom       -0.003095      0.006548     -0.003453
    45   Atom       -0.005739      0.010012     -0.004272
    46   Atom       -0.009538      0.018247     -0.008710
 --------------------------------------------------------
                        XY            XZ            YZ
 --------------------------------------------------------
     1   Atom        0.001416      0.000405     -0.000566
     2   Atom       -0.001232      0.009514      0.002189
     3   Atom       -0.003177      0.012210     -0.001236
     4   Atom       -0.001437      0.006047     -0.000363
     5   Atom        0.000369      0.003033     -0.000301
     6   Atom       -0.000208      0.001849      0.000425
     7   Atom        0.016462     -0.020980     -0.008161
     8   Atom        0.007627     -0.019254     -0.010234
     9   Atom        0.000058     -0.007920      0.000609
    10   Atom       -0.003190     -0.007333      0.002841
    11   Atom       -0.019852     -0.015555      0.022092
    12   Atom       -0.022562     -0.012580      0.022972
    13   Atom       -0.009552     -0.006781      0.015544
    14   Atom       -0.190326      0.079182     -0.009843
    15   Atom       -0.083098     -0.057639      0.003358
    16   Atom       -0.039997      0.133681     -0.130554
    17   Atom       -0.011329     -0.000478     -0.000060
    18   Atom        0.046675      0.042283      0.203592
    19   Atom        0.175029     -0.045502     -0.131919
    20   Atom       -0.010540      0.025241     -0.006782
    21   Atom       -0.001127      0.005682     -0.000881
    22   Atom       -0.000044      0.002062     -0.000024
    23   Atom        0.000394      0.000612      0.000067
    24   Atom        0.000967     -0.001785     -0.000054
    25   Atom        0.006751     -0.026348     -0.010585
    26   Atom        0.009786     -0.007530     -0.004498
    27   Atom        0.000902     -0.005847     -0.001343
    28   Atom        0.000755     -0.004713     -0.000405
    29   Atom       -0.003152     -0.007072      0.003832
    30   Atom       -0.001861     -0.004359      0.001495
    31   Atom       -0.005132     -0.002233      0.002302
    32   Atom       -0.007781      0.001027     -0.001069
    33   Atom       -0.016387      0.003151     -0.006050
    34   Atom       -0.006270     -0.000478      0.000103
    35   Atom       -0.003769     -0.002510      0.008072
    36   Atom       -0.008852     -0.005385      0.021008
    37   Atom       -0.007248     -0.008282      0.017536
    38   Atom        0.016743     -0.007262     -0.007983
    39   Atom        0.004969     -0.003053     -0.001570
    40   Atom        0.007966     -0.001529     -0.002227
    41   Atom        0.004827     -0.000796     -0.002292
    42   Atom        0.007490      0.000140      0.000371
    43   Atom        0.004828     -0.001563     -0.002235
    44   Atom        0.002433     -0.000086     -0.000354
    45   Atom        0.002342     -0.000498     -0.004568
    46   Atom        0.004792      0.000035      0.000473
 --------------------------------------------------------


 ---------------------------------------------------------------------------------
              Anisotropic Spin Dipole Couplings in Principal Axis System
 ---------------------------------------------------------------------------------

       Atom             a.u.   MegaHertz   Gauss  10(-4) cm-1        Axes

              Baa    -0.0082    -1.103    -0.394    -0.368 -0.0708  0.9859  0.1514
     1 C(13)  Bbb    -0.0043    -0.572    -0.204    -0.191 -0.0111 -0.1526  0.9882
              Bcc     0.0125     1.675     0.598     0.559  0.9974  0.0683  0.0217
 
              Baa    -0.0153    -2.048    -0.731    -0.683 -0.2129 -0.5912  0.7779
     2 C(13)  Bbb    -0.0102    -1.364    -0.487    -0.455 -0.1355  0.8064  0.5757
              Bcc     0.0254     3.412     1.217     1.138  0.9676 -0.0172  0.2517
 
              Baa    -0.0121    -1.629    -0.581    -0.543  0.1403  0.9885 -0.0560
     3 C(13)  Bbb    -0.0094    -1.260    -0.450    -0.420 -0.4315  0.1120  0.8951
              Bcc     0.0215     2.889     1.031     0.964  0.8911 -0.1015  0.4423
 
              Baa    -0.0051    -0.685    -0.245    -0.229 -0.5073 -0.3650  0.7806
     4 C(13)  Bbb    -0.0039    -0.520    -0.186    -0.173 -0.0986  0.9245  0.3682
              Bcc     0.0090     1.205     0.430     0.402  0.8561 -0.1099  0.5050
 
              Baa    -0.0043    -0.583    -0.208    -0.195 -0.0898  0.9836  0.1566
     5 C(13)  Bbb    -0.0020    -0.262    -0.094    -0.087 -0.3859 -0.1793  0.9049
              Bcc     0.0063     0.846     0.302     0.282  0.9181  0.0208  0.3957
 
              Baa    -0.0037    -0.499    -0.178    -0.166 -0.2102 -0.2193  0.9527
     6 C(13)  Bbb    -0.0016    -0.210    -0.075    -0.070 -0.0309  0.9755  0.2177
              Bcc     0.0053     0.709     0.253     0.237  0.9772 -0.0163  0.2119
 
              Baa    -0.0395    -5.297    -1.890    -1.767 -0.0078  0.8046  0.5937
     7 C(13)  Bbb    -0.0302    -4.055    -1.447    -1.353  0.2777 -0.5687  0.7743
              Bcc     0.0697     9.351     3.337     3.119  0.9606  0.1709 -0.2191
 
              Baa    -0.0172    -2.309    -0.824    -0.770  0.2648  0.7204  0.6410
     8 C(13)  Bbb    -0.0117    -1.566    -0.559    -0.522  0.6474 -0.6254  0.4355
              Bcc     0.0289     3.875     1.383     1.292  0.7147  0.2996 -0.6320
 
              Baa    -0.0066    -0.880    -0.314    -0.294  0.6444 -0.1405  0.7517
     9 C(13)  Bbb    -0.0030    -0.399    -0.142    -0.133  0.1130  0.9897  0.0881
              Bcc     0.0095     1.279     0.457     0.427  0.7563 -0.0282 -0.6536
 
              Baa    -0.0058    -0.774    -0.276    -0.258  0.7046  0.0973  0.7029
    10 C(13)  Bbb    -0.0045    -0.607    -0.217    -0.203  0.1488  0.9483 -0.2804
              Bcc     0.0103     1.381     0.493     0.461  0.6938 -0.3021 -0.6537
 
              Baa    -0.0231    -3.098    -1.105    -1.033  0.2979 -0.3879  0.8722
    11 C(13)  Bbb    -0.0172    -2.308    -0.824    -0.770  0.8136  0.5810 -0.0195
              Bcc     0.0403     5.406     1.929     1.803 -0.4992  0.7155  0.4887
 
              Baa    -0.0241    -3.238    -1.155    -1.080  0.1021 -0.4250  0.8994
    12 C(13)  Bbb    -0.0201    -2.701    -0.964    -0.901  0.8880  0.4465  0.1102
              Bcc     0.0443     5.939     2.119     1.981 -0.4485  0.7874  0.4230
 
              Baa    -0.0131    -1.756    -0.626    -0.586  0.1456 -0.5130  0.8459
    13 C(13)  Bbb    -0.0116    -1.556    -0.555    -0.519  0.9278  0.3677  0.0633
              Bcc     0.0247     3.311     1.182     1.105 -0.3435  0.7756  0.5295
 
              Baa    -0.2262    16.368     5.841     5.460  0.6318  0.7594 -0.1553
    14 O(17)  Bbb     0.0234    -1.695    -0.605    -0.565 -0.2304  0.3752  0.8979
              Bcc     0.2028   -14.673    -5.236    -4.895  0.7401 -0.5315  0.4120
 
              Baa    -0.1356    -2.348    -0.838    -0.783  0.2689  0.1311  0.9542
    15 Fe(57) Bbb    -0.0305    -0.528    -0.188    -0.176  0.4212  0.8749 -0.2389
              Bcc     0.1661     2.876     1.026     0.959  0.8662 -0.4662 -0.1801
 
              Baa    -0.1555    -8.139    -2.904    -2.715  0.6816 -0.5538 -0.4783
    16 Cl(35) Bbb    -0.1329    -6.956    -2.482    -2.320  0.6470  0.7614  0.0405
              Bcc     0.2884    15.095     5.386     5.035  0.3418 -0.3370  0.8773
 
              Baa    -0.0082    -1.096    -0.391    -0.366  0.5619  0.4361  0.7029
    17 C(13)  Bbb    -0.0073    -0.986    -0.352    -0.329 -0.5460 -0.4429  0.7112
              Bcc     0.0155     2.082     0.743     0.694 -0.6215  0.7834  0.0107
 
              Baa    -0.1534    -8.031    -2.866    -2.679  0.9519 -0.2952  0.0818
    18 Cl(35) Bbb    -0.1314    -6.879    -2.454    -2.294  0.2697  0.6812 -0.6806
              Bcc     0.2849    14.909     5.320     4.973  0.1452  0.6700  0.7280
 
              Baa    -0.1808    -9.465    -3.377    -3.157  0.7708 -0.4996 -0.3954
    19 Cl(35) Bbb    -0.1414    -7.399    -2.640    -2.468  0.4961  0.0812  0.8645
              Bcc     0.3222    16.864     6.017     5.625  0.3998  0.8624 -0.3105
 
              Baa    -0.0198   -10.580    -3.775    -3.529  0.4381  0.8645 -0.2463
    20 H(1)   Bbb    -0.0175    -9.321    -3.326    -3.109 -0.4516  0.4486  0.7712
              Bcc     0.0373    19.901     7.101     6.638  0.7772 -0.2266  0.5870
 
              Baa    -0.0040    -2.117    -0.755    -0.706  0.4948  0.7612 -0.4192
    21 H(1)   Bbb    -0.0038    -2.026    -0.723    -0.676 -0.4471  0.6366  0.6283
              Bcc     0.0078     4.143     1.478     1.382  0.7452 -0.1234  0.6554
 
              Baa    -0.0018    -0.980    -0.350    -0.327 -0.0015  0.9997  0.0244
    22 H(1)   Bbb    -0.0017    -0.916    -0.327    -0.306 -0.4341 -0.0226  0.9006
              Bcc     0.0036     1.897     0.677     0.633  0.9008 -0.0092  0.4340
 
              Baa    -0.0019    -1.011    -0.361    -0.337 -0.0848 -0.2946  0.9518
    23 H(1)   Bbb    -0.0018    -0.968    -0.345    -0.323 -0.1016  0.9529  0.2859
              Bcc     0.0037     1.978     0.706     0.660  0.9912  0.0724  0.1107
 
              Baa    -0.0039    -2.107    -0.752    -0.703  0.1746 -0.6119  0.7714
    24 H(1)   Bbb    -0.0037    -1.998    -0.713    -0.667  0.0307  0.7865  0.6169
              Bcc     0.0077     4.105     1.465     1.369  0.9842  0.0840 -0.1561
 
              Baa    -0.0213   -11.348    -4.049    -3.785  0.2198  0.8702  0.4409
    25 H(1)   Bbb    -0.0169    -9.043    -3.227    -3.016  0.7435 -0.4421  0.5019
              Bcc     0.0382    20.391     7.276     6.802 -0.6316 -0.2175  0.7441
 
              Baa    -0.0090    -1.203    -0.429    -0.401  0.4488 -0.0522  0.8921
    26 C(13)  Bbb    -0.0079    -1.065    -0.380    -0.355 -0.4279  0.8638  0.2658
              Bcc     0.0169     2.268     0.809     0.756  0.7845  0.5011 -0.3653
 
              Baa    -0.0042    -2.255    -0.805    -0.752  0.4614  0.6953  0.5510
    27 H(1)   Bbb    -0.0037    -1.995    -0.712    -0.665 -0.5826  0.7059 -0.4028
              Bcc     0.0080     4.250     1.516     1.418 -0.6690 -0.1352  0.7308
 
              Baa    -0.0038    -2.013    -0.718    -0.672  0.4896 -0.0852  0.8678
    28 H(1)   Bbb    -0.0036    -1.933    -0.690    -0.645 -0.0264  0.9933  0.1125
              Bcc     0.0074     3.946     1.408     1.316  0.8715  0.0780 -0.4841
 
              Baa    -0.0061    -3.278    -1.170    -1.093  0.5634  0.8228  0.0751
    29 H(1)   Bbb    -0.0052    -2.763    -0.986    -0.922  0.6216 -0.4820  0.6175
              Bcc     0.0113     6.041     2.155     2.015 -0.5443  0.3012  0.7830
 
              Baa    -0.0033    -1.758    -0.627    -0.586  0.6164  0.6806  0.3960
    30 H(1)   Bbb    -0.0030    -1.582    -0.564    -0.528 -0.3405  0.6838 -0.6453
              Bcc     0.0063     3.340     1.192     1.114  0.7100 -0.2629 -0.6533
 
              Baa    -0.0067    -3.573    -1.275    -1.192  0.1382  0.7047 -0.6959
    31 H(1)   Bbb    -0.0040    -2.143    -0.765    -0.715  0.3824  0.6102  0.6938
              Bcc     0.0107     5.716     2.039     1.906  0.9136 -0.3620 -0.1851
 
              Baa    -0.0055    -2.923    -1.043    -0.975  0.6266  0.7458  0.2262
    32 H(1)   Bbb    -0.0049    -2.620    -0.935    -0.874 -0.2209 -0.1084  0.9692
              Bcc     0.0104     5.543     1.978     1.849  0.7474 -0.6573  0.0968
 
              Baa    -0.0131    -6.994    -2.495    -2.333  0.3714  0.4498  0.8123
    33 H(1)   Bbb    -0.0111    -5.947    -2.122    -1.984  0.7374  0.3887 -0.5524
              Bcc     0.0243    12.941     4.618     4.317 -0.5642  0.8041 -0.1874
 
              Baa    -0.0053    -2.831    -1.010    -0.944  0.5368  0.2825  0.7950
    34 H(1)   Bbb    -0.0045    -2.426    -0.866    -0.809  0.6864  0.4018 -0.6062
              Bcc     0.0099     5.257     1.876     1.753 -0.4907  0.8711  0.0218
 
              Baa    -0.0066    -3.503    -1.250    -1.169  0.0689 -0.5274  0.8468
    35 H(1)   Bbb    -0.0058    -3.082    -1.100    -1.028  0.9635  0.2553  0.0806
              Bcc     0.0123     6.585     2.350     2.197 -0.2587  0.8103  0.5258
 
              Baa    -0.0207   -11.048    -3.942    -3.685  0.5363 -0.2534  0.8051
    36 H(1)   Bbb    -0.0179    -9.535    -3.402    -3.180  0.8241  0.3635 -0.4345
              Bcc     0.0386    20.583     7.344     6.866 -0.1826  0.8965  0.4037
 
              Baa    -0.0138    -7.364    -2.628    -2.457  0.4508  0.7798 -0.4343
    37 H(1)   Bbb    -0.0123    -6.578    -2.347    -2.194  0.8419 -0.2098  0.4973
              Bcc     0.0261    13.943     4.975     4.651 -0.2967  0.5898  0.7511
 
              Baa    -0.0127     0.920     0.328     0.307  0.7788 -0.5535  0.2952
    38 O(17)  Bbb    -0.0120     0.865     0.309     0.289 -0.0402  0.4255  0.9041
              Bcc     0.0247    -1.785    -0.637    -0.596  0.6260  0.7159 -0.3091
 
              Baa    -0.0043     0.313     0.112     0.104 -0.6170  0.6193 -0.4855
    39 O(17)  Bbb    -0.0033     0.242     0.086     0.081 -0.0604  0.5779  0.8139
              Bcc     0.0077    -0.555    -0.198    -0.185  0.7846  0.5315 -0.3191
 
              Baa    -0.0061    -0.816    -0.291    -0.272  0.8095 -0.4487  0.3787
    40 C(13)  Bbb    -0.0058    -0.783    -0.280    -0.261 -0.2462  0.3261  0.9127
              Bcc     0.0119     1.600     0.571     0.534  0.5330  0.8321 -0.1535
 
              Baa    -0.0066    -0.886    -0.316    -0.296  0.9517 -0.2394  0.1923
    41 C(13)  Bbb    -0.0058    -0.780    -0.279    -0.260 -0.1515  0.1787  0.9722
              Bcc     0.0124     1.666     0.595     0.556  0.2671  0.9543 -0.1338
 
              Baa    -0.0052    -2.794    -0.997    -0.932  0.6629 -0.5478  0.5104
    42 H(1)   Bbb    -0.0050    -2.644    -0.943    -0.882 -0.4116  0.3027  0.8596
              Bcc     0.0102     5.438     1.940     1.814  0.6254  0.7799  0.0248
 
              Baa    -0.0037    -1.979    -0.706    -0.660  0.8240 -0.4623  0.3277
    43 H(1)   Bbb    -0.0036    -1.946    -0.695    -0.649 -0.1424  0.3908  0.9094
              Bcc     0.0074     3.926     1.401     1.309  0.5485  0.7960 -0.2562
 
              Baa    -0.0037    -1.960    -0.699    -0.654  0.9729 -0.2313  0.0058
    44 H(1)   Bbb    -0.0035    -1.849    -0.660    -0.617  0.0023  0.0348  0.9994
              Bcc     0.0071     3.809     1.359     1.271  0.2314  0.9723 -0.0344
 
              Baa    -0.0061    -3.269    -1.167    -1.091  0.9373 -0.2139 -0.2752
    45 H(1)   Bbb    -0.0055    -2.960    -1.056    -0.987  0.3210  0.2220  0.9207
              Bcc     0.0117     6.229     2.223     2.078  0.1359  0.9513 -0.2767
 
              Baa    -0.0103    -5.518    -1.969    -1.841  0.9858 -0.1657  0.0265
    46 H(1)   Bbb    -0.0087    -4.651    -1.659    -1.551 -0.0290 -0.0124  0.9995
              Bcc     0.0191    10.169     3.628     3.392  0.1653  0.9861  0.0170
 

 ---------------------------------------------------------------------------------

 No NMR shielding tensors so no spin-rotation constants.
 Leave Link  601 at Sun Jun 20 13:49:46 2021, MaxMem=  2147483648 cpu:             108.1 elap:               6.9
 (Enter /SFS/product/gaussian/g16.a03/x86_64/avx/g16/l9999.exe)
 1\1\GINC-KTCHPCPX007\SP\UB3LYP\Jul-CC-pVDZ\C17H22Cl3Fe1O3(6)\KWANEU\20
 -Jun-2021\0\\#p ub3lyp jul-cc-pvdz pop=cm5 scrf=(pcm,solvent=water) gu
 ess=read geom=allcheck\\title\\0,6\C,0,-3.2136337674,0.0115569532,0.50
 72263288\C,0,-1.8696119197,0.3728302185,0.7289206582\C,0,-1.4517898132
 ,0.6458985347,2.0460904929\C,0,-2.3539571311,0.573371636,3.1076107842\
 C,0,-3.6875684293,0.2272315403,2.8729247879\C,0,-4.1120638473,-0.05876
 08616,1.5695756015\C,0,-0.849571572,0.4249238741,-0.365130687\C,0,-0.9
 633604935,-0.4989267173,-1.6135335813\C,0,-1.9191663679,0.0056964564,-
 2.699947087\C,0,-1.6577087059,1.5063349257,-2.8765468805\C,0,-1.623125
 9205,2.1367486206,-1.5102393885\C,0,-0.6022674914,2.8685393925,-0.9754
 622355\C,0,0.7273816139,3.0537872051,-1.6326828814\O,0,0.33740508,0.76
 11341545,-0.0132501998\Fe,0,2.1531647127,0.1644849643,0.3463293841\Cl,
 0,2.9783212893,-0.5929334829,-1.5614377226\C,0,-0.7723439773,3.5765863
 679,0.3298070129\Cl,0,2.047721664,-1.3297029748,1.9681836546\Cl,0,3.18
 71091452,1.9933230517,1.0545251125\H,0,-0.4081155257,0.8843997493,2.23
 59061552\H,0,-2.0091831459,0.7775066459,4.1218324061\H,0,-4.3933140049
 ,0.1684629711,3.7030445934\H,0,-5.1470561631,-0.3458906813,1.380863663
 3\H,0,-3.5646445678,-0.2332431123,-0.4911000745\H,0,0.059024279,-0.518
 4873163,-2.0121674759\C,0,-1.3005247835,-1.9378108305,-1.192467751\H,0
 ,-1.7441020638,-0.5512628992,-3.6302353969\H,0,-2.9611301758,-0.184150
 7082,-2.4171763325\H,0,-0.7144586922,1.6643477417,-3.4133540653\H,0,-2
 .452262998,1.9666300358,-3.4827217297\H,0,-2.585794172,2.1930213768,-1
 .0015934154\H,0,-1.783820161,3.4800226586,0.7389096402\H,0,-0.03992836
 89,3.1975167131,1.0592393085\H,0,-0.5441388905,4.6460130834,0.19601388
 22\H,0,0.7317240693,4.046515484,-2.1152989714\H,0,1.5354470988,3.05765
 41218,-0.8906222021\H,0,0.9528917395,2.3076205483,-2.3997245925\O,0,-0
 .2199053233,-2.5541103555,-0.7059924308\O,0,-2.3953155964,-2.446510721
 2,-1.3141803641\C,0,-0.3881045551,-3.9385938265,-0.2726795254\C,0,0.99
 06357377,-4.5287350032,-0.0636960844\H,0,-0.9818504241,-3.9256166411,0
 .6517915936\H,0,-0.9628896563,-4.4681134057,-1.0428857323\H,0,0.886519
 0129,-5.5685083458,0.2791156438\H,0,1.5636470054,-4.5275402987,-1.0009
 534324\H,0,1.5510952571,-3.9624118435,0.6904615363\\Version=ES64L-G16R
 evA.03\State=6-A\HF=-3531.4490182\S2=8.761535\S2-1=0.\S2A=8.750041\RMS
 D=2.335e-09\Dipole=-4.2022564,1.5436454,-1.0468807\Quadrupole=-14.4181
 341,9.881414,4.5367201,-7.991843,-6.537275,-4.9269183\PG=C01 [X(C17H22
 Cl3Fe1O3)]\\@


 IT CANNOT BE MY BEAUTY, FOR I HAVE NONE; AND IT CANNOT BE MY WIT,
 FOR HE HAS NOT ENOUGH TO KNOW THAT I HAVE ANY.
 -- CATHARINE SEDLEY, PUZZLED ABOUT WHY SHE WAS MISTRESS TO JAMES II
 Job cpu time:       0 days  6 hours 54 minutes 55.9 seconds.
 Elapsed time:       0 days  0 hours 26 minutes  2.5 seconds.
 File lengths (MBytes):  RWF=    664 Int=      0 D2E=      0 Chk=     57 Scr=      1
 Normal termination of Gaussian 16 at Sun Jun 20 13:49:46 2021.
