 Entering Gaussian System, Link 0=g16
 Input=prenyl-first_betaine_grid-CC_210_CO_200-b3lyp_d3bj-juldz-gas.gjf
 Output=prenyl-first_betaine_grid-CC_210_CO_200-b3lyp_d3bj-juldz-gas.out
 Initial command:
 /SFS/product/gaussian/g16.a03/x86_64/avx/g16/l1.exe "/scratch/kwaneu.2874280.bmbhpcps002/Gau-14462.inp" -scrdir="/scratch/kwaneu.2874280.bmbhpcps002/"
 Entering Link 1 = /SFS/product/gaussian/g16.a03/x86_64/avx/g16/l1.exe PID=     14463.
  
 Copyright (c) 1988,1990,1992,1993,1995,1998,2003,2009,2016,
            Gaussian, Inc.  All Rights Reserved.
  
 This is part of the Gaussian(R) 16 program.  It is based on
 the Gaussian(R) 09 system (copyright 2009, Gaussian, Inc.),
 the Gaussian(R) 03 system (copyright 2003, Gaussian, Inc.),
 the Gaussian(R) 98 system (copyright 1998, Gaussian, Inc.),
 the Gaussian(R) 94 system (copyright 1995, Gaussian, Inc.),
 the Gaussian 92(TM) system (copyright 1992, Gaussian, Inc.),
 the Gaussian 90(TM) system (copyright 1990, Gaussian, Inc.),
 the Gaussian 88(TM) system (copyright 1988, Gaussian, Inc.),
 the Gaussian 86(TM) system (copyright 1986, Carnegie Mellon
 University), and the Gaussian 82(TM) system (copyright 1983,
 Carnegie Mellon University). Gaussian is a federally registered
 trademark of Gaussian, Inc.
  
 This software contains proprietary and confidential information,
 including trade secrets, belonging to Gaussian, Inc.
  
 This software is provided under written license and may be
 used, copied, transmitted, or stored only in accord with that
 written license.
  
 The following legend is applicable only to US Government
 contracts under FAR:
  
                    RESTRICTED RIGHTS LEGEND
  
 Use, reproduction and disclosure by the US Government is
 subject to restrictions as set forth in subparagraphs (a)
 and (c) of the Commercial Computer Software - Restricted
 Rights clause in FAR 52.227-19.
  
 Gaussian, Inc.
 340 Quinnipiac St., Bldg. 40, Wallingford CT 06492
  
  
 ---------------------------------------------------------------
 Warning -- This program may not be used in any manner that
 competes with the business of Gaussian, Inc. or will provide
 assistance to any competitor of Gaussian, Inc.  The licensee
 of this program is prohibited from giving any competitor of
 Gaussian, Inc. access to this program.  By using this program,
 the user acknowledges that Gaussian, Inc. is engaged in the
 business of creating and licensing software in the field of
 computational chemistry and represents and warrants to the
 licensee that it is not a competitor of Gaussian, Inc. and that
 it will not use this program in any manner prohibited above.
 ---------------------------------------------------------------
  

 Cite this work as:
 Gaussian 16, Revision A.03,
 M. J. Frisch, G. W. Trucks, H. B. Schlegel, G. E. Scuseria, 
 M. A. Robb, J. R. Cheeseman, G. Scalmani, V. Barone, 
 G. A. Petersson, H. Nakatsuji, X. Li, M. Caricato, A. V. Marenich, 
 J. Bloino, B. G. Janesko, R. Gomperts, B. Mennucci, H. P. Hratchian, 
 J. V. Ortiz, A. F. Izmaylov, J. L. Sonnenberg, D. Williams-Young, 
 F. Ding, F. Lipparini, F. Egidi, J. Goings, B. Peng, A. Petrone, 
 T. Henderson, D. Ranasinghe, V. G. Zakrzewski, J. Gao, N. Rega, 
 G. Zheng, W. Liang, M. Hada, M. Ehara, K. Toyota, R. Fukuda, 
 J. Hasegawa, M. Ishida, T. Nakajima, Y. Honda, O. Kitao, H. Nakai, 
 T. Vreven, K. Throssell, J. A. Montgomery, Jr., J. E. Peralta, 
 F. Ogliaro, M. J. Bearpark, J. J. Heyd, E. N. Brothers, K. N. Kudin, 
 V. N. Staroverov, T. A. Keith, R. Kobayashi, J. Normand, 
 K. Raghavachari, A. P. Rendell, J. C. Burant, S. S. Iyengar, 
 J. Tomasi, M. Cossi, J. M. Millam, M. Klene, C. Adamo, R. Cammi, 
 J. W. Ochterski, R. L. Martin, K. Morokuma, O. Farkas, 
 J. B. Foresman, and D. J. Fox, Gaussian, Inc., Wallingford CT, 2016.
 
 ******************************************
 Gaussian 16:  ES64L-G16RevA.03 25-Dec-2016
                19-Jun-2021 
 ******************************************
 %chk=checkpoint.chk
 %nprocshared=16
 Will use up to   16 processors via shared memory.
 %mem=16GB
 -----------------------------------------------------------
 #p opt=modredundant freq=noraman ub3lyp jul-cc-pvdz pop=cm5
 -----------------------------------------------------------
 1/18=120,19=15,26=3,38=1/1,3;
 2/9=110,12=2,17=6,18=5,40=1/2;
 3/5=16,7=50,11=2,25=1,30=1,71=1,74=-5,116=2/1,2,3;
 4//1;
 5/5=2,38=5/2;
 6/7=2,8=2,9=2,10=2,28=1,79=1/1;
 7//1,2,3,16;
 1/18=20,19=15,26=3/3(2);
 2/9=110/2;
 99//99;
 2/9=110/2;
 3/5=16,7=50,11=2,25=1,30=1,71=1,74=-5,116=2/1,2,3;
 4/5=5,16=3,69=1/1;
 5/5=2,38=5/2;
 7//1,2,3,16;
 1/18=20,19=15,26=3/3(-5);
 2/9=110/2;
 6/7=2,8=2,9=2,10=2,19=2,28=1,79=1/1;
 99/9=1/99;
 Leave Link    1 at Sat Jun 19 21:34:55 2021, MaxMem=  2147483648 cpu:               1.6 elap:               0.1
 (Enter /SFS/product/gaussian/g16.a03/x86_64/avx/g16/l101.exe)
 -----
 title
 -----
 Symbolic Z-matrix:
 Charge =  0 Multiplicity = 6
 6                     3.1296   -0.54081   0.57994 
 6                     1.74029  -0.72872   0.75048 
 6                     1.24682  -0.95744   2.05142 
 6                     2.11096  -0.99522   3.143 
 6                     3.48192  -0.81622   2.95813 
 6                     3.98578  -0.58633   1.67341 
 6                     0.7939   -0.70306  -0.3859 
 6                     1.08261   0.12878  -1.65955 
 6                     1.91367  -0.6646   -2.6828 
 6                     1.30319  -2.07781  -2.78039 
 6                     0.95457  -2.5415   -1.38807 
 6                    -0.36996  -2.66312  -0.88669 
 6                    -1.57456  -2.51306  -1.76577 
 8                    -0.52628  -0.85307  -0.05045 
 26                   -1.97025   0.3148    0.4275 
 17                   -2.62367   1.30011  -1.44298 
 6                    -0.568    -3.44335   0.37496 
 17                   -1.3944    1.69268   2.04504 
 17                   -3.48945  -1.13067   1.15958 
 1                     0.18226  -1.07595   2.20152 
 1                     1.7081   -1.15636   4.13844 
 1                     4.15627  -0.84689   3.80943 
 1                     5.05096  -0.43509   1.52459 
 1                     3.54253  -0.33781  -0.39962 
 1                     0.09484   0.34045  -2.08223 
 6                     1.72456   1.48851  -1.34918 
 1                     1.91479  -0.14882  -3.64878 
 1                     2.95703  -0.71768  -2.3606 
 1                     0.41803  -2.05379  -3.42392 
 1                     2.01391  -2.76716  -3.25063 
 1                     1.72764  -3.05753  -0.8255 
 1                    -0.65384  -4.50071   0.08045 
 1                     0.28981  -3.36083   1.04728 
 1                    -1.4852   -3.15691   0.89337 
 1                    -1.65592  -3.44226  -2.35116 
 1                    -2.48653  -2.39833  -1.1776 
 1                    -1.49864  -1.68366  -2.46957 
 8                     0.83199   2.31398  -0.79582 
 8                     2.87939   1.77257  -1.591 
 6                     1.29419   3.65306  -0.45486 
 6                     0.07422   4.51078  -0.18613 
 1                     1.94291   3.56705   0.42268 
 1                     1.89541   4.02663  -1.28795 
 1                     0.39619   5.5254    0.07447 
 1                    -0.5652    4.56643  -1.07241 
 1                    -0.51464   4.10574   0.64084 
 
 The following ModRedundant input section has been read:
 B       7      11 F                                                           
 B      12      14 F                                                           
 
 ITRead=  0  0  0  0  0  0  0  0  0  0  0  0  0  0  0  0  0  0  0  0
 ITRead=  0  0  0  0  0  0  0  0  0  0  0  0  0  0  0  0  0  0  0  0
 ITRead=  0  0  0  0  0  0
 MicOpt= -1 -1 -1 -1 -1 -1 -1 -1 -1 -1 -1 -1 -1 -1 -1 -1 -1 -1 -1 -1
 MicOpt= -1 -1 -1 -1 -1 -1 -1 -1 -1 -1 -1 -1 -1 -1 -1 -1 -1 -1 -1 -1
 MicOpt= -1 -1 -1 -1 -1 -1
 NAtoms=     46 NQM=       46 NQMF=       0 NMMI=      0 NMMIF=      0
                NMic=       0 NMicF=      0.
                    Isotopes and Nuclear Properties:
 (Nuclear quadrupole moments (NQMom) in fm**2, nuclear magnetic moments (NMagM)
  in nuclear magnetons)

  Atom         1           2           3           4           5           6           7           8           9          10
 IAtWgt=          12          12          12          12          12          12          12          12          12          12
 AtmWgt=  12.0000000  12.0000000  12.0000000  12.0000000  12.0000000  12.0000000  12.0000000  12.0000000  12.0000000  12.0000000
 NucSpn=           0           0           0           0           0           0           0           0           0           0
 AtZEff=  -0.0000000  -0.0000000  -0.0000000  -0.0000000  -0.0000000  -0.0000000  -0.0000000  -0.0000000  -0.0000000  -0.0000000
 NQMom=    0.0000000   0.0000000   0.0000000   0.0000000   0.0000000   0.0000000   0.0000000   0.0000000   0.0000000   0.0000000
 NMagM=    0.0000000   0.0000000   0.0000000   0.0000000   0.0000000   0.0000000   0.0000000   0.0000000   0.0000000   0.0000000
 AtZNuc=   6.0000000   6.0000000   6.0000000   6.0000000   6.0000000   6.0000000   6.0000000   6.0000000   6.0000000   6.0000000

  Atom        11          12          13          14          15          16          17          18          19          20
 IAtWgt=          12          12          12          16          56          35          12          35          35           1
 AtmWgt=  12.0000000  12.0000000  12.0000000  15.9949146  55.9349393  34.9688527  12.0000000  34.9688527  34.9688527   1.0078250
 NucSpn=           0           0           0           0           0           3           0           3           3           1
 AtZEff=  -0.0000000  -0.0000000  -0.0000000  -0.0000000  -0.0000000  -0.0000000  -0.0000000  -0.0000000  -0.0000000  -0.0000000
 NQMom=    0.0000000   0.0000000   0.0000000   0.0000000   0.0000000  -8.1650000   0.0000000  -8.1650000  -8.1650000   0.0000000
 NMagM=    0.0000000   0.0000000   0.0000000   0.0000000   0.0000000   0.8218740   0.0000000   0.8218740   0.8218740   2.7928460
 AtZNuc=   6.0000000   6.0000000   6.0000000   8.0000000  26.0000000  17.0000000   6.0000000  17.0000000  17.0000000   1.0000000

  Atom        21          22          23          24          25          26          27          28          29          30
 IAtWgt=           1           1           1           1           1          12           1           1           1           1
 AtmWgt=   1.0078250   1.0078250   1.0078250   1.0078250   1.0078250  12.0000000   1.0078250   1.0078250   1.0078250   1.0078250
 NucSpn=           1           1           1           1           1           0           1           1           1           1
 AtZEff=  -0.0000000  -0.0000000  -0.0000000  -0.0000000  -0.0000000  -0.0000000  -0.0000000  -0.0000000  -0.0000000  -0.0000000
 NQMom=    0.0000000   0.0000000   0.0000000   0.0000000   0.0000000   0.0000000   0.0000000   0.0000000   0.0000000   0.0000000
 NMagM=    2.7928460   2.7928460   2.7928460   2.7928460   2.7928460   0.0000000   2.7928460   2.7928460   2.7928460   2.7928460
 AtZNuc=   1.0000000   1.0000000   1.0000000   1.0000000   1.0000000   6.0000000   1.0000000   1.0000000   1.0000000   1.0000000

  Atom        31          32          33          34          35          36          37          38          39          40
 IAtWgt=           1           1           1           1           1           1           1          16          16          12
 AtmWgt=   1.0078250   1.0078250   1.0078250   1.0078250   1.0078250   1.0078250   1.0078250  15.9949146  15.9949146  12.0000000
 NucSpn=           1           1           1           1           1           1           1           0           0           0
 AtZEff=  -0.0000000  -0.0000000  -0.0000000  -0.0000000  -0.0000000  -0.0000000  -0.0000000  -0.0000000  -0.0000000  -0.0000000
 NQMom=    0.0000000   0.0000000   0.0000000   0.0000000   0.0000000   0.0000000   0.0000000   0.0000000   0.0000000   0.0000000
 NMagM=    2.7928460   2.7928460   2.7928460   2.7928460   2.7928460   2.7928460   2.7928460   0.0000000   0.0000000   0.0000000
 AtZNuc=   1.0000000   1.0000000   1.0000000   1.0000000   1.0000000   1.0000000   1.0000000   8.0000000   8.0000000   6.0000000

  Atom        41          42          43          44          45          46
 IAtWgt=          12           1           1           1           1           1
 AtmWgt=  12.0000000   1.0078250   1.0078250   1.0078250   1.0078250   1.0078250
 NucSpn=           0           1           1           1           1           1
 AtZEff=  -0.0000000  -0.0000000  -0.0000000  -0.0000000  -0.0000000  -0.0000000
 NQMom=    0.0000000   0.0000000   0.0000000   0.0000000   0.0000000   0.0000000
 NMagM=    0.0000000   2.7928460   2.7928460   2.7928460   2.7928460   2.7928460
 AtZNuc=   6.0000000   1.0000000   1.0000000   1.0000000   1.0000000   1.0000000
 Leave Link  101 at Sat Jun 19 21:34:56 2021, MaxMem=  2147483648 cpu:               5.4 elap:               0.4
 (Enter /SFS/product/gaussian/g16.a03/x86_64/avx/g16/l103.exe)

 GradGradGradGradGradGradGradGradGradGradGradGradGradGradGradGradGradGrad
 Berny optimization.
 Initialization pass.
                           ----------------------------
                           !    Initial Parameters    !
                           ! (Angstroms and Degrees)  !
 --------------------------                            --------------------------
 ! Name  Definition              Value          Derivative Info.                !
 --------------------------------------------------------------------------------
 ! R1    R(1,2)                  1.4123         estimate D2E/DX2                !
 ! R2    R(1,6)                  1.3895         estimate D2E/DX2                !
 ! R3    R(1,24)                 1.0823         estimate D2E/DX2                !
 ! R4    R(2,3)                  1.4101         estimate D2E/DX2                !
 ! R5    R(2,7)                  1.4791         estimate D2E/DX2                !
 ! R6    R(3,4)                  1.3927         estimate D2E/DX2                !
 ! R7    R(3,20)                 1.0816         estimate D2E/DX2                !
 ! R8    R(4,5)                  1.3949         estimate D2E/DX2                !
 ! R9    R(4,21)                 1.0859         estimate D2E/DX2                !
 ! R10   R(5,6)                  1.399          estimate D2E/DX2                !
 ! R11   R(5,22)                 1.0865         estimate D2E/DX2                !
 ! R12   R(6,23)                 1.0861         estimate D2E/DX2                !
 ! R13   R(7,8)                  1.5484         estimate D2E/DX2                !
 ! R14   R(7,11)                 2.1            Frozen                          !
 ! R15   R(7,14)                 1.3704         estimate D2E/DX2                !
 ! R16   R(8,9)                  1.5386         estimate D2E/DX2                !
 ! R17   R(8,25)                 1.0951         estimate D2E/DX2                !
 ! R18   R(8,26)                 1.5353         estimate D2E/DX2                !
 ! R19   R(9,10)                 1.5425         estimate D2E/DX2                !
 ! R20   R(9,27)                 1.0951         estimate D2E/DX2                !
 ! R21   R(9,28)                 1.0933         estimate D2E/DX2                !
 ! R22   R(10,11)                1.5083         estimate D2E/DX2                !
 ! R23   R(10,29)                1.0946         estimate D2E/DX2                !
 ! R24   R(10,30)                1.0961         estimate D2E/DX2                !
 ! R25   R(11,12)                1.4215         estimate D2E/DX2                !
 ! R26   R(11,31)                1.0865         estimate D2E/DX2                !
 ! R27   R(12,13)                1.4988         estimate D2E/DX2                !
 ! R28   R(12,14)                2.0            Frozen                          !
 ! R29   R(12,17)                1.4966         estimate D2E/DX2                !
 ! R30   R(13,35)                1.1012         estimate D2E/DX2                !
 ! R31   R(13,36)                1.0912         estimate D2E/DX2                !
 ! R32   R(13,37)                1.0904         estimate D2E/DX2                !
 ! R33   R(14,15)                1.9177         estimate D2E/DX2                !
 ! R34   R(15,16)                2.2128         estimate D2E/DX2                !
 ! R35   R(15,18)                2.2015         estimate D2E/DX2                !
 ! R36   R(15,19)                2.2211         estimate D2E/DX2                !
 ! R37   R(17,32)                1.101          estimate D2E/DX2                !
 ! R38   R(17,33)                1.093          estimate D2E/DX2                !
 ! R39   R(17,34)                1.0918         estimate D2E/DX2                !
 ! R40   R(26,38)                1.3358         estimate D2E/DX2                !
 ! R41   R(26,39)                1.2136         estimate D2E/DX2                !
 ! R42   R(38,40)                1.4571         estimate D2E/DX2                !
 ! R43   R(40,41)                1.5153         estimate D2E/DX2                !
 ! R44   R(40,42)                1.0947         estimate D2E/DX2                !
 ! R45   R(40,43)                1.0932         estimate D2E/DX2                !
 ! R46   R(41,44)                1.0959         estimate D2E/DX2                !
 ! R47   R(41,45)                1.0943         estimate D2E/DX2                !
 ! R48   R(41,46)                1.093          estimate D2E/DX2                !
 ! A1    A(2,1,6)              120.4481         estimate D2E/DX2                !
 ! A2    A(2,1,24)             120.6366         estimate D2E/DX2                !
 ! A3    A(6,1,24)             118.9021         estimate D2E/DX2                !
 ! A4    A(1,2,3)              118.5064         estimate D2E/DX2                !
 ! A5    A(1,2,7)              122.3001         estimate D2E/DX2                !
 ! A6    A(3,2,7)              119.192          estimate D2E/DX2                !
 ! A7    A(2,3,4)              120.6887         estimate D2E/DX2                !
 ! A8    A(2,3,20)             119.3578         estimate D2E/DX2                !
 ! A9    A(4,3,20)             119.9302         estimate D2E/DX2                !
 ! A10   A(3,4,5)              120.1628         estimate D2E/DX2                !
 ! A11   A(3,4,21)             119.493          estimate D2E/DX2                !
 ! A12   A(5,4,21)             120.342          estimate D2E/DX2                !
 ! A13   A(4,5,6)              119.7865         estimate D2E/DX2                !
 ! A14   A(4,5,22)             120.1699         estimate D2E/DX2                !
 ! A15   A(6,5,22)             120.0417         estimate D2E/DX2                !
 ! A16   A(1,6,5)              120.405          estimate D2E/DX2                !
 ! A17   A(1,6,23)             119.4656         estimate D2E/DX2                !
 ! A18   A(5,6,23)             120.1281         estimate D2E/DX2                !
 ! A19   A(2,7,8)              121.4661         estimate D2E/DX2                !
 ! A20   A(2,7,14)             115.242          estimate D2E/DX2                !
 ! A21   A(8,7,14)             116.0909         estimate D2E/DX2                !
 ! A22   A(7,8,9)              111.7621         estimate D2E/DX2                !
 ! A23   A(7,8,25)             104.6642         estimate D2E/DX2                !
 ! A24   A(7,8,26)             112.7965         estimate D2E/DX2                !
 ! A25   A(9,8,25)             109.2811         estimate D2E/DX2                !
 ! A26   A(9,8,26)             111.425          estimate D2E/DX2                !
 ! A27   A(25,8,26)            106.4982         estimate D2E/DX2                !
 ! A28   A(8,9,10)             107.5016         estimate D2E/DX2                !
 ! A29   A(8,9,27)             110.1421         estimate D2E/DX2                !
 ! A30   A(8,9,28)             110.1534         estimate D2E/DX2                !
 ! A31   A(10,9,27)            112.0929         estimate D2E/DX2                !
 ! A32   A(10,9,28)            110.6017         estimate D2E/DX2                !
 ! A33   A(27,9,28)            106.372          estimate D2E/DX2                !
 ! A34   A(9,10,11)            108.3438         estimate D2E/DX2                !
 ! A35   A(9,10,29)            109.7023         estimate D2E/DX2                !
 ! A36   A(9,10,30)            110.2856         estimate D2E/DX2                !
 ! A37   A(11,10,29)           111.2551         estimate D2E/DX2                !
 ! A38   A(11,10,30)           110.6425         estimate D2E/DX2                !
 ! A39   A(29,10,30)           106.6135         estimate D2E/DX2                !
 ! A40   A(10,11,12)           124.5592         estimate D2E/DX2                !
 ! A41   A(10,11,31)           117.3563         estimate D2E/DX2                !
 ! A42   A(12,11,31)           116.0879         estimate D2E/DX2                !
 ! A43   A(11,12,13)           122.2396         estimate D2E/DX2                !
 ! A44   A(11,12,17)           117.7273         estimate D2E/DX2                !
 ! A45   A(13,12,17)           116.123          estimate D2E/DX2                !
 ! A46   A(12,13,35)           106.6601         estimate D2E/DX2                !
 ! A47   A(12,13,36)           111.4737         estimate D2E/DX2                !
 ! A48   A(12,13,37)           113.501          estimate D2E/DX2                !
 ! A49   A(35,13,36)           108.2693         estimate D2E/DX2                !
 ! A50   A(35,13,37)           107.6885         estimate D2E/DX2                !
 ! A51   A(36,13,37)           109.0326         estimate D2E/DX2                !
 ! A52   A(7,14,15)            136.0346         estimate D2E/DX2                !
 ! A53   A(14,15,16)           106.4304         estimate D2E/DX2                !
 ! A54   A(14,15,18)           111.5511         estimate D2E/DX2                !
 ! A55   A(14,15,19)           101.5866         estimate D2E/DX2                !
 ! A56   A(16,15,18)           114.811          estimate D2E/DX2                !
 ! A57   A(16,15,19)           111.4951         estimate D2E/DX2                !
 ! A58   A(18,15,19)           110.1241         estimate D2E/DX2                !
 ! A59   A(12,17,32)           106.5895         estimate D2E/DX2                !
 ! A60   A(12,17,33)           112.0452         estimate D2E/DX2                !
 ! A61   A(12,17,34)           112.0042         estimate D2E/DX2                !
 ! A62   A(32,17,33)           107.3518         estimate D2E/DX2                !
 ! A63   A(32,17,34)           108.2685         estimate D2E/DX2                !
 ! A64   A(33,17,34)           110.3303         estimate D2E/DX2                !
 ! A65   A(8,26,38)            110.5882         estimate D2E/DX2                !
 ! A66   A(8,26,39)            124.3938         estimate D2E/DX2                !
 ! A67   A(38,26,39)           125.0122         estimate D2E/DX2                !
 ! A68   A(26,38,40)           116.9304         estimate D2E/DX2                !
 ! A69   A(38,40,41)           107.837          estimate D2E/DX2                !
 ! A70   A(38,40,42)           107.6596         estimate D2E/DX2                !
 ! A71   A(38,40,43)           108.0703         estimate D2E/DX2                !
 ! A72   A(41,40,42)           112.2973         estimate D2E/DX2                !
 ! A73   A(41,40,43)           112.6124         estimate D2E/DX2                !
 ! A74   A(42,40,43)           108.1707         estimate D2E/DX2                !
 ! A75   A(40,41,44)           109.2498         estimate D2E/DX2                !
 ! A76   A(40,41,45)           110.8295         estimate D2E/DX2                !
 ! A77   A(40,41,46)           110.987          estimate D2E/DX2                !
 ! A78   A(44,41,45)           108.4926         estimate D2E/DX2                !
 ! A79   A(44,41,46)           108.7509         estimate D2E/DX2                !
 ! A80   A(45,41,46)           108.4701         estimate D2E/DX2                !
 ! D1    D(6,1,2,3)              0.2259         estimate D2E/DX2                !
 ! D2    D(6,1,2,7)           -179.3267         estimate D2E/DX2                !
 ! D3    D(24,1,2,3)          -178.4337         estimate D2E/DX2                !
 ! D4    D(24,1,2,7)             2.0137         estimate D2E/DX2                !
 ! D5    D(2,1,6,5)             -0.133          estimate D2E/DX2                !
 ! D6    D(2,1,6,23)          -179.7177         estimate D2E/DX2                !
 ! D7    D(24,1,6,5)           178.5496         estimate D2E/DX2                !
 ! D8    D(24,1,6,23)           -1.0351         estimate D2E/DX2                !
 ! D9    D(1,2,3,4)              0.0818         estimate D2E/DX2                !
 ! D10   D(1,2,3,20)           178.3235         estimate D2E/DX2                !
 ! D11   D(7,2,3,4)            179.6487         estimate D2E/DX2                !
 ! D12   D(7,2,3,20)            -2.1096         estimate D2E/DX2                !
 ! D13   D(1,2,7,8)            -28.5724         estimate D2E/DX2                !
 ! D14   D(1,2,7,14)          -177.7296         estimate D2E/DX2                !
 ! D15   D(3,2,7,8)            151.8779         estimate D2E/DX2                !
 ! D16   D(3,2,7,14)             2.7207         estimate D2E/DX2                !
 ! D17   D(2,3,4,5)             -0.4842         estimate D2E/DX2                !
 ! D18   D(2,3,4,21)           178.99           estimate D2E/DX2                !
 ! D19   D(20,3,4,5)          -178.7158         estimate D2E/DX2                !
 ! D20   D(20,3,4,21)            0.7584         estimate D2E/DX2                !
 ! D21   D(3,4,5,6)              0.577          estimate D2E/DX2                !
 ! D22   D(3,4,5,22)          -179.9243         estimate D2E/DX2                !
 ! D23   D(21,4,5,6)          -178.8927         estimate D2E/DX2                !
 ! D24   D(21,4,5,22)            0.606          estimate D2E/DX2                !
 ! D25   D(4,5,6,1)             -0.2699         estimate D2E/DX2                !
 ! D26   D(4,5,6,23)           179.3121         estimate D2E/DX2                !
 ! D27   D(22,5,6,1)          -179.7693         estimate D2E/DX2                !
 ! D28   D(22,5,6,23)           -0.1873         estimate D2E/DX2                !
 ! D29   D(2,7,8,9)             87.3145         estimate D2E/DX2                !
 ! D30   D(2,7,8,25)          -154.5229         estimate D2E/DX2                !
 ! D31   D(2,7,8,26)           -39.1569         estimate D2E/DX2                !
 ! D32   D(14,7,8,9)          -123.7732         estimate D2E/DX2                !
 ! D33   D(14,7,8,25)           -5.6105         estimate D2E/DX2                !
 ! D34   D(14,7,8,26)          109.7555         estimate D2E/DX2                !
 ! D35   D(2,7,14,15)           89.4469         estimate D2E/DX2                !
 ! D36   D(8,7,14,15)          -61.4152         estimate D2E/DX2                !
 ! D37   D(7,8,9,10)            45.0794         estimate D2E/DX2                !
 ! D38   D(7,8,9,27)           167.4716         estimate D2E/DX2                !
 ! D39   D(7,8,9,28)           -75.5004         estimate D2E/DX2                !
 ! D40   D(25,8,9,10)          -70.2885         estimate D2E/DX2                !
 ! D41   D(25,8,9,27)           52.1038         estimate D2E/DX2                !
 ! D42   D(25,8,9,28)          169.1318         estimate D2E/DX2                !
 ! D43   D(26,8,9,10)          172.2944         estimate D2E/DX2                !
 ! D44   D(26,8,9,27)          -65.3133         estimate D2E/DX2                !
 ! D45   D(26,8,9,28)           51.7146         estimate D2E/DX2                !
 ! D46   D(7,8,26,38)          -71.7959         estimate D2E/DX2                !
 ! D47   D(7,8,26,39)          109.0439         estimate D2E/DX2                !
 ! D48   D(9,8,26,38)          161.5529         estimate D2E/DX2                !
 ! D49   D(9,8,26,39)          -17.6073         estimate D2E/DX2                !
 ! D50   D(25,8,26,38)          42.4639         estimate D2E/DX2                !
 ! D51   D(25,8,26,39)        -136.6963         estimate D2E/DX2                !
 ! D52   D(8,9,10,11)          -41.7962         estimate D2E/DX2                !
 ! D53   D(8,9,10,29)           79.8325         estimate D2E/DX2                !
 ! D54   D(8,9,10,30)         -163.0294         estimate D2E/DX2                !
 ! D55   D(27,9,10,11)        -162.9724         estimate D2E/DX2                !
 ! D56   D(27,9,10,29)         -41.3437         estimate D2E/DX2                !
 ! D57   D(27,9,10,30)          75.7943         estimate D2E/DX2                !
 ! D58   D(28,9,10,11)          78.5002         estimate D2E/DX2                !
 ! D59   D(28,9,10,29)        -159.8711         estimate D2E/DX2                !
 ! D60   D(28,9,10,30)         -42.7331         estimate D2E/DX2                !
 ! D61   D(9,10,11,12)         108.3681         estimate D2E/DX2                !
 ! D62   D(9,10,11,31)         -88.379          estimate D2E/DX2                !
 ! D63   D(29,10,11,12)        -12.301          estimate D2E/DX2                !
 ! D64   D(29,10,11,31)        150.9519         estimate D2E/DX2                !
 ! D65   D(30,10,11,12)       -130.6192         estimate D2E/DX2                !
 ! D66   D(30,10,11,31)         32.6337         estimate D2E/DX2                !
 ! D67   D(10,11,12,13)          8.4317         estimate D2E/DX2                !
 ! D68   D(10,11,12,17)        165.2982         estimate D2E/DX2                !
 ! D69   D(31,11,12,13)       -155.0122         estimate D2E/DX2                !
 ! D70   D(31,11,12,17)          1.8543         estimate D2E/DX2                !
 ! D71   D(11,12,13,35)         75.7544         estimate D2E/DX2                !
 ! D72   D(11,12,13,36)       -166.2535         estimate D2E/DX2                !
 ! D73   D(11,12,13,37)        -42.668          estimate D2E/DX2                !
 ! D74   D(17,12,13,35)        -81.4573         estimate D2E/DX2                !
 ! D75   D(17,12,13,36)         36.5348         estimate D2E/DX2                !
 ! D76   D(17,12,13,37)        160.1203         estimate D2E/DX2                !
 ! D77   D(11,12,17,32)        -85.1062         estimate D2E/DX2                !
 ! D78   D(11,12,17,33)         32.0473         estimate D2E/DX2                !
 ! D79   D(11,12,17,34)        156.6533         estimate D2E/DX2                !
 ! D80   D(13,12,17,32)         73.1714         estimate D2E/DX2                !
 ! D81   D(13,12,17,33)       -169.6751         estimate D2E/DX2                !
 ! D82   D(13,12,17,34)        -45.0691         estimate D2E/DX2                !
 ! D83   D(7,14,15,16)          74.7834         estimate D2E/DX2                !
 ! D84   D(7,14,15,18)         -51.1497         estimate D2E/DX2                !
 ! D85   D(7,14,15,19)        -168.4454         estimate D2E/DX2                !
 ! D86   D(8,26,38,40)        -179.476          estimate D2E/DX2                !
 ! D87   D(39,26,38,40)         -0.3221         estimate D2E/DX2                !
 ! D88   D(26,38,40,41)        165.7224         estimate D2E/DX2                !
 ! D89   D(26,38,40,42)        -72.8967         estimate D2E/DX2                !
 ! D90   D(26,38,40,43)         43.7268         estimate D2E/DX2                !
 ! D91   D(38,40,41,44)        179.9294         estimate D2E/DX2                !
 ! D92   D(38,40,41,45)        -60.5774         estimate D2E/DX2                !
 ! D93   D(38,40,41,46)         60.0192         estimate D2E/DX2                !
 ! D94   D(42,40,41,44)         61.4797         estimate D2E/DX2                !
 ! D95   D(42,40,41,45)       -179.0272         estimate D2E/DX2                !
 ! D96   D(42,40,41,46)        -58.4305         estimate D2E/DX2                !
 ! D97   D(43,40,41,44)        -60.9266         estimate D2E/DX2                !
 ! D98   D(43,40,41,45)         58.5666         estimate D2E/DX2                !
 ! D99   D(43,40,41,46)        179.1632         estimate D2E/DX2                !
 --------------------------------------------------------------------------------
 Trust Radius=3.00D-01 FncErr=1.00D-07 GrdErr=1.00D-06 EigMax=2.50D+02 EigMin=1.00D-04
 Number of steps in this run=    237 maximum allowed number of steps=    276.
 GradGradGradGradGradGradGradGradGradGradGradGradGradGradGradGradGradGrad

 Leave Link  103 at Sat Jun 19 21:34:56 2021, MaxMem=  2147483648 cpu:               0.3 elap:               0.1
 (Enter /SFS/product/gaussian/g16.a03/x86_64/avx/g16/l202.exe)
                          Input orientation:                          
 ---------------------------------------------------------------------
 Center     Atomic      Atomic             Coordinates (Angstroms)
 Number     Number       Type             X           Y           Z
 ---------------------------------------------------------------------
      1          6           0        3.129599   -0.540811    0.579944
      2          6           0        1.740289   -0.728718    0.750481
      3          6           0        1.246820   -0.957438    2.051419
      4          6           0        2.110962   -0.995223    3.142997
      5          6           0        3.481915   -0.816215    2.958130
      6          6           0        3.985782   -0.586326    1.673413
      7          6           0        0.793901   -0.703063   -0.385902
      8          6           0        1.082612    0.128777   -1.659550
      9          6           0        1.913673   -0.664599   -2.682800
     10          6           0        1.303185   -2.077805   -2.780393
     11          6           0        0.954568   -2.541498   -1.388070
     12          6           0       -0.369963   -2.663115   -0.886688
     13          6           0       -1.574556   -2.513060   -1.765768
     14          8           0       -0.526275   -0.853068   -0.050448
     15         26           0       -1.970248    0.314795    0.427499
     16         17           0       -2.623666    1.300105   -1.442975
     17          6           0       -0.568003   -3.443347    0.374955
     18         17           0       -1.394396    1.692681    2.045042
     19         17           0       -3.489445   -1.130667    1.159582
     20          1           0        0.182262   -1.075952    2.201522
     21          1           0        1.708103   -1.156360    4.138437
     22          1           0        4.156271   -0.846893    3.809431
     23          1           0        5.050965   -0.435092    1.524585
     24          1           0        3.542531   -0.337812   -0.399621
     25          1           0        0.094844    0.340448   -2.082226
     26          6           0        1.724555    1.488511   -1.349176
     27          1           0        1.914786   -0.148823   -3.648780
     28          1           0        2.957034   -0.717682   -2.360603
     29          1           0        0.418027   -2.053790   -3.423919
     30          1           0        2.013914   -2.767155   -3.250635
     31          1           0        1.727637   -3.057526   -0.825503
     32          1           0       -0.653843   -4.500707    0.080452
     33          1           0        0.289811   -3.360828    1.047278
     34          1           0       -1.485203   -3.156914    0.893365
     35          1           0       -1.655921   -3.442255   -2.351162
     36          1           0       -2.486528   -2.398330   -1.177598
     37          1           0       -1.498635   -1.683657   -2.469569
     38          8           0        0.831986    2.313980   -0.795818
     39          8           0        2.879393    1.772574   -1.590996
     40          6           0        1.294190    3.653064   -0.454861
     41          6           0        0.074223    4.510784   -0.186130
     42          1           0        1.942907    3.567051    0.422682
     43          1           0        1.895405    4.026628   -1.287947
     44          1           0        0.396188    5.525398    0.074468
     45          1           0       -0.565202    4.566430   -1.072409
     46          1           0       -0.514642    4.105736    0.640838
 ---------------------------------------------------------------------
                    Distance matrix (angstroms):
                    1          2          3          4          5
     1  C    0.000000
     2  C    1.412294   0.000000
     3  C    2.425628   1.410058   0.000000
     4  C    2.795237   2.435684   1.392735   0.000000
     5  C    2.419864   2.813295   2.416137   1.394895   0.000000
     6  C    1.389531   2.431937   2.789718   2.416987   1.399010
     7  C    2.532720   1.479079   2.492063   3.777980   4.291943
     8  C    3.107062   2.641228   3.870157   5.038386   5.288916
     9  C    3.484150   3.438254   4.789914   5.838505   5.856830
    10  C    4.121893   3.805019   4.960323   6.075445   6.266508
    11  C    3.550576   2.911517   3.797992   4.925320   5.315406
    12  C    4.347657   3.297784   3.762419   5.017491   5.747228
    13  C    5.614375   4.528088   4.995101   6.323199   7.124773
    14  O    3.722944   2.407127   2.751836   4.144070   5.011835
    15  Fe   5.173368   3.867987   3.821678   5.074086   6.116319
    16  Cl   6.370340   5.288807   5.682249   6.979711   7.818354
    17  C    4.705209   3.583077   3.504833   4.564233   5.475075
    18  Cl   5.253716   4.167171   3.741550   4.551688   5.559379
    19  Cl   6.670506   5.261088   4.822612   5.942797   7.206491
    20  H    3.406272   2.157206   1.081601   2.147737   3.395236
    21  H    3.881034   3.414990   2.146624   1.085892   2.157599
    22  H    3.402547   3.899758   3.401137   2.156253   1.086467
    23  H    2.143635   3.412628   3.875812   3.402444   2.159218
    24  H    1.082252   2.173389   3.414941   3.877076   3.392202
    25  H    4.132010   3.445988   4.483144   5.757752   6.181853
    26  C    3.132699   3.053672   4.216034   5.147608   5.191624
    27  H    4.417186   4.440746   5.795887   6.847124   6.822944
    28  H    2.950912   3.340574   4.737959   5.575166   5.345477
    29  H    5.066818   4.574911   5.645194   6.863744   7.186762
    30  H    4.568883   4.498780   5.654669   6.635337   6.671578
    31  H    3.205407   2.811980   3.594195   4.488766   4.734643
    32  H    5.499518   4.517600   4.477944   5.414032   6.241875
    33  H    4.029304   3.019930   2.774968   3.647563   4.507321
    34  H    5.314003   4.039845   3.693607   4.760899   5.866378
    35  H    6.317512   5.340198   5.829489   7.096700   7.841048
    36  H    6.170917   4.936707   5.142043   6.463216   7.431665
    37  H    5.659167   4.665968   5.338937   6.708504   7.417429
    38  O    3.914279   3.531864   4.356721   5.301025   5.559889
    39  O    3.182347   3.610614   4.835850   5.537317   5.268720
    40  C    4.693414   4.566384   5.247896   5.934498   6.033996
    41  C    5.953218   5.577221   6.023542   6.748889   7.062270
    42  H    4.278726   4.313020   4.858840   5.314386   5.292453
    43  H    5.086625   5.176154   6.034314   6.700650   6.633198
    44  H    6.672776   6.432540   6.830745   7.407754   7.619270
    45  H    6.516574   6.056138   6.599609   7.474188   7.848393
    46  H    5.905472   5.335605   5.543304   6.258944   6.750401
                    6          7          8          9         10
     6  C    0.000000
     7  C    3.800330   0.000000
     8  C    4.477545   1.548383   0.000000
     9  C    4.824557   2.555603   1.538554   0.000000
    10  C    5.408995   2.807645   2.484743   1.542521   0.000000
    11  C    4.731135   2.099999   2.687092   2.473653   1.508346
    12  C    5.462571   2.333917   3.240671   3.526341   2.593864
    13  C    6.815983   3.284769   3.748483   4.052838   3.082256
    14  O    4.837510   1.370363   2.478255   3.594182   3.507065
    15  Fe   6.151310   3.055843   3.702746   5.071293   5.170152
    16  Cl   7.546873   4.099982   3.892995   5.097516   5.349684
    17  C    5.530418   3.153227   4.429877   4.819753   3.914367
    18  Cl   5.854767   4.054346   4.722856   6.233184   6.691661
    19  Cl   7.512613   4.573666   5.517011   6.646413   6.276127
    20  H    3.871098   2.684755   4.143655   5.198423   5.203812
    21  H    3.404277   4.637983   5.971555   6.842029   6.991654
    22  H    2.158596   5.378386   6.348942   6.871065   7.285673
    23  H    1.086111   4.673795   5.119032   5.253319   5.939461
    24  H    2.134409   2.772826   2.802914   2.823628   3.702745
    25  H    5.486632   2.110713   1.095055   2.163088   2.792037
    26  C    4.307452   2.568465   1.535350   2.539725   3.865817
    27  H    5.727667   3.494272   2.174077   1.095054   2.202073
    28  H    4.165197   2.928959   2.172884   1.093266   2.182057
    29  H    6.392583   3.345937   2.884141   2.171651   1.094626
    30  H    5.735026   3.735720   3.432972   2.180190   1.096114
    31  H    4.177395   2.570721   3.356221   3.034841   2.227467
    32  H    6.275829   4.090910   5.241661   5.379909   4.229048
    33  H    4.663701   3.061344   4.486958   4.880580   4.162228
    34  H    6.094922   3.585000   4.889460   5.527472   4.736674
    35  H    7.495488   4.167379   4.553039   4.535125   3.286681
    36  H    7.300851   3.776497   4.399694   4.963187   4.127180
    37  H    6.960407   3.249454   3.256361   3.567603   2.846429
    38  O    4.945231   3.045001   2.363040   3.688181   4.842349
    39  O    4.176706   3.454028   2.436225   2.839800   4.327183
    40  C    5.454049   4.385304   3.730501   4.897927   6.184742
    41  C    6.688701   5.267072   4.731786   6.033368   7.186797
    42  H    4.794602   4.495319   4.110660   5.248975   6.521758
    43  H    5.866743   4.939329   3.998995   4.894237   6.312070
    44  H    7.266015   6.258102   5.709774   6.944159   8.171999
    45  H    7.402830   5.485071   4.769988   6.008481   7.110129
    46  H    6.582968   5.088323   4.864073   6.300744   7.296951
                   11         12         13         14         15
    11  C    0.000000
    12  C    1.421463   0.000000
    13  C    2.557329   1.498780   0.000000
    14  O    2.613986   2.000000   2.607065   0.000000
    15  Fe   4.473170   3.627113   3.600522   1.917654   0.000000
    16  Cl   5.250208   4.593010   3.968004   3.312753   2.212795
    17  C    2.497961   1.496571   2.541904   2.625310   4.011569
    18  Cl   5.935669   5.349529   5.678291   3.409626   2.201504
    19  Cl   5.313212   4.033210   3.759718   3.212726   2.221096
    20  H    3.953410   3.515833   4.570676   2.371302   3.116831
    21  H    5.747060   5.642743   6.890292   4.757225   5.428225
    22  H    6.335346   6.770450   8.167088   6.068356   7.093745
    23  H    5.449860   6.337569   7.683873   5.810425   7.145863
    24  H    3.539889   4.577322   5.725613   4.116138   5.612553
    25  H    3.086518   3.265999   3.321077   2.436881   3.250228
    26  C    4.103092   4.672997   5.202908   3.497988   4.264476
    27  H    3.428953   4.378458   4.616369   4.404853   5.650175
    28  H    2.877846   4.126263   4.910450   4.181936   5.754792
    29  H    2.161115   2.725756   2.632638   3.703208   5.113460
    30  H    2.154596   3.358860   3.891852   4.511927   6.237037
    31  H    1.086463   2.135235   3.476352   3.246608   5.159158
    32  H    2.929512   2.095875   2.864783   3.652216   5.004241
    33  H    2.654077   2.159243   3.479627   2.856547   4.359151
    34  H    3.396493   2.157820   2.737429   2.667964   3.536250
    35  H    2.924647   2.098912   1.101231   3.643251   4.683501
    36  H    3.450498   2.152809   1.091238   2.738776   3.194359
    37  H    2.814913   2.176867   1.090417   2.736331   3.550948
    38  O    4.893001   5.120978   5.480197   3.525712   3.653185
    39  O    4.728356   5.543438   6.183435   4.567916   5.451464
    40  C    6.273661   6.545991   6.925985   4.876768   4.751753
    41  C    7.207936   7.221697   7.385669   5.399066   4.707730
    42  H    6.447481   6.773388   7.357283   5.085092   5.088219
    43  H    6.635923   7.074289   7.418656   5.586356   5.627054
    44  H    8.217397   8.280251   8.478627   6.446035   5.733675
    45  H    7.275437   7.234565   7.184617   5.515150   4.722317
    46  H    7.103574   6.940577   7.122052   5.006770   4.066391
                   16         17         18         19         20
    16  Cl   0.000000
    17  C    5.480051   0.000000
    18  Cl   3.719070   5.463598   0.000000
    19  Cl   3.664905   3.807749   3.625543   0.000000
    20  H    5.176991   3.082824   3.189932   3.817075   0.000000
    21  H    7.480014   4.957294   4.703705   5.990721   2.467042
    22  H    8.841092   6.391867   6.353929   8.096864   4.293086
    23  H    8.409357   6.476423   6.807420   8.576459   4.957138
    24  H    6.464777   5.209684   5.871331   7.246269   4.313027
    25  H    2.952944   4.560067   4.591374   5.051794   4.512685
    26  C    4.353311   5.705407   4.614137   6.351359   4.643554
    27  H    5.250001   5.762688   6.838233   7.300005   6.171486
    28  H    6.004808   5.228615   6.644885   7.356586   5.351701
    29  H    4.942130   4.163480   6.872442   6.093355   5.714660
    30  H    6.427860   4.502048   7.716924   7.239825   5.995092
    31  H    6.189027   2.619145   6.368013   5.905192   3.934171
    32  H    6.312721   1.100959   6.539579   4.534571   4.114238
    33  H    6.034402   1.093011   5.419413   4.389648   2.562129
    34  H    5.159419   1.091810   4.985296   2.862435   2.970205
    35  H    4.924562   2.935180   6.764804   4.585910   5.450251
    36  H    3.710479   2.680153   5.321140   2.841694   4.504395
    37  H    3.349989   3.471873   5.638460   4.176106   5.001381
    38  O    3.659001   6.039660   3.662414   5.862077   4.571414
    39  O    5.525287   6.554032   5.611811   7.520411   5.456355
    40  C    4.675723   7.383455   4.161864   6.955118   5.536817
    41  C    4.377982   7.999717   3.882869   6.807102   6.076526
    42  H    5.428933   7.446652   4.157271   7.219558   5.274620
    43  H    5.280148   8.039537   5.232486   7.847592   6.414638
    44  H    5.410661   9.025428   4.666805   7.783240   6.938872
    45  H    3.878592   8.139496   4.320243   6.781585   6.566110
    46  H    4.081890   7.553952   2.927215   6.044706   5.456308
                   21         22         23         24         25
    21  H    0.000000
    22  H    2.489486   0.000000
    23  H    4.304321   2.488087   0.000000
    24  H    4.962773   4.283919   2.446918   0.000000
    25  H    6.598461   7.253729   6.178486   3.895862   0.000000
    26  C    6.091758   6.162676   4.798307   2.746297   2.123998
    27  H    7.854845   7.818981   6.056507   3.638998   2.450646
    28  H    6.632480   6.286826   4.422566   2.081480   3.064191
    29  H    7.723918   8.231186   6.969361   4.674771   2.763506
    30  H    7.568789   7.623754   6.120860   4.045573   3.834737
    31  H    5.315592   5.680473   4.841961   3.297281   3.973864
    32  H    5.764606   7.098791   7.152593   5.930406   5.354857
    33  H    4.052961   5.375767   5.608595   4.670367   4.850902
    34  H    4.972918   6.757652   7.108322   5.907390   4.856154
    35  H    7.658777   8.858351   8.309438   6.361602   4.176882
    36  H    6.884595   8.450100   8.244386   6.418764   3.870754
    37  H    7.363895   8.491406   7.772351   5.613318   2.605036
    38  O    6.095713   6.500024   5.544497   3.812614   2.468411
    39  O    6.540411   6.136500   4.392762   2.512540   3.169543
    40  C    6.663353   6.828273   5.894454   4.580958   3.880744
    41  C    7.313547   7.831496   7.221925   5.965201   4.581191
    42  H    6.014364   5.987650   5.185688   4.299178   4.483399
    43  H    7.506270   7.405807   6.146124   4.748735   4.178615
    44  H    7.929871   8.288200   7.700469   6.670942   5.623686
    45  H    8.066670   8.684972   7.956188   6.432550   4.394805
    46  H    6.698018   7.509057   7.237134   6.106417   4.686571
                   26         27         28         29         30
    26  C    0.000000
    27  H    2.829351   0.000000
    28  H    2.721999   1.751936   0.000000
    29  H    4.308070   2.433053   3.059801   0.000000
    30  H    4.670114   2.650285   2.425278   1.756637   0.000000
    31  H    4.576100   4.057890   3.056603   3.078040   2.459174
    32  H    6.600859   6.280440   5.771348   4.406464   4.606329
    33  H    5.596210   5.916965   5.070893   4.660085   4.668729
    34  H    6.075484   6.421808   6.022593   4.845421   5.437690
    35  H    6.061687   5.027967   5.357494   2.716598   3.838294
    36  H    5.733253   5.526173   5.818629   3.687968   4.968651
    37  H    4.659065   3.923990   4.560479   2.172873   3.757929
    38  O    1.335771   3.921383   4.019373   5.114264   5.765502
    39  O    1.213598   2.976022   2.607623   4.904997   4.910458
    40  C    2.381240   5.004059   5.049784   6.492392   7.039429
    41  C    3.634612   6.090119   6.354195   7.327695   8.131543
    42  H    2.739979   5.512287   5.209037   6.979646   7.322600
    43  H    2.544598   4.796697   4.978567   6.611846   7.072600
    44  H    4.481939   6.954531   7.173810   8.347651   9.079636
    45  H    3.846189   5.917908   6.479771   7.093917   8.073288
    46  H    3.977942   6.511852   6.657818   7.438540   8.292996
                   31         32         33         34         35
    31  H    0.000000
    32  H    2.928305   0.000000
    33  H    2.380471   1.767642   0.000000
    34  H    3.645096   1.777011   1.793306   0.000000
    35  H    3.731503   2.835000   3.916873   3.261521   0.000000
    36  H    4.279918   3.059643   3.685720   2.422187   1.776778
    37  H    3.872893   3.892564   4.287150   3.671511   1.769584
    38  O    5.445746   7.029616   5.991194   6.176843   6.460884
    39  O    5.024180   7.391316   6.325997   7.037159   6.952796
    40  C    6.734781   8.400320   7.242919   7.477870   7.914712
    41  C    7.773152   9.044784   7.970574   7.898779   8.422089
    42  H    6.744578   8.482273   7.149710   7.562089   8.353212
    43  H    7.101214   9.004811   7.912377   8.233463   8.338259
    44  H    8.732084  10.080942   8.939949   8.921478   9.513865
    45  H    7.965098   9.140564   8.250184   8.022513   8.183148
    46  H    7.647895   8.625791   7.520766   7.331565   8.199192
                   36         37         38         39         40
    36  H    0.000000
    37  H    1.776479   0.000000
    38  O    5.776171   4.920807   0.000000
    39  O    6.808851   5.646641   2.262146   0.000000
    40  C    7.171858   6.351339   1.457062   2.709228   0.000000
    41  C    7.434804   6.786684   2.402472   4.164183   1.515328
    42  H    7.600432   6.912254   2.071008   2.855180   1.094675
    43  H    7.777763   6.747080   2.075142   2.478070   1.093180
    44  H    8.524270   7.876100   3.355670   4.798309   2.142949
    45  H    7.225679   6.472012   2.664989   4.465400   2.161699
    46  H    7.035476   6.645295   2.662288   4.684464   2.162716
                   41         42         43         44         45
    41  C    0.000000
    42  H    2.180198   0.000000
    43  H    2.182914   1.771925   0.000000
    44  H    1.095908   2.519666   2.519948   0.000000
    45  H    1.094281   3.086206   2.528325   1.777419   0.000000
    46  H    1.093024   2.525336   3.087847   1.779277   1.774827
                   46
    46  H    0.000000
 Stoichiometry    C17H22Cl3FeO3(6)
 Framework group  C1[X(C17H22Cl3FeO3)]
 Deg. of freedom   132
 Full point group                 C1      NOp   1
 Largest Abelian subgroup         C1      NOp   1
 Largest concise Abelian subgroup C1      NOp   1
                         Standard orientation:                         
 ---------------------------------------------------------------------
 Center     Atomic      Atomic             Coordinates (Angstroms)
 Number     Number       Type             X           Y           Z
 ---------------------------------------------------------------------
      1          6           0        3.129599   -0.540811    0.579944
      2          6           0        1.740289   -0.728718    0.750481
      3          6           0        1.246820   -0.957438    2.051419
      4          6           0        2.110962   -0.995223    3.142997
      5          6           0        3.481915   -0.816215    2.958130
      6          6           0        3.985782   -0.586326    1.673413
      7          6           0        0.793901   -0.703063   -0.385902
      8          6           0        1.082612    0.128777   -1.659550
      9          6           0        1.913673   -0.664599   -2.682800
     10          6           0        1.303185   -2.077805   -2.780393
     11          6           0        0.954568   -2.541498   -1.388070
     12          6           0       -0.369963   -2.663115   -0.886688
     13          6           0       -1.574556   -2.513060   -1.765768
     14          8           0       -0.526275   -0.853068   -0.050448
     15         26           0       -1.970248    0.314795    0.427499
     16         17           0       -2.623666    1.300105   -1.442975
     17          6           0       -0.568003   -3.443347    0.374955
     18         17           0       -1.394396    1.692681    2.045042
     19         17           0       -3.489445   -1.130667    1.159582
     20          1           0        0.182262   -1.075952    2.201522
     21          1           0        1.708103   -1.156360    4.138437
     22          1           0        4.156271   -0.846893    3.809431
     23          1           0        5.050965   -0.435092    1.524585
     24          1           0        3.542531   -0.337812   -0.399621
     25          1           0        0.094844    0.340448   -2.082226
     26          6           0        1.724555    1.488511   -1.349176
     27          1           0        1.914786   -0.148823   -3.648780
     28          1           0        2.957034   -0.717682   -2.360603
     29          1           0        0.418027   -2.053790   -3.423919
     30          1           0        2.013914   -2.767155   -3.250635
     31          1           0        1.727637   -3.057526   -0.825503
     32          1           0       -0.653843   -4.500707    0.080452
     33          1           0        0.289811   -3.360828    1.047278
     34          1           0       -1.485203   -3.156914    0.893365
     35          1           0       -1.655921   -3.442255   -2.351162
     36          1           0       -2.486528   -2.398330   -1.177598
     37          1           0       -1.498635   -1.683657   -2.469569
     38          8           0        0.831986    2.313980   -0.795818
     39          8           0        2.879393    1.772574   -1.590996
     40          6           0        1.294190    3.653064   -0.454861
     41          6           0        0.074223    4.510784   -0.186130
     42          1           0        1.942907    3.567051    0.422682
     43          1           0        1.895405    4.026628   -1.287947
     44          1           0        0.396188    5.525398    0.074468
     45          1           0       -0.565202    4.566430   -1.072409
     46          1           0       -0.514642    4.105736    0.640838
 ---------------------------------------------------------------------
 Rotational constants (GHZ):           0.2004390           0.1680371           0.1481593
 Leave Link  202 at Sat Jun 19 21:34:56 2021, MaxMem=  2147483648 cpu:               0.2 elap:               0.1
 (Enter /SFS/product/gaussian/g16.a03/x86_64/avx/g16/l301.exe)
 Standard basis: Jul-CC-pVDZ (5D, 7F)
 Ernie: Thresh=  0.10000D-02 Tol=  0.10000D-05 Strict=F.
 Ernie:  134 primitive shells out of 958 were deleted.
 There are   766 symmetry adapted cartesian basis functions of A   symmetry.
 There are   710 symmetry adapted basis functions of A   symmetry.
   710 basis functions,  1571 primitive gaussians,   766 cartesian basis functions
   115 alpha electrons      110 beta electrons
       nuclear repulsion energy      3379.8664889302 Hartrees.
 IExCor=  402 DFT=T Ex+Corr=B3LYP ExCW=0 ScaHFX=  0.200000
 ScaDFX=  0.800000  0.720000  1.000000  0.810000 ScalE2=  1.000000  1.000000
 IRadAn=      5 IRanWt=     -1 IRanGd=            0 ICorTp=0 IEmpDi=  4
 NAtoms=   46 NActive=   46 NUniq=   46 SFac= 1.00D+00 NAtFMM=   60 NAOKFM=F Big=F
 Integral buffers will be    131072 words long.
 Raffenetti 2 integral format.
 Two-electron integral symmetry is turned on.
 Leave Link  301 at Sat Jun 19 21:34:56 2021, MaxMem=  2147483648 cpu:               1.2 elap:               0.1
 (Enter /SFS/product/gaussian/g16.a03/x86_64/avx/g16/l302.exe)
 NPDir=0 NMtPBC=     1 NCelOv=     1 NCel=       1 NClECP=     1 NCelD=      1
         NCelK=      1 NCelE2=     1 NClLst=     1 CellRange=     0.0.
 One-electron integrals computed using PRISM.
 One-electron integral symmetry used in STVInt
 NBasis=   710 RedAO= T EigKep=  1.83D-06  NBF=   710
 NBsUse=   710 1.00D-06 EigRej= -1.00D+00 NBFU=   710
 Precomputing XC quadrature grid using
 IXCGrd= 4 IRadAn=           5 IRanWt=          -1 IRanGd=           0 AccXCQ= 0.00D+00.
 Generated NRdTot=       0 NPtTot=           0 NUsed=           0 NTot=          32
 NSgBfM=   764   764   764   764   764 MxSgAt=    46 MxSgA2=    46.
 Leave Link  302 at Sat Jun 19 21:34:57 2021, MaxMem=  2147483648 cpu:              16.0 elap:               1.1
 (Enter /SFS/product/gaussian/g16.a03/x86_64/avx/g16/l303.exe)
 DipDrv:  MaxL=1.
 Leave Link  303 at Sat Jun 19 21:34:57 2021, MaxMem=  2147483648 cpu:               2.5 elap:               0.2
 (Enter /SFS/product/gaussian/g16.a03/x86_64/avx/g16/l401.exe)
 ExpMin= 1.40D-02 ExpMax= 4.32D+06 ExpMxC= 4.91D+03 IAcc=3 IRadAn=         5 AccDes= 0.00D+00
 Harris functional with IExCor=  402 and IRadAn=       5 diagonalized for initial guess.
 HarFok:  IExCor=  402 AccDes= 0.00D+00 IRadAn=         5 IDoV= 1 UseB2=F ITyADJ=14
 ICtDFT=  3500011 ScaDFX=  1.000000  1.000000  1.000000  1.000000
 FoFCou: FMM=F IPFlag=           0 FMFlag=      100000 FMFlg1=           0
         NFxFlg=           0 DoJE=T BraDBF=F KetDBF=T FulRan=T
         wScrn=  0.000000 ICntrl=       500 IOpCl=  0 I1Cent=   200000004 NGrid=           0
         NMat0=    1 NMatS0=      1 NMatT0=    0 NMatD0=    1 NMtDS0=    0 NMtDT0=    0
 Petite list used in FoFCou.
 Harris En= -3531.06729566368    
 JPrj=0 DoOrth=F DoCkMO=F.
 Initial guess <Sx>= 0.0000 <Sy>= 0.0000 <Sz>= 2.5000 <S**2>= 8.7500 S= 2.5000
 Leave Link  401 at Sat Jun 19 21:35:04 2021, MaxMem=  2147483648 cpu:              97.2 elap:               6.1
 (Enter /SFS/product/gaussian/g16.a03/x86_64/avx/g16/l502.exe)
 Integral symmetry usage will be decided dynamically.
 UHF open shell SCF:
 Using DIIS extrapolation, IDIIS=  1040.
 NGot=  2147483648 LenX=  2146290678 LenY=  2145703156
 Requested convergence on RMS density matrix=1.00D-08 within 128 cycles.
 Requested convergence on MAX density matrix=1.00D-06.
 Requested convergence on             energy=1.00D-06.
 No special actions if energy rises.
 Fock matrices will be formed incrementally for  20 cycles.

 Cycle   1  Pass 1  IDiag  1:
 FoFJK:  IHMeth= 1 ICntrl=       0 DoSepK=F KAlg= 0 I1Cent=           0 FoldK=F
 IRaf= 930000000 NMat=       1 IRICut=       1 DoRegI=T DoRafI=F ISym2E= 0 IDoP0=0 IntGTp=1.
 FoFCou: FMM=F IPFlag=           0 FMFlag=      100000 FMFlg1=           0
         NFxFlg=           0 DoJE=F BraDBF=F KetDBF=F FulRan=T
         wScrn=  0.000000 ICntrl=         0 IOpCl=  1 I1Cent=           0 NGrid=           0
         NMat0=    1 NMatS0=      1 NMatT0=    0 NMatD0=    1 NMtDS0=    0 NMtDT0=    0
 Symmetry not used in FoFCou.
 E= -3530.29233631976    
 DIIS: error= 1.85D-02 at cycle   1 NSaved=   1.
 NSaved= 1 IEnMin= 1 EnMin= -3530.29233631976     IErMin= 1 ErrMin= 1.85D-02
 ErrMax= 1.85D-02  0.00D+00 EMaxC= 1.00D-01 BMatC= 4.62D+00 BMatP= 4.62D+00
 IDIUse=3 WtCom= 8.15D-01 WtEn= 1.85D-01
 Coeff-Com:  0.100D+01
 Coeff-En:   0.100D+01
 Coeff:      0.100D+01
 Gap=     0.119 Goal=   None    Shift=    0.000
 Gap=    -0.076 Goal=   None    Shift=    0.000
 GapD=   -0.076 DampG=0.250 DampE=0.250 DampFc=0.1250 IDamp=-1.
 Damping current iteration by 1.25D-01
 RMSDP=3.90D-02 MaxDP=1.02D+01              OVMax= 8.96D-01

 Cycle   2  Pass 1  IDiag  1:
 RMSU=  2.56D-03    CP:  9.50D-01
 E= -3530.61085410675     Delta-E=       -0.318517786994 Rises=F Damp=T
 DIIS: error= 1.15D-02 at cycle   2 NSaved=   2.
 NSaved= 2 IEnMin= 2 EnMin= -3530.61085410675     IErMin= 2 ErrMin= 1.15D-02
 ErrMax= 1.15D-02  0.00D+00 EMaxC= 1.00D-01 BMatC= 1.22D+00 BMatP= 4.62D+00
 IDIUse=3 WtCom= 8.85D-01 WtEn= 1.15D-01
 Coeff-Com: -0.387D+00 0.139D+01
 Coeff-En:   0.286D-01 0.971D+00
 Coeff:     -0.339D+00 0.134D+01
 Gap=     0.075 Goal=   None    Shift=    0.000
 Gap=     0.013 Goal=   None    Shift=    0.000
 RMSDP=3.00D-02 MaxDP=8.94D+00 DE=-3.19D-01 OVMax= 9.57D-01

 Cycle   3  Pass 1  IDiag  1:
 RMSU=  7.94D-03    CP:  6.00D-01  2.23D+00
 E= -3530.00833452066     Delta-E=        0.602519586095 Rises=F Damp=F
 DIIS: error= 2.88D-02 at cycle   3 NSaved=   3.
 NSaved= 3 IEnMin= 2 EnMin= -3530.61085410675     IErMin= 2 ErrMin= 1.15D-02
 ErrMax= 2.88D-02  0.00D+00 EMaxC= 1.00D-01 BMatC= 5.88D+00 BMatP= 1.22D+00
 IDIUse=2 WtCom= 0.00D+00 WtEn= 1.00D+00
 Coeff-En:   0.000D+00 0.726D+00 0.274D+00
 Coeff:      0.000D+00 0.726D+00 0.274D+00
 Gap=    -0.290 Goal=   None    Shift=    0.000
 Gap=     0.162 Goal=   None    Shift=    0.000
 RMSDP=7.67D-03 MaxDP=1.03D+00 DE= 6.03D-01 OVMax= 7.79D-01

 Cycle   4  Pass 1  IDiag  1:
 RMSU=  5.57D-03    CP:  6.16D-01  3.00D+00  5.10D-01
 E= -3521.52974516125     Delta-E=        8.478589359409 Rises=F Damp=F
 DIIS: error= 1.03D-01 at cycle   4 NSaved=   4.
 NSaved= 4 IEnMin= 2 EnMin= -3530.61085410675     IErMin= 2 ErrMin= 1.15D-02
 ErrMax= 1.03D-01  0.00D+00 EMaxC= 1.00D-01 BMatC= 4.77D+01 BMatP= 1.22D+00
 IDIUse=2 WtCom= 0.00D+00 WtEn= 1.00D+00
 EnCoef did   100 forward-backward iterations
 Coeff-En:   0.358D+00 0.144D-01 0.439D+00 0.189D+00
 Coeff:      0.358D+00 0.144D-01 0.439D+00 0.189D+00
 Gap=     0.094 Goal=   None    Shift=    0.000
 Gap=     0.033 Goal=   None    Shift=    0.000
 RMSDP=5.60D-03 MaxDP=5.95D-01 DE= 8.48D+00 OVMax= 9.47D-01

 Cycle   5  Pass 1  IDiag  1:
 RMSU=  3.62D-03    CP:  6.25D-01  2.29D+00  6.65D-01  5.49D-01
 E= -3530.57680626559     Delta-E=       -9.047061104347 Rises=F Damp=F
 DIIS: error= 4.25D-02 at cycle   5 NSaved=   5.
 NSaved= 5 IEnMin= 2 EnMin= -3530.61085410675     IErMin= 2 ErrMin= 1.15D-02
 ErrMax= 4.25D-02  0.00D+00 EMaxC= 1.00D-01 BMatC= 5.11D+00 BMatP= 1.22D+00
 IDIUse=2 WtCom= 0.00D+00 WtEn= 1.00D+00
 Coeff-En:   0.000D+00 0.000D+00 0.414D+00 0.000D+00 0.586D+00
 Coeff:      0.000D+00 0.000D+00 0.414D+00 0.000D+00 0.586D+00
 Gap=     0.106 Goal=   None    Shift=    0.000
 Gap=     0.094 Goal=   None    Shift=    0.000
 RMSDP=4.80D-03 MaxDP=9.18D-01 DE=-9.05D+00 OVMax= 3.84D-01

 Cycle   6  Pass 1  IDiag  1:
 RMSU=  2.84D-03    CP:  6.58D-01  1.67D+00  6.88D-01  2.89D-01  5.06D-01
 E= -3531.15466248386     Delta-E=       -0.577856218270 Rises=F Damp=F
 DIIS: error= 1.37D-02 at cycle   6 NSaved=   6.
 NSaved= 6 IEnMin= 6 EnMin= -3531.15466248386     IErMin= 2 ErrMin= 1.15D-02
 ErrMax= 1.37D-02  0.00D+00 EMaxC= 1.00D-01 BMatC= 1.17D+00 BMatP= 1.22D+00
 IDIUse=3 WtCom= 8.63D-01 WtEn= 1.37D-01
 Coeff-Com: -0.400D+00 0.721D+00 0.240D+00-0.275D-02 0.152D+00 0.290D+00
 Coeff-En:   0.000D+00 0.000D+00 0.000D+00 0.000D+00 0.290D+00 0.710D+00
 Coeff:     -0.345D+00 0.622D+00 0.207D+00-0.237D-02 0.171D+00 0.347D+00
 Gap=     0.111 Goal=   None    Shift=    0.000
 Gap=     0.152 Goal=   None    Shift=    0.000
 RMSDP=3.60D-03 MaxDP=6.57D-01 DE=-5.78D-01 OVMax= 1.78D-01

 Cycle   7  Pass 1  IDiag  1:
 RMSU=  1.50D-03    CP:  6.35D-01  2.02D+00  7.23D-01  3.94D-01  7.27D-01
                    CP:  1.85D-01
 E= -3531.33183785103     Delta-E=       -0.177175367166 Rises=F Damp=F
 DIIS: error= 5.08D-03 at cycle   7 NSaved=   7.
 NSaved= 7 IEnMin= 7 EnMin= -3531.33183785103     IErMin= 7 ErrMin= 5.08D-03
 ErrMax= 5.08D-03  0.00D+00 EMaxC= 1.00D-01 BMatC= 2.44D-01 BMatP= 1.17D+00
 IDIUse=3 WtCom= 9.49D-01 WtEn= 5.08D-02
 Coeff-Com: -0.172D+00 0.244D+00 0.516D-01 0.763D-02-0.499D-01 0.282D+00
 Coeff-Com:  0.636D+00
 Coeff-En:   0.000D+00 0.000D+00 0.000D+00 0.000D+00 0.000D+00 0.243D+00
 Coeff-En:   0.757D+00
 Coeff:     -0.163D+00 0.232D+00 0.489D-01 0.724D-02-0.474D-01 0.280D+00
 Coeff:      0.642D+00
 Gap=     0.122 Goal=   None    Shift=    0.000
 Gap=     0.131 Goal=   None    Shift=    0.000
 RMSDP=1.21D-03 MaxDP=1.71D-01 DE=-1.77D-01 OVMax= 8.42D-02

 Cycle   8  Pass 1  IDiag  1:
 RMSU=  8.14D-04    CP:  6.38D-01  1.96D+00  7.27D-01  3.77D-01  6.49D-01
                    CP:  4.37D-01  7.72D-01
 E= -3531.37895039273     Delta-E=       -0.047112541704 Rises=F Damp=F
 DIIS: error= 2.62D-03 at cycle   8 NSaved=   8.
 NSaved= 8 IEnMin= 8 EnMin= -3531.37895039273     IErMin= 8 ErrMin= 2.62D-03
 ErrMax= 2.62D-03  0.00D+00 EMaxC= 1.00D-01 BMatC= 5.16D-02 BMatP= 2.44D-01
 IDIUse=3 WtCom= 9.74D-01 WtEn= 2.62D-02
 Coeff-Com: -0.901D-01 0.121D+00 0.136D-01 0.755D-02-0.452D-01 0.135D+00
 Coeff-Com:  0.427D+00 0.431D+00
 Coeff-En:   0.000D+00 0.000D+00 0.000D+00 0.000D+00 0.000D+00 0.000D+00
 Coeff-En:   0.126D+00 0.874D+00
 Coeff:     -0.878D-01 0.118D+00 0.132D-01 0.736D-02-0.440D-01 0.131D+00
 Coeff:      0.419D+00 0.442D+00
 Gap=     0.115 Goal=   None    Shift=    0.000
 Gap=     0.123 Goal=   None    Shift=    0.000
 RMSDP=5.64D-04 MaxDP=6.46D-02 DE=-4.71D-02 OVMax= 3.30D-02

 Cycle   9  Pass 1  IDiag  1:
 RMSU=  3.99D-04    CP:  6.41D-01  1.94D+00  7.17D-01  3.81D-01  6.24D-01
                    CP:  4.82D-01  8.65D-01  7.35D-01
 E= -3531.38539668374     Delta-E=       -0.006446291007 Rises=F Damp=F
 DIIS: error= 1.71D-03 at cycle   9 NSaved=   9.
 NSaved= 9 IEnMin= 9 EnMin= -3531.38539668374     IErMin= 9 ErrMin= 1.71D-03
 ErrMax= 1.71D-03  0.00D+00 EMaxC= 1.00D-01 BMatC= 1.73D-02 BMatP= 5.16D-02
 IDIUse=3 WtCom= 9.83D-01 WtEn= 1.71D-02
 Coeff-Com: -0.198D-01 0.323D-01-0.750D-02 0.146D-02 0.113D-01-0.606D-01
 Coeff-Com: -0.578D-02 0.222D+00 0.826D+00
 Coeff-En:   0.000D+00 0.000D+00 0.000D+00 0.000D+00 0.000D+00 0.000D+00
 Coeff-En:   0.000D+00 0.101D+00 0.899D+00
 Coeff:     -0.195D-01 0.317D-01-0.737D-02 0.143D-02 0.111D-01-0.596D-01
 Coeff:     -0.568D-02 0.220D+00 0.827D+00
 Gap=     0.121 Goal=   None    Shift=    0.000
 Gap=     0.122 Goal=   None    Shift=    0.000
 RMSDP=3.48D-04 MaxDP=3.47D-02 DE=-6.45D-03 OVMax= 2.00D-02

 Cycle  10  Pass 1  IDiag  1:
 RMSU=  2.72D-04    CP:  6.41D-01  1.96D+00  7.07D-01  3.95D-01  6.49D-01
                    CP:  4.65D-01  9.21D-01  8.43D-01  1.08D+00
 E= -3531.38836453857     Delta-E=       -0.002967854832 Rises=F Damp=F
 DIIS: error= 5.91D-04 at cycle  10 NSaved=  10.
 NSaved=10 IEnMin=10 EnMin= -3531.38836453857     IErMin=10 ErrMin= 5.91D-04
 ErrMax= 5.91D-04  0.00D+00 EMaxC= 1.00D-01 BMatC= 2.83D-03 BMatP= 1.73D-02
 IDIUse=3 WtCom= 9.94D-01 WtEn= 5.91D-03
 Coeff-Com:  0.218D-03 0.254D-02-0.782D-02 0.235D-03 0.174D-01-0.576D-01
 Coeff-Com: -0.598D-01 0.579D-01 0.513D+00 0.534D+00
 Coeff-En:   0.000D+00 0.000D+00 0.000D+00 0.000D+00 0.000D+00 0.000D+00
 Coeff-En:   0.000D+00 0.000D+00 0.000D+00 0.100D+01
 Coeff:      0.217D-03 0.252D-02-0.777D-02 0.234D-03 0.173D-01-0.573D-01
 Coeff:     -0.595D-01 0.576D-01 0.510D+00 0.537D+00
 Gap=     0.121 Goal=   None    Shift=    0.000
 Gap=     0.120 Goal=   None    Shift=    0.000
 RMSDP=1.65D-04 MaxDP=2.33D-02 DE=-2.97D-03 OVMax= 9.15D-03

 Cycle  11  Pass 1  IDiag  1:
 RMSU=  1.25D-04    CP:  6.42D-01  1.97D+00  7.07D-01  3.97D-01  6.45D-01
                    CP:  4.68D-01  8.91D-01  9.14D-01  1.15D+00  7.76D-01
 E= -3531.38885271295     Delta-E=       -0.000488174382 Rises=F Damp=F
 DIIS: error= 1.91D-04 at cycle  11 NSaved=  11.
 NSaved=11 IEnMin=11 EnMin= -3531.38885271295     IErMin=11 ErrMin= 1.91D-04
 ErrMax= 1.91D-04  0.00D+00 EMaxC= 1.00D-01 BMatC= 4.63D-04 BMatP= 2.83D-03
 IDIUse=3 WtCom= 9.98D-01 WtEn= 1.91D-03
 Coeff-Com:  0.117D-02 0.604D-03-0.226D-02-0.119D-03 0.448D-02-0.173D-01
 Coeff-Com: -0.999D-02-0.143D-01 0.623D-01 0.299D+00 0.676D+00
 Coeff-En:   0.000D+00 0.000D+00 0.000D+00 0.000D+00 0.000D+00 0.000D+00
 Coeff-En:   0.000D+00 0.000D+00 0.000D+00 0.438D-01 0.956D+00
 Coeff:      0.117D-02 0.603D-03-0.226D-02-0.119D-03 0.448D-02-0.172D-01
 Coeff:     -0.997D-02-0.142D-01 0.621D-01 0.299D+00 0.677D+00
 Gap=     0.122 Goal=   None    Shift=    0.000
 Gap=     0.120 Goal=   None    Shift=    0.000
 RMSDP=7.40D-05 MaxDP=1.17D-02 DE=-4.88D-04 OVMax= 3.75D-03

 Cycle  12  Pass 1  IDiag  1:
 RMSU=  4.83D-05    CP:  6.42D-01  1.97D+00  7.06D-01  3.98D-01  6.48D-01
                    CP:  4.64D-01  9.05D-01  9.04D-01  1.20D+00  8.77D-01
                    CP:  7.50D-01
 E= -3531.38894966829     Delta-E=       -0.000096955337 Rises=F Damp=F
 DIIS: error= 1.10D-04 at cycle  12 NSaved=  12.
 NSaved=12 IEnMin=12 EnMin= -3531.38894966829     IErMin=12 ErrMin= 1.10D-04
 ErrMax= 1.10D-04  0.00D+00 EMaxC= 1.00D-01 BMatC= 7.97D-05 BMatP= 4.63D-04
 IDIUse=3 WtCom= 9.99D-01 WtEn= 1.10D-03
 Coeff-Com:  0.877D-03-0.261D-03-0.342D-03-0.869D-05-0.490D-03-0.911D-03
 Coeff-Com:  0.846D-02-0.134D-01-0.404D-01 0.111D+00 0.428D+00 0.508D+00
 Coeff-En:   0.000D+00 0.000D+00 0.000D+00 0.000D+00 0.000D+00 0.000D+00
 Coeff-En:   0.000D+00 0.000D+00 0.000D+00 0.000D+00 0.936D-01 0.906D+00
 Coeff:      0.877D-03-0.261D-03-0.342D-03-0.868D-05-0.490D-03-0.910D-03
 Coeff:      0.845D-02-0.134D-01-0.403D-01 0.111D+00 0.427D+00 0.508D+00
 Gap=     0.122 Goal=   None    Shift=    0.000
 Gap=     0.120 Goal=   None    Shift=    0.000
 RMSDP=3.25D-05 MaxDP=4.65D-03 DE=-9.70D-05 OVMax= 3.72D-03

 Cycle  13  Pass 1  IDiag  1:
 RMSU=  2.34D-05    CP:  6.42D-01  1.97D+00  7.06D-01  3.98D-01  6.49D-01
                    CP:  4.61D-01  9.06D-01  8.99D-01  1.18D+00  9.02D-01
                    CP:  8.49D-01  7.51D-01
 E= -3531.38897386848     Delta-E=       -0.000024200190 Rises=F Damp=F
 DIIS: error= 3.33D-05 at cycle  13 NSaved=  13.
 NSaved=13 IEnMin=13 EnMin= -3531.38897386848     IErMin=13 ErrMin= 3.33D-05
 ErrMax= 3.33D-05  0.00D+00 EMaxC= 1.00D-01 BMatC= 8.19D-06 BMatP= 7.97D-05
 IDIUse=1 WtCom= 1.00D+00 WtEn= 0.00D+00
 Coeff-Com:  0.737D-03-0.818D-03-0.105D-03 0.245D-05-0.519D-03 0.103D-02
 Coeff-Com:  0.457D-02-0.494D-02-0.251D-01 0.292D-01 0.137D+00 0.275D+00
 Coeff-Com:  0.584D+00
 Coeff:      0.737D-03-0.818D-03-0.105D-03 0.245D-05-0.519D-03 0.103D-02
 Coeff:      0.457D-02-0.494D-02-0.251D-01 0.292D-01 0.137D+00 0.275D+00
 Coeff:      0.584D+00
 Gap=     0.122 Goal=   None    Shift=    0.000
 Gap=     0.120 Goal=   None    Shift=    0.000
 RMSDP=1.43D-05 MaxDP=2.71D-03 DE=-2.42D-05 OVMax= 1.89D-03

 Cycle  14  Pass 1  IDiag  1:
 RMSU=  1.29D-05    CP:  6.42D-01  1.97D+00  7.06D-01  3.98D-01  6.49D-01
                    CP:  4.61D-01  9.07D-01  9.00D-01  1.19D+00  9.03D-01
                    CP:  8.58D-01  8.23D-01  1.03D+00
 E= -3531.38897779563     Delta-E=       -0.000003927154 Rises=F Damp=F
 DIIS: error= 2.15D-05 at cycle  14 NSaved=  14.
 NSaved=14 IEnMin=14 EnMin= -3531.38897779563     IErMin=14 ErrMin= 2.15D-05
 ErrMax= 2.15D-05  0.00D+00 EMaxC= 1.00D-01 BMatC= 1.97D-06 BMatP= 8.19D-06
 IDIUse=1 WtCom= 1.00D+00 WtEn= 0.00D+00
 Coeff-Com: -0.949D-04-0.105D-04 0.170D-03-0.106D-04-0.175D-03 0.807D-03
 Coeff-Com: -0.103D-02 0.373D-02 0.491D-02-0.311D-01-0.119D+00-0.733D-01
 Coeff-Com:  0.262D+00 0.953D+00
 Coeff:     -0.949D-04-0.105D-04 0.170D-03-0.106D-04-0.175D-03 0.807D-03
 Coeff:     -0.103D-02 0.373D-02 0.491D-02-0.311D-01-0.119D+00-0.733D-01
 Coeff:      0.262D+00 0.953D+00
 Gap=     0.122 Goal=   None    Shift=    0.000
 Gap=     0.120 Goal=   None    Shift=    0.000
 RMSDP=1.48D-05 MaxDP=3.26D-03 DE=-3.93D-06 OVMax= 1.96D-03

 Cycle  15  Pass 1  IDiag  1:
 RMSU=  7.27D-06    CP:  6.42D-01  1.97D+00  7.06D-01  3.99D-01  6.49D-01
                    CP:  4.60D-01  9.06D-01  9.01D-01  1.19D+00  9.12D-01
                    CP:  8.66D-01  9.39D-01  1.36D+00  1.41D+00
 E= -3531.38898022057     Delta-E=       -0.000002424940 Rises=F Damp=F
 DIIS: error= 1.20D-05 at cycle  15 NSaved=  15.
 NSaved=15 IEnMin=15 EnMin= -3531.38898022057     IErMin=15 ErrMin= 1.20D-05
 ErrMax= 1.20D-05  0.00D+00 EMaxC= 1.00D-01 BMatC= 6.95D-07 BMatP= 1.97D-06
 IDIUse=1 WtCom= 1.00D+00 WtEn= 0.00D+00
 Coeff-Com: -0.223D-03 0.204D-03 0.125D-03-0.608D-05 0.601D-04-0.213D-04
 Coeff-Com: -0.203D-02 0.294D-02 0.100D-01-0.189D-01-0.834D-01-0.116D+00
 Coeff-Com: -0.651D-01 0.347D+00 0.925D+00
 Coeff:     -0.223D-03 0.204D-03 0.125D-03-0.608D-05 0.601D-04-0.213D-04
 Coeff:     -0.203D-02 0.294D-02 0.100D-01-0.189D-01-0.834D-01-0.116D+00
 Coeff:     -0.651D-01 0.347D+00 0.925D+00
 Gap=     0.122 Goal=   None    Shift=    0.000
 Gap=     0.120 Goal=   None    Shift=    0.000
 RMSDP=9.46D-06 MaxDP=1.14D-03 DE=-2.42D-06 OVMax= 1.37D-03

 Cycle  16  Pass 1  IDiag  1:
 RMSU=  3.54D-06    CP:  6.42D-01  1.97D+00  7.06D-01  3.99D-01  6.49D-01
                    CP:  4.60D-01  9.06D-01  9.02D-01  1.19D+00  9.13D-01
                    CP:  8.72D-01  1.01D+00  1.58D+00  1.83D+00  1.38D+00
 E= -3531.38898113685     Delta-E=       -0.000000916280 Rises=F Damp=F
 DIIS: error= 6.15D-06 at cycle  16 NSaved=  16.
 NSaved=16 IEnMin=16 EnMin= -3531.38898113685     IErMin=16 ErrMin= 6.15D-06
 ErrMax= 6.15D-06  0.00D+00 EMaxC= 1.00D-01 BMatC= 2.29D-07 BMatP= 6.95D-07
 IDIUse=1 WtCom= 1.00D+00 WtEn= 0.00D+00
 Coeff-Com: -0.181D-03 0.285D-03 0.638D-04-0.138D-05 0.214D-04-0.280D-03
 Coeff-Com: -0.721D-03 0.548D-03 0.374D-02-0.128D-03-0.616D-02-0.359D-01
 Coeff-Com: -0.104D+00-0.891D-01 0.467D+00 0.765D+00
 Coeff:     -0.181D-03 0.285D-03 0.638D-04-0.138D-05 0.214D-04-0.280D-03
 Coeff:     -0.721D-03 0.548D-03 0.374D-02-0.128D-03-0.616D-02-0.359D-01
 Coeff:     -0.104D+00-0.891D-01 0.467D+00 0.765D+00
 Gap=     0.122 Goal=   None    Shift=    0.000
 Gap=     0.120 Goal=   None    Shift=    0.000
 RMSDP=4.94D-06 MaxDP=7.01D-04 DE=-9.16D-07 OVMax= 7.25D-04

 Cycle  17  Pass 1  IDiag  1:
 RMSU=  1.78D-06    CP:  6.42D-01  1.97D+00  7.06D-01  3.99D-01  6.49D-01
                    CP:  4.60D-01  9.06D-01  9.02D-01  1.19D+00  9.14D-01
                    CP:  8.75D-01  1.03D+00  1.69D+00  2.00D+00  1.70D+00
                    CP:  1.32D+00
 E= -3531.38898139618     Delta-E=       -0.000000259325 Rises=F Damp=F
 DIIS: error= 4.48D-06 at cycle  17 NSaved=  17.
 NSaved=17 IEnMin=17 EnMin= -3531.38898139618     IErMin=17 ErrMin= 4.48D-06
 ErrMax= 4.48D-06  0.00D+00 EMaxC= 1.00D-01 BMatC= 6.80D-08 BMatP= 2.29D-07
 IDIUse=1 WtCom= 1.00D+00 WtEn= 0.00D+00
 Coeff-Com:  0.246D-05 0.278D-04-0.164D-04 0.990D-06 0.162D-04-0.114D-03
 Coeff-Com:  0.166D-03-0.864D-03-0.185D-02 0.581D-02 0.247D-01 0.217D-01
 Coeff-Com: -0.365D-01-0.161D+00-0.898D-01 0.407D+00 0.831D+00
 Coeff:      0.246D-05 0.278D-04-0.164D-04 0.990D-06 0.162D-04-0.114D-03
 Coeff:      0.166D-03-0.864D-03-0.185D-02 0.581D-02 0.247D-01 0.217D-01
 Coeff:     -0.365D-01-0.161D+00-0.898D-01 0.407D+00 0.831D+00
 Gap=     0.122 Goal=   None    Shift=    0.000
 Gap=     0.120 Goal=   None    Shift=    0.000
 RMSDP=3.58D-06 MaxDP=6.07D-04 DE=-2.59D-07 OVMax= 4.95D-04

 Cycle  18  Pass 1  IDiag  1:
 RMSU=  1.13D-06    CP:  6.42D-01  1.97D+00  7.06D-01  3.99D-01  6.48D-01
                    CP:  4.60D-01  9.05D-01  9.02D-01  1.19D+00  9.16D-01
                    CP:  8.76D-01  1.05D+00  1.75D+00  2.13D+00  1.92D+00
                    CP:  1.70D+00  1.29D+00
 E= -3531.38898148957     Delta-E=       -0.000000093389 Rises=F Damp=F
 DIIS: error= 2.59D-06 at cycle  18 NSaved=  18.
 NSaved=18 IEnMin=18 EnMin= -3531.38898148957     IErMin=18 ErrMin= 2.59D-06
 ErrMax= 2.59D-06  0.00D+00 EMaxC= 1.00D-01 BMatC= 2.81D-08 BMatP= 6.80D-08
 IDIUse=1 WtCom= 1.00D+00 WtEn= 0.00D+00
 Coeff-Com:  0.361D-04-0.428D-04-0.254D-04 0.924D-06 0.749D-05 0.261D-04
 Coeff-Com:  0.304D-03-0.717D-03-0.232D-02 0.280D-02 0.154D-01 0.232D-01
 Coeff-Com:  0.114D-01-0.574D-01-0.196D+00-0.582D-02 0.465D+00 0.744D+00
 Coeff:      0.361D-04-0.428D-04-0.254D-04 0.924D-06 0.749D-05 0.261D-04
 Coeff:      0.304D-03-0.717D-03-0.232D-02 0.280D-02 0.154D-01 0.232D-01
 Coeff:      0.114D-01-0.574D-01-0.196D+00-0.582D-02 0.465D+00 0.744D+00
 Gap=     0.122 Goal=   None    Shift=    0.000
 Gap=     0.120 Goal=   None    Shift=    0.000
 RMSDP=1.81D-06 MaxDP=2.96D-04 DE=-9.34D-08 OVMax= 2.26D-04

 Cycle  19  Pass 1  IDiag  1:
 RMSU=  5.95D-07    CP:  6.42D-01  1.97D+00  7.06D-01  3.99D-01  6.48D-01
                    CP:  4.60D-01  9.05D-01  9.03D-01  1.19D+00  9.17D-01
                    CP:  8.77D-01  1.06D+00  1.78D+00  2.19D+00  2.02D+00
                    CP:  1.91D+00  1.64D+00  1.14D+00
 E= -3531.38898151311     Delta-E=       -0.000000023544 Rises=F Damp=F
 DIIS: error= 1.17D-06 at cycle  19 NSaved=  19.
 NSaved=19 IEnMin=19 EnMin= -3531.38898151311     IErMin=19 ErrMin= 1.17D-06
 ErrMax= 1.17D-06  0.00D+00 EMaxC= 1.00D-01 BMatC= 5.84D-09 BMatP= 2.81D-08
 IDIUse=1 WtCom= 1.00D+00 WtEn= 0.00D+00
 Coeff-Com:  0.246D-04-0.429D-04-0.128D-04 0.344D-06-0.101D-05 0.628D-04
 Coeff-Com:  0.168D-03-0.165D-03-0.859D-03-0.191D-03 0.189D-02 0.692D-02
 Coeff-Com:  0.189D-01 0.128D-01-0.861D-01-0.135D+00 0.153D-01 0.419D+00
 Coeff-Com:  0.747D+00
 Coeff:      0.246D-04-0.429D-04-0.128D-04 0.344D-06-0.101D-05 0.628D-04
 Coeff:      0.168D-03-0.165D-03-0.859D-03-0.191D-03 0.189D-02 0.692D-02
 Coeff:      0.189D-01 0.128D-01-0.861D-01-0.135D+00 0.153D-01 0.419D+00
 Coeff:      0.747D+00
 Gap=     0.122 Goal=   None    Shift=    0.000
 Gap=     0.120 Goal=   None    Shift=    0.000
 RMSDP=9.69D-07 MaxDP=1.53D-04 DE=-2.35D-08 OVMax= 1.16D-04

 Cycle  20  Pass 1  IDiag  1:
 RMSU=  2.72D-07    CP:  6.42D-01  1.97D+00  7.06D-01  3.99D-01  6.48D-01
                    CP:  4.60D-01  9.05D-01  9.03D-01  1.19D+00  9.17D-01
                    CP:  8.78D-01  1.06D+00  1.80D+00  2.21D+00  2.08D+00
                    CP:  2.03D+00  1.83D+00  1.36D+00  1.17D+00
 E= -3531.38898151827     Delta-E=       -0.000000005159 Rises=F Damp=F
 DIIS: error= 4.74D-07 at cycle  20 NSaved=  20.
 NSaved=20 IEnMin=20 EnMin= -3531.38898151827     IErMin=20 ErrMin= 4.74D-07
 ErrMax= 4.74D-07  0.00D+00 EMaxC= 1.00D-01 BMatC= 1.49D-09 BMatP= 5.84D-09
 IDIUse=1 WtCom= 1.00D+00 WtEn= 0.00D+00
 Coeff-Com: -0.129D-05-0.397D-05 0.335D-06 0.913D-07-0.364D-05 0.323D-04
 Coeff-Com:  0.334D-04 0.566D-04 0.219D-04-0.681D-03-0.205D-02-0.114D-02
 Coeff-Com:  0.881D-02 0.178D-01-0.901D-02-0.758D-01-0.698D-01 0.865D-01
 Coeff-Com:  0.394D+00 0.651D+00
 Coeff:     -0.129D-05-0.397D-05 0.335D-06 0.913D-07-0.364D-05 0.323D-04
 Coeff:      0.334D-04 0.566D-04 0.219D-04-0.681D-03-0.205D-02-0.114D-02
 Coeff:      0.881D-02 0.178D-01-0.901D-02-0.758D-01-0.698D-01 0.865D-01
 Coeff:      0.394D+00 0.651D+00
 Gap=     0.122 Goal=   None    Shift=    0.000
 Gap=     0.120 Goal=   None    Shift=    0.000
 RMSDP=3.21D-07 MaxDP=6.66D-05 DE=-5.16D-09 OVMax= 3.02D-05

 Cycle  21  Pass 1  IDiag  1:
 Restarting incremental Fock formation.
 E= -3531.38898151913     Delta-E=       -0.000000000862 Rises=F Damp=F
 DIIS: error= 3.45D-07 at cycle  21 NSaved=  20.
 NSaved=20 IEnMin=20 EnMin= -3531.38898151913     IErMin=20 ErrMin= 3.45D-07
 ErrMax= 3.45D-07  0.00D+00 EMaxC= 1.00D-01 BMatC= 5.04D-10 BMatP= 1.49D-09
 IDIUse=1 WtCom= 1.00D+00 WtEn= 0.00D+00
 Coeff-Com: -0.339D-05 0.377D-05 0.223D-05-0.206D-05-0.173D-05-0.208D-04
 Coeff-Com:  0.744D-04 0.251D-03-0.139D-03-0.117D-02-0.215D-02-0.747D-03
 Coeff-Com:  0.264D-02 0.187D-01 0.118D-04-0.318D-01-0.739D-01-0.256D-01
 Coeff-Com:  0.335D+00 0.779D+00
 Coeff:     -0.339D-05 0.377D-05 0.223D-05-0.206D-05-0.173D-05-0.208D-04
 Coeff:      0.744D-04 0.251D-03-0.139D-03-0.117D-02-0.215D-02-0.747D-03
 Coeff:      0.264D-02 0.187D-01 0.118D-04-0.318D-01-0.739D-01-0.256D-01
[...]
    17   Atom       -0.007185      0.018409     -0.011224
    18   Atom       -0.104358      0.025989      0.078368
    19   Atom        0.025501      0.078252     -0.103753
    20   Atom        0.008257     -0.010610      0.002354
    21   Atom        0.001606     -0.003348      0.001742
    22   Atom        0.002499     -0.001833     -0.000666
    23   Atom        0.003764     -0.001872     -0.001891
    24   Atom        0.007796     -0.003853     -0.003943
    25   Atom        0.004580     -0.018522      0.013942
    26   Atom        0.010517     -0.005702     -0.004815
    27   Atom        0.001211     -0.003690      0.002479
    28   Atom        0.005024     -0.003512     -0.001512
    29   Atom       -0.002325     -0.002782      0.005106
    30   Atom        0.000635     -0.001689      0.001054
    31   Atom        0.004055      0.001892     -0.005947
    32   Atom       -0.004330      0.010107     -0.005777
    33   Atom       -0.001795      0.009041     -0.007246
    34   Atom       -0.012316      0.027508     -0.015192
    35   Atom       -0.005994      0.005709      0.000285
    36   Atom       -0.017857      0.021766     -0.003909
    37   Atom       -0.013233     -0.001573      0.014806
    38   Atom        0.008831     -0.001285     -0.007546
    39   Atom        0.004030     -0.003735     -0.000295
    40   Atom        0.002431      0.002896     -0.005327
    41   Atom       -0.002872      0.008451     -0.005579
    42   Atom        0.003976      0.001129     -0.005105
    43   Atom        0.001571      0.001205     -0.002776
    44   Atom       -0.001856      0.005354     -0.003498
    45   Atom       -0.004492      0.008630     -0.004138
    46   Atom       -0.006873      0.015839     -0.008966
 --------------------------------------------------------
                        XY            XZ            YZ
 --------------------------------------------------------
     1   Atom       -0.002534      0.000805     -0.000336
     2   Atom       -0.006606      0.008562      0.002410
     3   Atom       -0.009243      0.013584     -0.004361
     4   Atom       -0.003568      0.006684     -0.001738
     5   Atom       -0.001044      0.003426     -0.001159
     6   Atom       -0.001562      0.002138     -0.000023
     7   Atom       -0.006052     -0.022280     -0.008903
     8   Atom        0.001602     -0.020841     -0.005463
     9   Atom        0.001831     -0.007766      0.000746
    10   Atom       -0.004141     -0.006778      0.005263
    11   Atom        0.001450     -0.000482      0.066426
    12   Atom       -0.012963     -0.006908      0.012673
    13   Atom       -0.003293     -0.001295      0.020810
    14   Atom       -0.269369      0.008789      0.132680
    15   Atom       -0.038128     -0.060126     -0.006293
    16   Atom       -0.035363      0.122645     -0.169001
    17   Atom       -0.010626     -0.000857     -0.000335
    18   Atom        0.073560      0.072076      0.181606
    19   Atom        0.216668     -0.080459     -0.110889
    20   Atom       -0.019073      0.026052     -0.014567
    21   Atom       -0.002430      0.005988     -0.002267
    22   Atom       -0.000831      0.002257     -0.000435
    23   Atom       -0.000559      0.000896     -0.000037
    24   Atom       -0.000939     -0.001488      0.000365
    25   Atom        0.000402     -0.027477     -0.003705
    26   Atom        0.006525     -0.009140     -0.003054
    27   Atom       -0.000303     -0.005954     -0.000148
    28   Atom       -0.000791     -0.004841      0.000517
    29   Atom       -0.003614     -0.005224      0.004816
    30   Atom       -0.002896     -0.004294      0.002467
    31   Atom       -0.010830      0.002323      0.001967
    32   Atom       -0.003988     -0.000900      0.000992
    33   Atom       -0.010988      0.001537     -0.003799
    34   Atom       -0.007236     -0.000669     -0.005834
    35   Atom       -0.000901     -0.000584      0.009904
    36   Atom        0.007505      0.003726      0.026420
    37   Atom       -0.004085     -0.003933      0.019450
    38   Atom        0.016517     -0.010646     -0.007629
    39   Atom        0.003564     -0.003411      0.000320
    40   Atom        0.008864     -0.002430     -0.002427
    41   Atom        0.007652     -0.001431     -0.002660
    42   Atom        0.007701     -0.000226     -0.000023
    43   Atom        0.005165     -0.002291     -0.002180
    44   Atom        0.004166     -0.000300     -0.000686
    45   Atom        0.005251     -0.001559     -0.005053
    46   Atom        0.010000      0.000004     -0.000241
 --------------------------------------------------------


 ---------------------------------------------------------------------------------
              Anisotropic Spin Dipole Couplings in Principal Axis System
 ---------------------------------------------------------------------------------

       Atom             a.u.   MegaHertz   Gauss  10(-4) cm-1        Axes

              Baa    -0.0087    -1.165    -0.416    -0.389  0.1161  0.9918  0.0538
     1 C(13)  Bbb    -0.0043    -0.571    -0.204    -0.191 -0.0548 -0.0477  0.9974
              Bcc     0.0129     1.736     0.620     0.579  0.9917 -0.1187  0.0488
 
              Baa    -0.0163    -2.185    -0.780    -0.729 -0.2770 -0.5667  0.7760
     2 C(13)  Bbb    -0.0081    -1.081    -0.386    -0.361  0.0088  0.8061  0.5918
              Bcc     0.0243     3.266     1.165     1.089  0.9608 -0.1708  0.2183
 
              Baa    -0.0149    -2.002    -0.714    -0.668  0.2997  0.9540  0.0069
     3 C(13)  Bbb    -0.0098    -1.312    -0.468    -0.438 -0.4489  0.1346  0.8834
              Bcc     0.0247     3.313     1.182     1.105  0.8418 -0.2679  0.4686
 
              Baa    -0.0060    -0.806    -0.288    -0.269 -0.5916 -0.2330  0.7718
     4 C(13)  Bbb    -0.0038    -0.512    -0.183    -0.171  0.1099  0.9251  0.3635
              Bcc     0.0098     1.318     0.470     0.440  0.7987 -0.2998  0.5217
 
              Baa    -0.0058    -0.785    -0.280    -0.262  0.0378  0.9841  0.1733
     5 C(13)  Bbb    -0.0015    -0.208    -0.074    -0.069 -0.4435 -0.1389  0.8855
              Bcc     0.0074     0.993     0.354     0.331  0.8955 -0.1103  0.4312
 
              Baa    -0.0039    -0.518    -0.185    -0.173 -0.2614 -0.1778  0.9487
     6 C(13)  Bbb    -0.0019    -0.260    -0.093    -0.087  0.1495  0.9636  0.2218
              Bcc     0.0058     0.778     0.277     0.259  0.9536 -0.1998  0.2253
 
              Baa    -0.0516    -6.927    -2.472    -2.311  0.1129  0.9256  0.3612
     7 C(13)  Bbb    -0.0229    -3.074    -1.097    -1.025  0.1942 -0.3770  0.9056
              Bcc     0.0745    10.001     3.569     3.336  0.9744 -0.0321 -0.2223
 
              Baa    -0.0173    -2.326    -0.830    -0.776  0.4735  0.5729  0.6691
     8 C(13)  Bbb    -0.0106    -1.421    -0.507    -0.474 -0.4441  0.8112 -0.3803
              Bcc     0.0279     3.747     1.337     1.250  0.7606  0.1171 -0.6385
 
              Baa    -0.0081    -1.090    -0.389    -0.364  0.6069 -0.2231  0.7628
     9 C(13)  Bbb    -0.0003    -0.041    -0.015    -0.014  0.0485  0.9684  0.2447
              Bcc     0.0084     1.131     0.404     0.377  0.7933  0.1116 -0.5985
 
              Baa    -0.0060    -0.802    -0.286    -0.268  0.8088  0.0704  0.5838
    10 C(13)  Bbb    -0.0054    -0.723    -0.258    -0.241  0.2109  0.8920 -0.3998
              Bcc     0.0114     1.526     0.544     0.509 -0.5489  0.4465  0.7066
 
              Baa    -0.0574    -7.698    -2.747    -2.568  0.0928 -0.4690  0.8783
    11 C(13)  Bbb    -0.0454    -6.090    -2.173    -2.031  0.9957  0.0374 -0.0853
              Bcc     0.1027    13.788     4.920     4.599  0.0071  0.8824  0.4704
 
              Baa    -0.0152    -2.044    -0.729    -0.682  0.2006 -0.3196  0.9261
    12 C(13)  Bbb    -0.0109    -1.465    -0.523    -0.489  0.8765  0.4807 -0.0240
              Bcc     0.0261     3.508     1.252     1.170 -0.4375  0.8166  0.3766
 
              Baa    -0.0159    -2.136    -0.762    -0.713 -0.2344 -0.6247  0.7448
    13 C(13)  Bbb    -0.0113    -1.516    -0.541    -0.506  0.9682 -0.0811  0.2367
              Bcc     0.0272     3.652     1.303     1.218 -0.0875  0.7766  0.6239
 
              Baa    -0.3588    25.964     9.265     8.661  0.8629  0.4710 -0.1832
    14 O(17)  Bbb    -0.0032     0.232     0.083     0.077  0.3105 -0.2080  0.9275
              Bcc     0.3620   -26.195    -9.347    -8.738 -0.3987  0.8573  0.3258
 
              Baa    -0.1125    -1.948    -0.695    -0.650  0.7594  0.1602  0.6306
    15 Fe(57) Bbb     0.0097     0.167     0.060     0.056 -0.5968 -0.2146  0.7731
              Bcc     0.1028     1.780     0.635     0.594 -0.2592  0.9635  0.0674
 
              Baa    -0.1724    -9.024    -3.220    -3.010 -0.5877  0.6113  0.5300
    16 Cl(35) Bbb    -0.1182    -6.185    -2.207    -2.063  0.7489  0.6589  0.0705
              Bcc     0.2906    15.209     5.427     5.073  0.3061 -0.4384  0.8451
 
              Baa    -0.0120    -1.617    -0.577    -0.539  0.6276  0.2272  0.7446
    17 C(13)  Bbb    -0.0102    -1.368    -0.488    -0.456  0.7006  0.2524 -0.6675
              Bcc     0.0222     2.985     1.065     0.996 -0.3396  0.9406 -0.0007
 
              Baa    -0.1403    -7.342    -2.620    -2.449  0.7153 -0.6351  0.2917
    18 Cl(35) Bbb    -0.1240    -6.489    -2.315    -2.164  0.6453  0.4399 -0.6246
              Bcc     0.2643    13.831     4.935     4.613  0.2684  0.6350  0.7244
 
              Baa    -0.1729    -9.049    -3.229    -3.018 -0.5776  0.6905  0.4354
    19 Cl(35) Bbb    -0.1417    -7.418    -2.647    -2.474  0.5265 -0.0925  0.8451
              Bcc     0.3146    16.467     5.876     5.493  0.6239  0.7174 -0.3101
 
              Baa    -0.0229   -12.202    -4.354    -4.070  0.6623  0.6935 -0.2835
    20 H(1)   Bbb    -0.0195   -10.393    -3.708    -3.467 -0.2978  0.5909  0.7497
              Bcc     0.0423    22.595     8.062     7.537  0.6875 -0.4121  0.5979
 
              Baa    -0.0044    -2.360    -0.842    -0.787  0.6623  0.6248 -0.4134
    21 H(1)   Bbb    -0.0042    -2.221    -0.792    -0.741 -0.3160  0.7333  0.6020
              Bcc     0.0086     4.581     1.635     1.528  0.6793 -0.2681  0.6831
 
              Baa    -0.0020    -1.061    -0.379    -0.354  0.1367  0.9864  0.0914
    22 H(1)   Bbb    -0.0018    -0.981    -0.350    -0.327 -0.4641 -0.0178  0.8856
              Bcc     0.0038     2.042     0.729     0.681  0.8752 -0.1635  0.4554
 
              Baa    -0.0020    -1.093    -0.390    -0.365 -0.1761 -0.3656  0.9140
    23 H(1)   Bbb    -0.0019    -1.017    -0.363    -0.339  0.0318  0.9259  0.3765
              Bcc     0.0040     2.111     0.753     0.704  0.9839 -0.0953  0.1514
 
              Baa    -0.0043    -2.291    -0.818    -0.764  0.0584 -0.5589  0.8272
    24 H(1)   Bbb    -0.0038    -2.010    -0.717    -0.670  0.1375  0.8252  0.5478
              Bcc     0.0081     4.301     1.535     1.435  0.9888 -0.0817 -0.1251
 
              Baa    -0.0207   -11.062    -3.947    -3.690  0.5105  0.7129  0.4807
    25 H(1)   Bbb    -0.0166    -8.842    -3.155    -2.949 -0.5715  0.6991 -0.4297
              Bcc     0.0373    19.904     7.102     6.639 -0.6424 -0.0554  0.7643
 
              Baa    -0.0091    -1.218    -0.435    -0.406  0.4206  0.0075  0.9072
    26 C(13)  Bbb    -0.0080    -1.071    -0.382    -0.357 -0.2768  0.9534  0.1204
              Bcc     0.0171     2.289     0.817     0.764  0.8640  0.3018 -0.4031
 
              Baa    -0.0043    -2.301    -0.821    -0.767  0.6615  0.4630  0.5900
    27 H(1)   Bbb    -0.0035    -1.879    -0.670    -0.627 -0.3395  0.8863 -0.3149
              Bcc     0.0078     4.180     1.491     1.394 -0.6687  0.0080  0.7435
 
              Baa    -0.0041    -2.187    -0.780    -0.729  0.4513 -0.1634  0.8773
    28 H(1)   Bbb    -0.0036    -1.908    -0.681    -0.637  0.1500  0.9830  0.1059
              Bcc     0.0077     4.095     1.461     1.366  0.8796 -0.0838 -0.4682
 
              Baa    -0.0062    -3.295    -1.176    -1.099  0.6950  0.7189  0.0150
    29 H(1)   Bbb    -0.0043    -2.294    -0.818    -0.765  0.5675 -0.5612  0.6026
              Bcc     0.0105     5.588     1.994     1.864 -0.4416  0.4103  0.7979
 
              Baa    -0.0038    -2.016    -0.719    -0.672  0.7202  0.6114  0.3279
    30 H(1)   Bbb    -0.0030    -1.627    -0.581    -0.543  0.2645 -0.6789  0.6849
              Bcc     0.0068     3.643     1.300     1.215 -0.6414  0.4066  0.6507
 
              Baa    -0.0101    -5.391    -1.924    -1.798  0.5501  0.5930 -0.5880
    31 H(1)   Bbb    -0.0038    -2.007    -0.716    -0.670  0.3810  0.4484  0.8086
              Bcc     0.0139     7.398     2.640     2.468  0.7432 -0.6688  0.0207
 
              Baa    -0.0063    -3.351    -1.196    -1.118  0.5560  0.0853  0.8268
    32 H(1)   Bbb    -0.0049    -2.635    -0.940    -0.879  0.7921  0.2468 -0.5582
              Bcc     0.0112     5.986     2.136     1.997 -0.2516  0.9653  0.0697
 
              Baa    -0.0091    -4.831    -1.724    -1.611  0.6790  0.5209  0.5173
    33 H(1)   Bbb    -0.0075    -4.004    -1.429    -1.336 -0.5215 -0.1536  0.8393
              Bcc     0.0166     8.836     3.153     2.947 -0.5167  0.8397 -0.1674
 
              Baa    -0.0168    -8.946    -3.192    -2.984  0.4369  0.1873  0.8798
    34 H(1)   Bbb    -0.0127    -6.790    -2.423    -2.265  0.8838  0.0925 -0.4585
              Bcc     0.0295    15.735     5.615     5.249 -0.1672  0.9779 -0.1252
 
              Baa    -0.0073    -3.883    -1.385    -1.295 -0.0670 -0.6080  0.7911
    35 H(1)   Bbb    -0.0060    -3.227    -1.151    -1.076  0.9962  0.0032  0.0869
              Bcc     0.0133     7.110     2.537     2.372 -0.0553  0.7939  0.6055
 
              Baa    -0.0208   -11.110    -3.964    -3.706  0.4168 -0.5311  0.7377
    36 H(1)   Bbb    -0.0187    -9.972    -3.558    -3.326  0.8975  0.1120 -0.4265
              Bcc     0.0395    21.083     7.523     7.033  0.1439  0.8399  0.5234
 
              Baa    -0.0155    -8.255    -2.946    -2.754  0.6238  0.6919 -0.3635
    37 H(1)   Bbb    -0.0130    -6.927    -2.472    -2.311  0.7704 -0.4659  0.4352
              Bcc     0.0285    15.183     5.418     5.064 -0.1318  0.5515  0.8237
 
              Baa    -0.0135     0.980     0.350     0.327 -0.6394  0.7459 -0.1863
    38 O(17)  Bbb    -0.0126     0.912     0.325     0.304  0.1673  0.3715  0.9132
              Bcc     0.0261    -1.891    -0.675    -0.631  0.7504  0.5528 -0.3624
 
              Baa    -0.0056     0.409     0.146     0.136 -0.4249  0.8462 -0.3214
    39 O(17)  Bbb    -0.0011     0.082     0.029     0.027  0.2530  0.4520  0.8554
              Bcc     0.0068    -0.491    -0.175    -0.164  0.8691  0.2822 -0.4061
 
              Baa    -0.0062    -0.834    -0.298    -0.278  0.7281 -0.6532  0.2079
    40 C(13)  Bbb    -0.0060    -0.804    -0.287    -0.268 -0.0205  0.2824  0.9591
              Bcc     0.0122     1.638     0.584     0.546  0.6851  0.7026 -0.1922
 
              Baa    -0.0067    -0.904    -0.323    -0.302  0.8950 -0.4301  0.1183
    41 C(13)  Bbb    -0.0061    -0.814    -0.290    -0.271 -0.0345  0.1977  0.9797
              Bcc     0.0128     1.718     0.613     0.573  0.4448  0.8809 -0.1621
 
              Baa    -0.0053    -2.853    -1.018    -0.951 -0.5691  0.6752 -0.4693
    42 H(1)   Bbb    -0.0050    -2.689    -0.960    -0.897 -0.2919  0.3677  0.8830
              Bcc     0.0104     5.542     1.977     1.848  0.7687  0.6395 -0.0122
 
              Baa    -0.0038    -2.023    -0.722    -0.675  0.7156 -0.5544  0.4250
    43 H(1)   Bbb    -0.0037    -1.993    -0.711    -0.665 -0.1193  0.5025  0.8563
              Bcc     0.0075     4.016     1.433     1.340  0.6883  0.6634 -0.2935
 
              Baa    -0.0038    -2.007    -0.716    -0.669  0.9064 -0.4185 -0.0568
    44 H(1)   Bbb    -0.0035    -1.893    -0.676    -0.632  0.0805  0.0391  0.9960
              Bcc     0.0073     3.900     1.392     1.301  0.4146  0.9074 -0.0691
 
              Baa    -0.0064    -3.416    -1.219    -1.139  0.8588 -0.4053 -0.3134
    45 H(1)   Bbb    -0.0058    -3.085    -1.101    -1.029  0.4065  0.1668  0.8983
              Bcc     0.0122     6.500     2.320     2.168  0.3118  0.8988 -0.3080
 
              Baa    -0.0107    -5.684    -2.028    -1.896  0.9341 -0.3531 -0.0527
    46 H(1)   Bbb    -0.0090    -4.782    -1.706    -1.595  0.0521 -0.0113  0.9986
              Bcc     0.0196    10.466     3.735     3.491  0.3532  0.9355 -0.0078
 

 ---------------------------------------------------------------------------------

 No NMR shielding tensors so no spin-rotation constants.
 Leave Link  601 at Sun Jun 20 07:46:40 2021, MaxMem=  2147483648 cpu:              75.7 elap:               4.9
 (Enter /SFS/product/gaussian/g16.a03/x86_64/avx/g16/l9999.exe)
 1\1\GINC-KTCHPCPX225\SP\UB3LYP\Jul-CC-pVDZ\C17H22Cl3Fe1O3(6)\KWANEU\20
 -Jun-2021\0\\#p ub3lyp jul-cc-pvdz pop=cm5 scrf=(pcm,solvent=water) gu
 ess=read geom=allcheck\\title\\0,6\C,0,3.1308449905,-0.6102476068,0.57
 41508317\C,0,1.7363868305,-0.7450079261,0.7569025057\C,0,1.2432619494,
 -0.9275285007,2.0656460961\C,0,2.114477995,-0.9675408787,3.1549536761\
 C,0,3.4916204607,-0.8390232577,2.9588854434\C,0,3.9953057225,-0.658886
 2143,1.6635255941\C,0,0.7874706556,-0.705890737,-0.3798780107\C,0,1.07
 75342754,0.1441627495,-1.6425293884\C,0,1.8980046394,-0.6355030602,-2.
 6835234398\C,0,1.2982913467,-2.0527165544,-2.7884985269\C,0,0.96450645
 25,-2.5333160723,-1.3992746861\C,0,-0.3561531369,-2.6700159942,-0.8875
 432891\C,0,-1.5637200183,-2.532188372,-1.7597918401\O,0,-0.5282467017,
 -0.8621502605,-0.0496840508\Fe,0,-2.0153649331,0.2942265169,0.43421826
 28\Cl,0,-2.6857375941,1.2576951996,-1.4497736016\C,0,-0.5394430587,-3.
 4533279641,0.3717552149\Cl,0,-1.4353174426,1.7043566376,2.0330639214\C
 l,0,-3.5072427902,-1.1759255464,1.1934980499\H,0,0.172027367,-1.005889
 2139,2.2285513545\H,0,1.7114427565,-1.0915450038,4.1606086084\H,0,4.17
 26842163,-0.8715427331,3.8107541446\H,0,5.0684736024,-0.5485559548,1.5
 037800578\H,0,3.5454391413,-0.4548267579,-0.4178522002\H,0,0.084339277
 6,0.3693650492,-2.0522217947\C,0,1.7252592316,1.4949590151,-1.31201244
 2\H,0,1.8792783901,-0.1092376933,-3.6475474064\H,0,2.9495947374,-0.679
 9397159,-2.376095484\H,0,0.4067481862,-2.0318406533,-3.4282311329\H,0,
 2.015818861,-2.73219402,-3.2699469562\H,0,1.7485550031,-3.0446897263,-
 0.8411817614\H,0,-0.6354059313,-4.5100174067,0.0650494684\H,0,0.330633
 2874,-3.3824243975,1.0339830628\H,0,-1.4537042556,-3.1677783751,0.9020
 874104\H,0,-1.6403051538,-3.4740688659,-2.3320666713\H,0,-2.4757681004
 ,-2.4143040322,-1.1666534443\H,0,-1.4921525187,-1.7114833736,-2.478189
 7313\O,0,0.8196387513,2.3432215001,-0.8164847068\O,0,2.8950703853,1.76
 03681836,-1.4982336097\C,0,1.2904902846,3.6777698895,-0.4581288387\C,0
 ,0.0751371526,4.5499947413,-0.2230098875\H,0,1.9140873024,3.5783955717
 ,0.4410725909\H,0,1.9231171925,4.0456719482,-1.2757657257\H,0,0.408555
 2816,5.5590498434,0.0602170799\H,0,-0.5336756851,4.6274462741,-1.13404
 23438\H,0,-0.5500464063,4.1451567489,0.5824305968\\Version=ES64L-G16Re
 vA.03\State=6-A\HF=-3531.4142359\S2=8.762614\S2-1=0.\S2A=8.75005\RMSD=
 2.923e-09\Dipole=3.5778647,-3.056049,-1.314335\Quadrupole=-17.8610986,
 14.1943685,3.6667301,-0.2809853,8.9986502,4.8620284\PG=C01 [X(C17H22Cl
 3Fe1O3)]\\@


 I DO NOT KNOW WHAT I MAY APPEAR TO THE WORLD; BUT TO MYSELF
 I SEEM TO HAVE BEEN ONLY LIKE A BOY PLAYING ON THE SEASHORE,
 AND DIVERTING MYSELF IN NOW AND THEN FINDING A SMOOTHER PEBBLE
 OR A PRETTIER SHELL THAN ORDINARY, WHILST THE GREAT OCEAN OF
 TRUTH LAY ALL UNDISCOVERED BEFORE ME.
                                          -- NEWTON (1642-1726)
 Job cpu time:       0 days  5 hours 41 minutes 39.8 seconds.
 Elapsed time:       0 days  0 hours 21 minutes 26.5 seconds.
 File lengths (MBytes):  RWF=    660 Int=      0 D2E=      0 Chk=     57 Scr=      1
 Normal termination of Gaussian 16 at Sun Jun 20 07:46:41 2021.
