 Entering Gaussian System, Link 0=g16
 Input=prenyl-first_betaine_grid-CC_270_CO_290-b3lyp_d3bj-juldz-gas.gjf
 Output=prenyl-first_betaine_grid-CC_270_CO_290-b3lyp_d3bj-juldz-gas.out
 Initial command:
 /SFS/product/gaussian/g16.a03/x86_64/avx/g16/l1.exe "/scratch/kwaneu.2874334.bmbhpcps002/Gau-31526.inp" -scrdir="/scratch/kwaneu.2874334.bmbhpcps002/"
 Entering Link 1 = /SFS/product/gaussian/g16.a03/x86_64/avx/g16/l1.exe PID=     31527.
  
 Copyright (c) 1988,1990,1992,1993,1995,1998,2003,2009,2016,
            Gaussian, Inc.  All Rights Reserved.
  
 This is part of the Gaussian(R) 16 program.  It is based on
 the Gaussian(R) 09 system (copyright 2009, Gaussian, Inc.),
 the Gaussian(R) 03 system (copyright 2003, Gaussian, Inc.),
 the Gaussian(R) 98 system (copyright 1998, Gaussian, Inc.),
 the Gaussian(R) 94 system (copyright 1995, Gaussian, Inc.),
 the Gaussian 92(TM) system (copyright 1992, Gaussian, Inc.),
 the Gaussian 90(TM) system (copyright 1990, Gaussian, Inc.),
 the Gaussian 88(TM) system (copyright 1988, Gaussian, Inc.),
 the Gaussian 86(TM) system (copyright 1986, Carnegie Mellon
 University), and the Gaussian 82(TM) system (copyright 1983,
 Carnegie Mellon University). Gaussian is a federally registered
 trademark of Gaussian, Inc.
  
 This software contains proprietary and confidential information,
 including trade secrets, belonging to Gaussian, Inc.
  
 This software is provided under written license and may be
 used, copied, transmitted, or stored only in accord with that
 written license.
  
 The following legend is applicable only to US Government
 contracts under FAR:
  
                    RESTRICTED RIGHTS LEGEND
  
 Use, reproduction and disclosure by the US Government is
 subject to restrictions as set forth in subparagraphs (a)
 and (c) of the Commercial Computer Software - Restricted
 Rights clause in FAR 52.227-19.
  
 Gaussian, Inc.
 340 Quinnipiac St., Bldg. 40, Wallingford CT 06492
  
  
 ---------------------------------------------------------------
 Warning -- This program may not be used in any manner that
 competes with the business of Gaussian, Inc. or will provide
 assistance to any competitor of Gaussian, Inc.  The licensee
 of this program is prohibited from giving any competitor of
 Gaussian, Inc. access to this program.  By using this program,
 the user acknowledges that Gaussian, Inc. is engaged in the
 business of creating and licensing software in the field of
 computational chemistry and represents and warrants to the
 licensee that it is not a competitor of Gaussian, Inc. and that
 it will not use this program in any manner prohibited above.
 ---------------------------------------------------------------
  

 Cite this work as:
 Gaussian 16, Revision A.03,
 M. J. Frisch, G. W. Trucks, H. B. Schlegel, G. E. Scuseria, 
 M. A. Robb, J. R. Cheeseman, G. Scalmani, V. Barone, 
 G. A. Petersson, H. Nakatsuji, X. Li, M. Caricato, A. V. Marenich, 
 J. Bloino, B. G. Janesko, R. Gomperts, B. Mennucci, H. P. Hratchian, 
 J. V. Ortiz, A. F. Izmaylov, J. L. Sonnenberg, D. Williams-Young, 
 F. Ding, F. Lipparini, F. Egidi, J. Goings, B. Peng, A. Petrone, 
 T. Henderson, D. Ranasinghe, V. G. Zakrzewski, J. Gao, N. Rega, 
 G. Zheng, W. Liang, M. Hada, M. Ehara, K. Toyota, R. Fukuda, 
 J. Hasegawa, M. Ishida, T. Nakajima, Y. Honda, O. Kitao, H. Nakai, 
 T. Vreven, K. Throssell, J. A. Montgomery, Jr., J. E. Peralta, 
 F. Ogliaro, M. J. Bearpark, J. J. Heyd, E. N. Brothers, K. N. Kudin, 
 V. N. Staroverov, T. A. Keith, R. Kobayashi, J. Normand, 
 K. Raghavachari, A. P. Rendell, J. C. Burant, S. S. Iyengar, 
 J. Tomasi, M. Cossi, J. M. Millam, M. Klene, C. Adamo, R. Cammi, 
 J. W. Ochterski, R. L. Martin, K. Morokuma, O. Farkas, 
 J. B. Foresman, and D. J. Fox, Gaussian, Inc., Wallingford CT, 2016.
 
 ******************************************
 Gaussian 16:  ES64L-G16RevA.03 25-Dec-2016
                20-Jun-2021 
 ******************************************
 %chk=checkpoint.chk
 %nprocshared=16
 Will use up to   16 processors via shared memory.
 %mem=16GB
 -----------------------------------------------------------
 #p opt=modredundant freq=noraman ub3lyp jul-cc-pvdz pop=cm5
 -----------------------------------------------------------
 1/18=120,19=15,26=3,38=1/1,3;
 2/9=110,12=2,17=6,18=5,40=1/2;
 3/5=16,7=50,11=2,25=1,30=1,71=1,74=-5,116=2/1,2,3;
 4//1;
 5/5=2,38=5/2;
 6/7=2,8=2,9=2,10=2,28=1,79=1/1;
 7//1,2,3,16;
 1/18=20,19=15,26=3/3(2);
 2/9=110/2;
 99//99;
 2/9=110/2;
 3/5=16,7=50,11=2,25=1,30=1,71=1,74=-5,116=2/1,2,3;
 4/5=5,16=3,69=1/1;
 5/5=2,38=5/2;
 7//1,2,3,16;
 1/18=20,19=15,26=3/3(-5);
 2/9=110/2;
 6/7=2,8=2,9=2,10=2,19=2,28=1,79=1/1;
 99/9=1/99;
 Leave Link    1 at Sun Jun 20 09:14:10 2021, MaxMem=  2147483648 cpu:               1.7 elap:               0.1
 (Enter /SFS/product/gaussian/g16.a03/x86_64/avx/g16/l101.exe)
 -----
 title
 -----
 Symbolic Z-matrix:
 Charge =  0 Multiplicity = 6
 6                     2.78087   0.56523   1.31417 
 6                     1.64937  -0.2061    0.97409 
 6                     1.19686  -1.19232   1.87679 
 6                     1.8683   -1.41429   3.07205 
 6                     2.99208  -0.64779   3.39599 
 6                     3.4388    0.34465   2.52052 
 6                     0.88673   0.01517  -0.26596 
 6                     1.32564   0.98256  -1.37024 
 6                     2.68601   0.69153  -2.02637 
 6                     2.65698  -0.68056  -2.71962 
 6                     2.26645  -1.76557  -1.75437 
 6                     1.16657  -2.54501  -1.78125 
 6                     0.06634  -2.45226  -2.80335 
 8                    -0.27581  -0.45892  -0.37492 
 26                   -2.10024  -0.48271   0.30672 
 17                   -3.37865   0.00192  -1.40231 
 6                     0.96798  -3.62379  -0.74833 
 17                   -2.16415   1.00342   1.91758 
 17                   -2.43677  -2.5236    1.05679 
 1                     0.32229  -1.78313   1.63195 
 1                     1.51081  -2.17861   3.7552 
 1                     3.51327  -0.81853   4.3339 
 1                     4.2991    0.95438   2.77965 
 1                     3.12103   1.36519   0.66881 
 1                     0.53904   0.89177  -2.12595 
 6                     1.24052   2.43144  -0.84462 
 1                     2.89829   1.48749  -2.74808 
 1                     3.48989   0.72471  -1.28697 
 1                     1.97338  -0.64178  -3.57394 
 1                     3.65545  -0.88783  -3.12839 
 1                     2.99765  -1.96068  -0.96928 
 1                     1.76825  -3.63483  -0.00228 
 1                     0.00616  -3.50483  -0.233 
 1                     0.93873  -4.61114  -1.2296 
 1                    -0.10806  -3.43484  -3.26067 
 1                    -0.87752  -2.1622   -2.32383 
 1                     0.26583  -1.73782  -3.60461 
 8                    -0.03419   2.7949   -0.68838 
 8                     2.20098   3.13772  -0.62275 
 6                    -0.2758    4.14181  -0.18282 
 6                    -1.77221   4.37651  -0.20382 
 1                     0.14087   4.20059   0.8271 
 1                     0.27023   4.84454  -0.81864 
 1                    -1.98578   5.38359   0.17107 
 1                    -2.16714   4.29629  -1.22134 
 1                    -2.28971   3.65145   0.43028 
 
 The following ModRedundant input section has been read:
 B       7      11 F                                                           
 B      12      14 F                                                           
 
 ITRead=  0  0  0  0  0  0  0  0  0  0  0  0  0  0  0  0  0  0  0  0
 ITRead=  0  0  0  0  0  0  0  0  0  0  0  0  0  0  0  0  0  0  0  0
 ITRead=  0  0  0  0  0  0
 MicOpt= -1 -1 -1 -1 -1 -1 -1 -1 -1 -1 -1 -1 -1 -1 -1 -1 -1 -1 -1 -1
 MicOpt= -1 -1 -1 -1 -1 -1 -1 -1 -1 -1 -1 -1 -1 -1 -1 -1 -1 -1 -1 -1
 MicOpt= -1 -1 -1 -1 -1 -1
 NAtoms=     46 NQM=       46 NQMF=       0 NMMI=      0 NMMIF=      0
                NMic=       0 NMicF=      0.
                    Isotopes and Nuclear Properties:
 (Nuclear quadrupole moments (NQMom) in fm**2, nuclear magnetic moments (NMagM)
  in nuclear magnetons)

  Atom         1           2           3           4           5           6           7           8           9          10
 IAtWgt=          12          12          12          12          12          12          12          12          12          12
 AtmWgt=  12.0000000  12.0000000  12.0000000  12.0000000  12.0000000  12.0000000  12.0000000  12.0000000  12.0000000  12.0000000
 NucSpn=           0           0           0           0           0           0           0           0           0           0
 AtZEff=  -0.0000000  -0.0000000  -0.0000000  -0.0000000  -0.0000000  -0.0000000  -0.0000000  -0.0000000  -0.0000000  -0.0000000
 NQMom=    0.0000000   0.0000000   0.0000000   0.0000000   0.0000000   0.0000000   0.0000000   0.0000000   0.0000000   0.0000000
 NMagM=    0.0000000   0.0000000   0.0000000   0.0000000   0.0000000   0.0000000   0.0000000   0.0000000   0.0000000   0.0000000
 AtZNuc=   6.0000000   6.0000000   6.0000000   6.0000000   6.0000000   6.0000000   6.0000000   6.0000000   6.0000000   6.0000000

  Atom        11          12          13          14          15          16          17          18          19          20
 IAtWgt=          12          12          12          16          56          35          12          35          35           1
 AtmWgt=  12.0000000  12.0000000  12.0000000  15.9949146  55.9349393  34.9688527  12.0000000  34.9688527  34.9688527   1.0078250
 NucSpn=           0           0           0           0           0           3           0           3           3           1
 AtZEff=  -0.0000000  -0.0000000  -0.0000000  -0.0000000  -0.0000000  -0.0000000  -0.0000000  -0.0000000  -0.0000000  -0.0000000
 NQMom=    0.0000000   0.0000000   0.0000000   0.0000000   0.0000000  -8.1650000   0.0000000  -8.1650000  -8.1650000   0.0000000
 NMagM=    0.0000000   0.0000000   0.0000000   0.0000000   0.0000000   0.8218740   0.0000000   0.8218740   0.8218740   2.7928460
 AtZNuc=   6.0000000   6.0000000   6.0000000   8.0000000  26.0000000  17.0000000   6.0000000  17.0000000  17.0000000   1.0000000

  Atom        21          22          23          24          25          26          27          28          29          30
 IAtWgt=           1           1           1           1           1          12           1           1           1           1
 AtmWgt=   1.0078250   1.0078250   1.0078250   1.0078250   1.0078250  12.0000000   1.0078250   1.0078250   1.0078250   1.0078250
 NucSpn=           1           1           1           1           1           0           1           1           1           1
 AtZEff=  -0.0000000  -0.0000000  -0.0000000  -0.0000000  -0.0000000  -0.0000000  -0.0000000  -0.0000000  -0.0000000  -0.0000000
 NQMom=    0.0000000   0.0000000   0.0000000   0.0000000   0.0000000   0.0000000   0.0000000   0.0000000   0.0000000   0.0000000
 NMagM=    2.7928460   2.7928460   2.7928460   2.7928460   2.7928460   0.0000000   2.7928460   2.7928460   2.7928460   2.7928460
 AtZNuc=   1.0000000   1.0000000   1.0000000   1.0000000   1.0000000   6.0000000   1.0000000   1.0000000   1.0000000   1.0000000

  Atom        31          32          33          34          35          36          37          38          39          40
 IAtWgt=           1           1           1           1           1           1           1          16          16          12
 AtmWgt=   1.0078250   1.0078250   1.0078250   1.0078250   1.0078250   1.0078250   1.0078250  15.9949146  15.9949146  12.0000000
 NucSpn=           1           1           1           1           1           1           1           0           0           0
 AtZEff=  -0.0000000  -0.0000000  -0.0000000  -0.0000000  -0.0000000  -0.0000000  -0.0000000  -0.0000000  -0.0000000  -0.0000000
 NQMom=    0.0000000   0.0000000   0.0000000   0.0000000   0.0000000   0.0000000   0.0000000   0.0000000   0.0000000   0.0000000
 NMagM=    2.7928460   2.7928460   2.7928460   2.7928460   2.7928460   2.7928460   2.7928460   0.0000000   0.0000000   0.0000000
 AtZNuc=   1.0000000   1.0000000   1.0000000   1.0000000   1.0000000   1.0000000   1.0000000   8.0000000   8.0000000   6.0000000

  Atom        41          42          43          44          45          46
 IAtWgt=          12           1           1           1           1           1
 AtmWgt=  12.0000000   1.0078250   1.0078250   1.0078250   1.0078250   1.0078250
 NucSpn=           0           1           1           1           1           1
 AtZEff=  -0.0000000  -0.0000000  -0.0000000  -0.0000000  -0.0000000  -0.0000000
 NQMom=    0.0000000   0.0000000   0.0000000   0.0000000   0.0000000   0.0000000
 NMagM=    0.0000000   2.7928460   2.7928460   2.7928460   2.7928460   2.7928460
 AtZNuc=   6.0000000   1.0000000   1.0000000   1.0000000   1.0000000   1.0000000
 Leave Link  101 at Sun Jun 20 09:14:11 2021, MaxMem=  2147483648 cpu:               5.3 elap:               0.4
 (Enter /SFS/product/gaussian/g16.a03/x86_64/avx/g16/l103.exe)

 GradGradGradGradGradGradGradGradGradGradGradGradGradGradGradGradGradGrad
 Berny optimization.
 Initialization pass.
                           ----------------------------
                           !    Initial Parameters    !
                           ! (Angstroms and Degrees)  !
 --------------------------                            --------------------------
 ! Name  Definition              Value          Derivative Info.                !
 --------------------------------------------------------------------------------
 ! R1    R(1,2)                  1.411          estimate D2E/DX2                !
 ! R2    R(1,6)                  1.3917         estimate D2E/DX2                !
 ! R3    R(1,24)                 1.0827         estimate D2E/DX2                !
 ! R4    R(2,3)                  1.4115         estimate D2E/DX2                !
 ! R5    R(2,7)                  1.4725         estimate D2E/DX2                !
 ! R6    R(3,4)                  1.3888         estimate D2E/DX2                !
 ! R7    R(3,20)                 1.0834         estimate D2E/DX2                !
 ! R8    R(4,5)                  1.3983         estimate D2E/DX2                !
 ! R9    R(4,21)                 1.0857         estimate D2E/DX2                !
 ! R10   R(5,6)                  1.3968         estimate D2E/DX2                !
 ! R11   R(5,22)                 1.0865         estimate D2E/DX2                !
 ! R12   R(6,23)                 1.0858         estimate D2E/DX2                !
 ! R13   R(7,8)                  1.5323         estimate D2E/DX2                !
 ! R14   R(7,11)                 2.7            Frozen                          !
 ! R15   R(7,14)                 1.2602         estimate D2E/DX2                !
 ! R16   R(8,9)                  1.5381         estimate D2E/DX2                !
 ! R17   R(8,25)                 1.0946         estimate D2E/DX2                !
 ! R18   R(8,26)                 1.5436         estimate D2E/DX2                !
 ! R19   R(9,10)                 1.5376         estimate D2E/DX2                !
 ! R20   R(9,27)                 1.0952         estimate D2E/DX2                !
 ! R21   R(9,28)                 1.0927         estimate D2E/DX2                !
 ! R22   R(10,11)                1.5038         estimate D2E/DX2                !
 ! R23   R(10,29)                1.0948         estimate D2E/DX2                !
 ! R24   R(10,30)                1.0986         estimate D2E/DX2                !
 ! R25   R(11,12)                1.3483         estimate D2E/DX2                !
 ! R26   R(11,31)                1.0905         estimate D2E/DX2                !
 ! R27   R(12,13)                1.5046         estimate D2E/DX2                !
 ! R28   R(12,14)                2.9            Frozen                          !
 ! R29   R(12,17)                1.5067         estimate D2E/DX2                !
 ! R30   R(13,35)                1.0977         estimate D2E/DX2                !
 ! R31   R(13,36)                1.0977         estimate D2E/DX2                !
 ! R32   R(13,37)                1.0919         estimate D2E/DX2                !
 ! R33   R(14,15)                1.9478         estimate D2E/DX2                !
 ! R34   R(15,16)                2.1886         estimate D2E/DX2                !
 ! R35   R(15,18)                2.1926         estimate D2E/DX2                !
 ! R36   R(15,19)                2.2003         estimate D2E/DX2                !
 ! R37   R(17,32)                1.0941         estimate D2E/DX2                !
 ! R38   R(17,33)                1.0976         estimate D2E/DX2                !
 ! R39   R(17,34)                1.0988         estimate D2E/DX2                !
 ! R40   R(26,38)                1.3347         estimate D2E/DX2                !
 ! R41   R(26,39)                1.2127         estimate D2E/DX2                !
 ! R42   R(38,40)                1.4588         estimate D2E/DX2                !
 ! R43   R(40,41)                1.5149         estimate D2E/DX2                !
 ! R44   R(40,42)                1.0941         estimate D2E/DX2                !
 ! R45   R(40,43)                1.0937         estimate D2E/DX2                !
 ! R46   R(41,44)                1.0956         estimate D2E/DX2                !
 ! R47   R(41,45)                1.0944         estimate D2E/DX2                !
 ! R48   R(41,46)                1.0934         estimate D2E/DX2                !
 ! A1    A(2,1,6)              120.0923         estimate D2E/DX2                !
 ! A2    A(2,1,24)             120.8103         estimate D2E/DX2                !
 ! A3    A(6,1,24)             119.0312         estimate D2E/DX2                !
 ! A4    A(1,2,3)              119.0059         estimate D2E/DX2                !
 ! A5    A(1,2,7)              122.4226         estimate D2E/DX2                !
 ! A6    A(3,2,7)              118.5242         estimate D2E/DX2                !
 ! A7    A(2,3,4)              120.4705         estimate D2E/DX2                !
 ! A8    A(2,3,20)             119.6873         estimate D2E/DX2                !
 ! A9    A(4,3,20)             119.8415         estimate D2E/DX2                !
 ! A10   A(3,4,5)              120.0205         estimate D2E/DX2                !
 ! A11   A(3,4,21)             119.6614         estimate D2E/DX2                !
 ! A12   A(5,4,21)             120.3159         estimate D2E/DX2                !
 ! A13   A(4,5,6)              120.0865         estimate D2E/DX2                !
 ! A14   A(4,5,22)             119.9565         estimate D2E/DX2                !
 ! A15   A(6,5,22)             119.9548         estimate D2E/DX2                !
 ! A16   A(1,6,5)              120.3137         estimate D2E/DX2                !
 ! A17   A(1,6,23)             119.4998         estimate D2E/DX2                !
 ! A18   A(5,6,23)             120.1854         estimate D2E/DX2                !
 ! A19   A(2,7,8)              123.6017         estimate D2E/DX2                !
 ! A20   A(2,7,14)             119.6075         estimate D2E/DX2                !
 ! A21   A(8,7,14)             116.0681         estimate D2E/DX2                !
 ! A22   A(7,8,9)              116.1876         estimate D2E/DX2                !
 ! A23   A(7,8,25)             103.8485         estimate D2E/DX2                !
 ! A24   A(7,8,26)             109.3532         estimate D2E/DX2                !
 ! A25   A(9,8,25)             108.9887         estimate D2E/DX2                !
 ! A26   A(9,8,26)             111.8157         estimate D2E/DX2                !
 ! A27   A(25,8,26)            105.8615         estimate D2E/DX2                !
 ! A28   A(8,9,10)             110.1502         estimate D2E/DX2                !
 ! A29   A(8,9,27)             108.3622         estimate D2E/DX2                !
 ! A30   A(8,9,28)             110.8709         estimate D2E/DX2                !
 ! A31   A(10,9,27)            110.7991         estimate D2E/DX2                !
 ! A32   A(10,9,28)            110.2475         estimate D2E/DX2                !
 ! A33   A(27,9,28)            106.3344         estimate D2E/DX2                !
 ! A34   A(9,10,11)            111.0604         estimate D2E/DX2                !
 ! A35   A(9,10,29)            109.391          estimate D2E/DX2                !
 ! A36   A(9,10,30)            108.6002         estimate D2E/DX2                !
 ! A37   A(11,10,29)           111.3624         estimate D2E/DX2                !
 ! A38   A(11,10,30)           109.7986         estimate D2E/DX2                !
 ! A39   A(29,10,30)           106.4876         estimate D2E/DX2                !
 ! A40   A(10,11,12)           128.0339         estimate D2E/DX2                !
 ! A41   A(10,11,31)           114.6507         estimate D2E/DX2                !
 ! A42   A(12,11,31)           117.2523         estimate D2E/DX2                !
 ! A43   A(11,12,13)           125.0587         estimate D2E/DX2                !
 ! A44   A(11,12,17)           120.5139         estimate D2E/DX2                !
 ! A45   A(13,12,17)           114.4229         estimate D2E/DX2                !
 ! A46   A(12,13,35)           110.1211         estimate D2E/DX2                !
 ! A47   A(12,13,36)           110.3834         estimate D2E/DX2                !
 ! A48   A(12,13,37)           113.9056         estimate D2E/DX2                !
 ! A49   A(35,13,36)           106.3738         estimate D2E/DX2                !
 ! A50   A(35,13,37)           107.9981         estimate D2E/DX2                !
 ! A51   A(36,13,37)           107.7443         estimate D2E/DX2                !
 ! A52   A(7,14,15)            146.9743         estimate D2E/DX2                !
 ! A53   A(14,15,16)           105.7333         estimate D2E/DX2                !
 ! A54   A(14,15,18)           106.0294         estimate D2E/DX2                !
 ! A55   A(14,15,19)           105.8965         estimate D2E/DX2                !
 ! A56   A(16,15,18)           113.9902         estimate D2E/DX2                !
 ! A57   A(16,15,19)           112.4735         estimate D2E/DX2                !
 ! A58   A(18,15,19)           111.9493         estimate D2E/DX2                !
 ! A59   A(12,17,32)           112.2272         estimate D2E/DX2                !
 ! A60   A(12,17,33)           111.085          estimate D2E/DX2                !
 ! A61   A(12,17,34)           110.2801         estimate D2E/DX2                !
 ! A62   A(32,17,33)           108.7765         estimate D2E/DX2                !
 ! A63   A(32,17,34)           108.0025         estimate D2E/DX2                !
 ! A64   A(33,17,34)           106.242          estimate D2E/DX2                !
 ! A65   A(8,26,38)            110.373          estimate D2E/DX2                !
 ! A66   A(8,26,39)            124.4227         estimate D2E/DX2                !
 ! A67   A(38,26,39)           125.1989         estimate D2E/DX2                !
 ! A68   A(26,38,40)           116.7547         estimate D2E/DX2                !
 ! A69   A(38,40,41)           107.5685         estimate D2E/DX2                !
 ! A70   A(38,40,42)           107.8444         estimate D2E/DX2                !
 ! A71   A(38,40,43)           108.0033         estimate D2E/DX2                !
 ! A72   A(41,40,42)           112.3757         estimate D2E/DX2                !
 ! A73   A(41,40,43)           112.678          estimate D2E/DX2                !
 ! A74   A(42,40,43)           108.178          estimate D2E/DX2                !
 ! A75   A(40,41,44)           109.2826         estimate D2E/DX2                !
 ! A76   A(40,41,45)           110.9775         estimate D2E/DX2                !
 ! A77   A(40,41,46)           110.9002         estimate D2E/DX2                !
 ! A78   A(44,41,45)           108.371          estimate D2E/DX2                !
 ! A79   A(44,41,46)           108.5921         estimate D2E/DX2                !
 ! A80   A(45,41,46)           108.6494         estimate D2E/DX2                !
 ! D1    D(6,1,2,3)              0.3528         estimate D2E/DX2                !
 ! D2    D(6,1,2,7)            177.8136         estimate D2E/DX2                !
 ! D3    D(24,1,2,3)          -176.6599         estimate D2E/DX2                !
 ! D4    D(24,1,2,7)             0.8009         estimate D2E/DX2                !
 ! D5    D(2,1,6,5)              0.5769         estimate D2E/DX2                !
 ! D6    D(2,1,6,23)          -179.0372         estimate D2E/DX2                !
 ! D7    D(24,1,6,5)           177.6425         estimate D2E/DX2                !
 ! D8    D(24,1,6,23)           -1.9716         estimate D2E/DX2                !
 ! D9    D(1,2,3,4)             -1.0168         estimate D2E/DX2                !
 ! D10   D(1,2,3,20)           179.2966         estimate D2E/DX2                !
 ! D11   D(7,2,3,4)           -178.5773         estimate D2E/DX2                !
 ! D12   D(7,2,3,20)             1.7361         estimate D2E/DX2                !
 ! D13   D(1,2,7,8)              6.9919         estimate D2E/DX2                !
 ! D14   D(1,2,7,14)          -162.8753         estimate D2E/DX2                !
 ! D15   D(3,2,7,8)           -175.5356         estimate D2E/DX2                !
 ! D16   D(3,2,7,14)            14.5972         estimate D2E/DX2                !
 ! D17   D(2,3,4,5)              0.748          estimate D2E/DX2                !
 ! D18   D(2,3,4,21)          -179.7883         estimate D2E/DX2                !
 ! D19   D(20,3,4,5)          -179.5659         estimate D2E/DX2                !
 ! D20   D(20,3,4,21)           -0.1022         estimate D2E/DX2                !
 ! D21   D(3,4,5,6)              0.1926         estimate D2E/DX2                !
 ! D22   D(3,4,5,22)           179.6567         estimate D2E/DX2                !
 ! D23   D(21,4,5,6)          -179.2676         estimate D2E/DX2                !
 ! D24   D(21,4,5,22)            0.1965         estimate D2E/DX2                !
 ! D25   D(4,5,6,1)             -0.8575         estimate D2E/DX2                !
 ! D26   D(4,5,6,23)           178.7539         estimate D2E/DX2                !
 ! D27   D(22,5,6,1)           179.6784         estimate D2E/DX2                !
 ! D28   D(22,5,6,23)           -0.7102         estimate D2E/DX2                !
 ! D29   D(2,7,8,9)             60.1956         estimate D2E/DX2                !
 ! D30   D(2,7,8,25)           179.8452         estimate D2E/DX2                !
 ! D31   D(2,7,8,26)           -67.5147         estimate D2E/DX2                !
 ! D32   D(14,7,8,9)          -129.6086         estimate D2E/DX2                !
 ! D33   D(14,7,8,25)           -9.959          estimate D2E/DX2                !
 ! D34   D(14,7,8,26)          102.6811         estimate D2E/DX2                !
 ! D35   D(2,7,14,15)           61.5623         estimate D2E/DX2                !
 ! D36   D(8,7,14,15)         -109.0493         estimate D2E/DX2                !
 ! D37   D(7,8,9,10)            61.9701         estimate D2E/DX2                !
 ! D38   D(7,8,9,27)          -176.6754         estimate D2E/DX2                !
 ! D39   D(7,8,9,28)           -60.3355         estimate D2E/DX2                !
 ! D40   D(25,8,9,10)          -54.858          estimate D2E/DX2                !
 ! D41   D(25,8,9,27)           66.4965         estimate D2E/DX2                !
 ! D42   D(25,8,9,28)         -177.1636         estimate D2E/DX2                !
 ! D43   D(26,8,9,10)         -171.5427         estimate D2E/DX2                !
 ! D44   D(26,8,9,27)          -50.1882         estimate D2E/DX2                !
 ! D45   D(26,8,9,28)           66.1517         estimate D2E/DX2                !
 ! D46   D(7,8,26,38)          -70.0781         estimate D2E/DX2                !
 ! D47   D(7,8,26,39)          110.7221         estimate D2E/DX2                !
 ! D48   D(9,8,26,38)          159.7997         estimate D2E/DX2                !
 ! D49   D(9,8,26,39)          -19.4001         estimate D2E/DX2                !
 ! D50   D(25,8,26,38)          41.239          estimate D2E/DX2                !
 ! D51   D(25,8,26,39)        -137.9608         estimate D2E/DX2                !
 ! D52   D(8,9,10,11)          -55.9315         estimate D2E/DX2                !
 ! D53   D(8,9,10,29)           67.3909         estimate D2E/DX2                !
 ! D54   D(8,9,10,30)         -176.7657         estimate D2E/DX2                !
 ! D55   D(27,9,10,11)        -175.8214         estimate D2E/DX2                !
 ! D56   D(27,9,10,29)         -52.499          estimate D2E/DX2                !
 ! D57   D(27,9,10,30)          63.3444         estimate D2E/DX2                !
 ! D58   D(28,9,10,11)          66.7412         estimate D2E/DX2                !
 ! D59   D(28,9,10,29)        -169.9363         estimate D2E/DX2                !
 ! D60   D(28,9,10,30)         -54.093          estimate D2E/DX2                !
 ! D61   D(9,10,11,12)         115.7087         estimate D2E/DX2                !
 ! D62   D(9,10,11,31)         -67.2871         estimate D2E/DX2                !
 ! D63   D(29,10,11,12)         -6.4754         estimate D2E/DX2                !
 ! D64   D(29,10,11,31)        170.5288         estimate D2E/DX2                !
 ! D65   D(30,10,11,12)       -124.1661         estimate D2E/DX2                !
 ! D66   D(30,10,11,31)         52.8381         estimate D2E/DX2                !
 ! D67   D(10,11,12,13)         -1.4765         estimate D2E/DX2                !
 ! D68   D(10,11,12,17)        177.7003         estimate D2E/DX2                !
 ! D69   D(31,11,12,13)       -178.4136         estimate D2E/DX2                !
 ! D70   D(31,11,12,17)          0.7632         estimate D2E/DX2                !
 ! D71   D(11,12,13,35)        126.5518         estimate D2E/DX2                !
 ! D72   D(11,12,13,36)       -116.2925         estimate D2E/DX2                !
 ! D73   D(11,12,13,37)          5.0624         estimate D2E/DX2                !
 ! D74   D(17,12,13,35)        -52.6692         estimate D2E/DX2                !
 ! D75   D(17,12,13,36)         64.4865         estimate D2E/DX2                !
 ! D76   D(17,12,13,37)       -174.1587         estimate D2E/DX2                !
 ! D77   D(11,12,17,32)          2.8982         estimate D2E/DX2                !
 ! D78   D(11,12,17,33)        124.919          estimate D2E/DX2                !
 ! D79   D(11,12,17,34)       -117.5617         estimate D2E/DX2                !
 ! D80   D(13,12,17,32)       -177.842          estimate D2E/DX2                !
 ! D81   D(13,12,17,33)        -55.8212         estimate D2E/DX2                !
 ! D82   D(13,12,17,34)         61.6982         estimate D2E/DX2                !
 ! D83   D(7,14,15,16)         124.3121         estimate D2E/DX2                !
 ! D84   D(7,14,15,18)           2.9509         estimate D2E/DX2                !
 ! D85   D(7,14,15,19)        -116.1397         estimate D2E/DX2                !
 ! D86   D(8,26,38,40)         179.4302         estimate D2E/DX2                !
 ! D87   D(39,26,38,40)         -1.3775         estimate D2E/DX2                !
 ! D88   D(26,38,40,41)        175.0525         estimate D2E/DX2                !
 ! D89   D(26,38,40,42)        -63.5208         estimate D2E/DX2                !
 ! D90   D(26,38,40,43)         53.1734         estimate D2E/DX2                !
 ! D91   D(38,40,41,44)       -179.9667         estimate D2E/DX2                !
 ! D92   D(38,40,41,45)        -60.5117         estimate D2E/DX2                !
 ! D93   D(38,40,41,46)         60.3527         estimate D2E/DX2                !
 ! D94   D(42,40,41,44)         61.4825         estimate D2E/DX2                !
 ! D95   D(42,40,41,45)       -179.0625         estimate D2E/DX2                !
 ! D96   D(42,40,41,46)        -58.1981         estimate D2E/DX2                !
 ! D97   D(43,40,41,44)        -61.0422         estimate D2E/DX2                !
 ! D98   D(43,40,41,45)         58.4128         estimate D2E/DX2                !
 ! D99   D(43,40,41,46)        179.2772         estimate D2E/DX2                !
 --------------------------------------------------------------------------------
 Trust Radius=3.00D-01 FncErr=1.00D-07 GrdErr=1.00D-06 EigMax=2.50D+02 EigMin=1.00D-04
 Number of steps in this run=    237 maximum allowed number of steps=    276.
 GradGradGradGradGradGradGradGradGradGradGradGradGradGradGradGradGradGrad

 Leave Link  103 at Sun Jun 20 09:14:11 2021, MaxMem=  2147483648 cpu:               0.3 elap:               0.1
 (Enter /SFS/product/gaussian/g16.a03/x86_64/avx/g16/l202.exe)
                          Input orientation:                          
 ---------------------------------------------------------------------
 Center     Atomic      Atomic             Coordinates (Angstroms)
 Number     Number       Type             X           Y           Z
 ---------------------------------------------------------------------
      1          6           0        2.780874    0.565229    1.314174
      2          6           0        1.649374   -0.206099    0.974085
      3          6           0        1.196856   -1.192323    1.876793
      4          6           0        1.868303   -1.414293    3.072050
      5          6           0        2.992083   -0.647785    3.395987
      6          6           0        3.438799    0.344648    2.520516
      7          6           0        0.886731    0.015174   -0.265961
      8          6           0        1.325641    0.982555   -1.370240
      9          6           0        2.686009    0.691533   -2.026368
     10          6           0        2.656979   -0.680559   -2.719624
     11          6           0        2.266449   -1.765565   -1.754367
     12          6           0        1.166568   -2.545008   -1.781250
     13          6           0        0.066338   -2.452258   -2.803348
     14          8           0       -0.275806   -0.458915   -0.374917
     15         26           0       -2.100238   -0.482707    0.306719
     16         17           0       -3.378653    0.001924   -1.402305
     17          6           0        0.967984   -3.623787   -0.748331
     18         17           0       -2.164147    1.003421    1.917584
     19         17           0       -2.436772   -2.523600    1.056792
     20          1           0        0.322294   -1.783131    1.631945
     21          1           0        1.510807   -2.178611    3.755200
     22          1           0        3.513272   -0.818534    4.333898
     23          1           0        4.299104    0.954382    2.779645
     24          1           0        3.121029    1.365194    0.668813
     25          1           0        0.539036    0.891771   -2.125954
     26          6           0        1.240515    2.431440   -0.844620
     27          1           0        2.898287    1.487488   -2.748080
     28          1           0        3.489893    0.724710   -1.286969
     29          1           0        1.973383   -0.641784   -3.573936
     30          1           0        3.655446   -0.887833   -3.128393
     31          1           0        2.997654   -1.960681   -0.969276
     32          1           0        1.768245   -3.634831   -0.002282
     33          1           0        0.006162   -3.504827   -0.233004
     34          1           0        0.938732   -4.611137   -1.229604
     35          1           0       -0.108063   -3.434836   -3.260667
     36          1           0       -0.877518   -2.162202   -2.323830
     37          1           0        0.265834   -1.737822   -3.604605
     38          8           0       -0.034187    2.794896   -0.688383
     39          8           0        2.200977    3.137716   -0.622751
     40          6           0       -0.275796    4.141812   -0.182817
     41          6           0       -1.772208    4.376511   -0.203823
     42          1           0        0.140869    4.200594    0.827101
     43          1           0        0.270231    4.844539   -0.818639
     44          1           0       -1.985779    5.383590    0.171069
     45          1           0       -2.167137    4.296289   -1.221339
     46          1           0       -2.289712    3.651446    0.430283
 ---------------------------------------------------------------------
                    Distance matrix (angstroms):
                    1          2          3          4          5
     1  C    0.000000
     2  C    1.410992   0.000000
     3  C    2.432004   1.411486   0.000000
     4  C    2.800254   2.430868   1.388795   0.000000
     5  C    2.418669   2.804205   2.413983   1.398339   0.000000
     6  C    1.391683   2.428335   2.793379   2.421677   1.396756
     7  C    2.527284   1.472515   2.479036   3.761539   4.275732
     8  C    3.081873   2.648313   3.910231   5.076741   5.305842
     9  C    3.344275   3.298950   4.582702   5.576470   5.593692
    10  C    4.223608   3.857961   4.849836   5.890998   6.124873
    11  C    3.887567   3.202681   3.828571   4.855534   5.319974
    12  C    4.675597   3.646295   3.900250   5.032442   5.808248
    13  C    5.781688   4.671213   4.976869   6.232556   7.088573
    14  O    3.639394   2.364327   2.788695   4.170316   4.993444
    15  Fe   5.092975   3.818570   3.720150   4.925873   5.958403
    16  Cl   6.755468   5.565210   5.754476   7.039607   8.002000
    17  C    5.008827   3.887364   3.585481   4.504192   5.488983
    18  Cl   5.000935   4.110483   4.014884   4.841362   5.612385
    19  Cl   6.068850   4.698323   3.955749   4.881137   6.201853
    20  H    3.414731   2.163551   1.083450   2.144782   3.395383
    21  H    3.885915   3.412419   2.144701   1.085670   2.160241
    22  H    3.401461   3.890699   3.397479   2.157107   1.086494
    23  H    2.145709   3.409961   3.879101   3.406599   2.157573
    24  H    1.082654   2.174378   3.420899   3.882064   3.392077
    25  H    4.119096   3.471082   4.560500   5.839874   6.235343
    26  C    3.242814   3.229778   4.532069   5.524861   5.525610
    27  H    4.167284   4.275808   5.609430   6.584460   6.505209
    28  H    2.700757   3.060438   4.352290   5.119173   4.905266
    29  H    5.099269   4.580316   5.533221   6.691558   7.043977
    30  H    4.755278   4.617295   5.584735   6.474298   6.562409
    31  H    3.411944   2.945007   3.454469   4.231582   4.558426
    32  H    4.516523   3.567019   3.134207   3.793721   4.687052
    33  H    5.163152   3.877991   3.349130   4.331430   5.499817
    34  H    6.054672   4.976507   4.626513   5.439498   6.428102
    35  H    6.728718   5.607714   5.755447   6.934834   7.854273
    36  H    5.835905   4.592142   4.784237   6.100362   7.069906
    37  H    5.985303   5.022426   5.586600   6.873885   7.591370
    38  O    4.111717   3.821537   4.898317   5.956307   6.139417
    39  O    3.271949   3.746365   5.099531   5.872224   5.577286
    40  C    4.937222   4.893775   5.904549   6.786871   6.813744
    41  C    6.128682   5.839093   6.645014   7.584067   7.803887
    42  H    4.519153   4.660057   5.594686   6.288941   6.183476
    43  H    5.400436   5.533971   6.675904   7.540840   7.438896
    44  H    6.873447   6.715936   7.502086   8.335518   8.459119
    45  H    6.695704   6.297392   7.144210   8.205407   8.507709
    46  H    6.001403   5.540106   6.140899   7.066097   7.428065
                    6          7          8          9         10
     6  C    0.000000
     7  C    3.792896   0.000000
     8  C    4.473292   1.532286   0.000000
     9  C    4.621815   2.606510   1.538115   0.000000
    10  C    5.396421   3.104559   2.521755   1.537558   0.000000
    11  C    4.909382   2.700001   2.929989   2.507458   1.503819
    12  C    5.658475   2.988133   3.554987   3.583850   2.564769
    13  C    6.894904   3.633125   3.929069   4.165309   3.139641
    14  O    4.777817   1.260208   2.373423   3.580945   3.761383
    15  Fe   6.022154   3.081855   4.086053   5.452549   5.641721
    16  Cl   7.872969   4.414176   4.805523   6.135564   6.215301
    17  C    5.704276   3.671692   4.661875   4.817362   3.924448
    18  Cl   5.673668   3.879737   4.794668   6.259077   6.898025
    19  Cl   6.700125   4.386425   5.686771   6.788655   6.603364
    20  H    3.876803   2.674797   4.203432   5.009428   5.059898
    21  H    3.407115   4.622975   6.024732   6.560896   6.743976
    22  H    2.155665   5.362135   6.369210   6.589207   7.106648
    23  H    1.085840   4.669274   5.105274   5.076310   5.967543
    24  H    2.138059   2.772804   2.743641   2.811950   3.985217
    25  H    5.504330   2.085399   1.094574   2.158589   2.703766
    26  C    4.528940   2.509652   1.543629   2.552108   3.899557
    27  H    5.418149   3.517809   2.150957   1.095205   2.181620
    28  H    3.826748   2.884849   2.181148   1.092722   2.172792
    29  H    6.345300   3.543318   2.813241   2.163455   1.094831
    30  H    5.785855   4.083469   3.466619   2.156076   1.098631
    31  H    4.205686   2.975677   3.408671   2.872073   2.195106
    32  H    4.999151   3.764190   4.836058   4.863809   4.111146
    33  H    5.846651   3.628622   4.813619   5.292180   4.602890
    34  H    6.698772   4.725893   5.608820   5.639691   4.541143
    35  H    7.764458   4.675516   5.014236   5.133932   3.940080
    36  H    6.955759   3.476833   3.956354   4.575042   3.852867
    37  H    7.205657   3.821656   3.676415   3.774897   2.760176
    38  O    5.325634   2.958612   2.366145   3.689689   4.842221
    39  O    4.383327   3.406583   2.443291   2.861679   4.379959
    40  C    5.960258   4.288068   3.735703   4.906668   6.188039
    41  C    7.129694   5.108334   4.740900   6.064358   7.177807
    42  H    5.349048   4.389628   4.072808   5.189753   6.537256
    43  H    6.437297   4.899826   4.041420   4.953993   6.311657
    44  H    7.767682   6.104277   5.719287   6.976369   8.166101
    45  H    7.813032   5.344792   4.816898   6.098800   7.091260
    46  H    6.936845   4.878219   4.841037   6.289199   7.290949
                   11         12         13         14         15
    11  C    0.000000
    12  C    1.348329   0.000000
    13  C    2.532271   1.504591   0.000000
    14  O    3.173843   2.900000   3.160341   0.000000
    15  Fe   4.996174   4.391437   4.271499   1.947754   0.000000
    16  Cl   5.925803   5.223935   4.455771   3.300842   2.188601
    17  C    2.480143   1.506692   2.531510   3.420945   4.515916
    18  Cl   6.385976   6.112805   6.261308   3.310562   2.192612
    19  Cl   5.531502   4.586829   4.601231   3.313984   2.200252
    20  H    3.904761   3.597660   4.492780   2.477653   3.052210
    21  H    5.576462   5.559229   6.721304   4.817386   5.273306
    22  H    6.286367   6.773682   8.092632   6.054699   6.916823
    23  H    5.664544   6.546776   7.790463   5.733975   7.009434
    24  H    4.050156   5.011228   5.996664   3.994400   5.550449
    25  H    3.191155   3.510565   3.444537   2.356788   3.843547
    26  C    4.415318   5.064364   5.391272   3.297575   4.580225
    27  H    3.459630   4.493844   4.852277   4.415343   6.180511
    28  H    2.813671   4.041436   4.910525   4.051333   5.936940
    29  H    2.158611   2.736226   2.740154   3.914845   5.628426
    30  H    2.141886   3.279564   3.928712   4.818749   6.715059
    31  H    1.090458   2.086532   3.492575   3.650220   5.459036
    32  H    2.610012   2.171280   3.484385   3.795187   4.999653
    33  H    3.232410   2.159829   2.778163   3.062226   3.723094
    34  H    3.183628   2.150607   2.810427   4.409823   5.351594
    35  H    3.270124   2.145962   1.097732   4.148710   5.040840
    36  H    3.219649   2.149237   1.097695   2.657349   3.351945
    37  H    2.725181   2.188034   1.091893   3.515659   4.740471
    38  O    5.217955   5.581285   5.658251   3.277793   4.000185
    39  O    5.032594   5.891135   6.368634   4.373972   5.698406
    40  C    6.620414   7.024882   7.103942   4.604736   4.995439
    41  C    7.512658   7.683235   7.534578   5.064567   4.896964
    42  H    6.839380   7.304704   7.579324   4.830061   5.217918
    43  H    6.968066   7.505694   7.564647   5.349922   5.938443
    44  H    8.538101   8.752800   8.628954   6.112035   5.868981
    45  H    7.529069   7.630887   7.282448   5.187054   5.017792
    46  H    7.407787   7.431877   7.298119   4.647497   4.140337
                   16         17         18         19         20
    16  Cl   0.000000
    17  C    5.697957   0.000000
    18  Cl   3.674192   6.190994   0.000000
    19  Cl   3.648639   4.007648   3.640764   0.000000
    20  H    5.107847   3.077441   3.745511   2.914025   0.000000
    21  H    7.433802   4.760775   5.196869   4.794143   2.465194
    22  H    9.004210   6.338532   6.433598   7.003549   4.291077
    23  H    8.794534   6.671027   6.520672   7.774098   4.962480
    24  H    6.956573   5.615499   5.442738   6.794292   4.321168
    25  H    4.082130   4.740475   4.865168   5.536250   4.617779
    26  C    5.248835   6.062122   4.610936   6.456797   4.973843
    27  H    6.589233   5.818092   6.901520   7.683016   6.042955
    28  H    6.907434   5.055649   6.504999   7.153327   4.984276
    29  H    5.811594   4.229328   7.069841   6.665909   5.579423
    30  H    7.297232   4.513601   7.931355   7.570114   5.879820
    31  H    6.685553   2.633306   6.615440   5.827076   3.735696
    32  H    6.455742   1.094134   6.376753   4.476454   2.861864
    33  H    5.012139   1.097641   5.446060   2.931605   2.557775
    34  H    6.320599   1.098790   7.145342   4.580332   4.070145
    35  H    5.095251   2.739601   7.123194   4.989358   5.181794
    36  H    3.433413   2.832721   5.446666   3.740386   4.151072
    37  H    4.599905   3.494021   6.626748   5.445195   5.237050
    38  O    4.415408   6.496725   3.812765   6.091342   5.144835
    39  O    6.447726   6.874152   5.482958   7.508667   5.729558
    40  C    5.315406   7.884879   4.222209   7.115769   6.225434
    41  C    4.811864   8.474073   4.003963   7.045731   6.760042
    42  H    5.914906   8.024154   4.089519   7.204983   6.040336
    43  H    6.091465   8.497314   5.307287   8.070600   7.066405
    44  H    5.777364   9.523805   4.718899   7.969414   7.669632
    45  H    4.465657   8.531138   4.549267   7.195378   7.162251
    46  H    4.226486   8.057961   3.039715   6.208489   6.148268
                   21         22         23         24         25
    21  H    0.000000
    22  H    2.488889   0.000000
    23  H    4.306037   2.485250   0.000000
    24  H    4.967610   4.284317   2.451987   0.000000
    25  H    6.705189   7.314432   6.181176   3.834259   0.000000
    26  C    6.517973   6.522638   4.967088   2.638881   2.122374
    27  H    7.593289   7.473310   5.727323   3.426329   2.511570
    28  H    6.145691   5.828919   4.152700   2.090781   3.072355
    29  H    7.502803   8.058309   6.951598   4.831767   2.550646
    30  H    7.324578   7.463967   6.221974   4.447528   3.726109
    31  H    4.957709   5.449222   4.924000   3.709448   3.939440
    32  H    4.038010   5.457023   5.933400   5.223088   5.148890
    33  H    4.464143   6.353942   6.884036   5.850878   4.816356
    34  H    5.576085   7.208651   7.638140   6.639498   5.589740
    35  H    7.308983   8.811159   8.670278   6.993435   4.519495
    36  H    6.531384   8.087634   7.909233   6.114476   3.372318
    37  H    7.477365   8.626168   8.017099   6.003578   3.029160
    38  O    6.846036   7.131946   5.847403   3.720405   2.452974
    39  O    6.921425   6.476295   4.554710   2.378333   3.172686
    40  C    7.658177   7.704725   6.313921   4.469150   3.873306
    41  C    8.331967   8.689977   7.581087   5.811479   4.602157
    42  H    7.151556   6.990163   5.625055   4.116540   4.452795
    43  H    8.472524   8.314827   6.656785   4.737658   4.172014
    44  H    9.069674   9.275508   8.119255   6.517265   5.641582
    45  H    8.956425   9.449292   8.305931   6.334721   4.442121
    46  H    7.712884   8.300214   7.497076   5.878772   4.706588
                   26         27         28         29         30
    26  C    0.000000
    27  H    2.694887   0.000000
    28  H    2.858024   1.751192   0.000000
    29  H    4.175041   2.463998   3.065506   0.000000
    30  H    4.697349   2.521919   2.453272   1.757380   0.000000
    31  H    4.732209   3.881222   2.748555   3.094006   2.499096
    32  H    6.147168   5.920689   4.860050   4.664453   4.569474
    33  H    6.094011   6.293902   5.579983   4.819627   5.343146
    34  H    7.059545   6.583225   5.914641   4.724633   4.984870
    35  H    6.486073   5.790523   5.843166   3.497384   4.546286
    36  H    5.270263   5.268484   5.337005   3.464401   4.776934
    37  H    5.094140   4.250420   4.672265   2.029277   3.526858
    38  O    1.334682   3.814587   4.130752   4.916047   5.755826
    39  O    1.212658   2.779661   2.815153   4.800616   4.959714
    40  C    2.379612   4.868348   5.203475   6.280230   7.030534
    41  C    3.642859   6.052538   6.496042   7.111287   8.107148
    42  H    2.670913   5.267468   5.269442   6.795282   7.340999
    43  H    2.600995   4.679659   5.249624   6.371195   7.046611
    44  H    4.489520   6.896024   7.335804   8.124356   9.057627
    45  H    3.902777   5.989893   6.690476   6.860261   8.025861
    46  H    3.946682   6.457557   6.702132   7.255313   8.283365
                   31         32         33         34         35
    31  H    0.000000
    32  H    2.291136   0.000000
    33  H    3.446086   1.781873   0.000000
    34  H    3.366281   1.774143   1.756935   0.000000
    35  H    4.131475   3.765316   3.030625   2.569957   0.000000
    36  H    4.110035   3.815532   2.637250   3.239348   1.757647
    37  H    3.802297   4.339656   3.815420   3.788055   1.771426
    38  O    5.646811   6.712740   6.316289   7.489247   6.740301
    39  O    5.171888   6.814663   7.006604   7.874405   7.449074
    40  C    6.969535   8.042815   7.652000   8.898593   8.179663
    41  C    7.968532   8.761109   8.079538   9.443476   8.551656
    42  H    7.024920   8.045503   7.779170   9.083679   8.664387
    43  H    7.332977   8.649289   8.374044   9.488182   8.640293
    44  H    8.948369   9.770090   9.117843  10.507579   9.647138
    45  H    8.117159   8.937337   8.158275   9.433384   8.256448
    46  H    7.836515   8.351285   7.544749   9.024874   8.282397
                   36         37         38         39         40
    36  H    0.000000
    37  H    1.768541   0.000000
    38  O    5.287600   5.398138   0.000000
    39  O    6.360812   6.033830   2.262254   0.000000
    40  C    6.684804   6.824375   1.458820   2.708534   0.000000
    41  C    6.931787   7.287249   2.399379   4.182859   1.514851
    42  H    7.172911   7.410831   2.074445   2.734196   1.094075
    43  H    7.257916   7.147664   2.076216   2.584453   1.093728
    44  H    8.024446   8.368989   3.353909   4.816952   2.142730
    45  H    6.677628   6.928910   2.662273   4.558620   2.163229
    46  H    6.586193   7.201066   2.659414   4.641022   2.161529
                   41         42         43         44         45
    41  C    0.000000
    42  H    2.180279   0.000000
    43  H    2.183714   1.771965   0.000000
    44  H    1.095612   2.520414   2.521840   0.000000
    45  H    1.094415   3.087419   2.530515   1.775926   0.000000
    46  H    1.093444   2.523242   3.088136   1.777608   1.777274
                   46
    46  H    0.000000
 Stoichiometry    C17H22Cl3FeO3(6)
 Framework group  C1[X(C17H22Cl3FeO3)]
 Deg. of freedom   132
 Full point group                 C1      NOp   1
 Largest Abelian subgroup         C1      NOp   1
 Largest concise Abelian subgroup C1      NOp   1
                         Standard orientation:                         
 ---------------------------------------------------------------------
 Center     Atomic      Atomic             Coordinates (Angstroms)
 Number     Number       Type             X           Y           Z
 ---------------------------------------------------------------------
      1          6           0        2.780874    0.565229    1.314174
      2          6           0        1.649374   -0.206099    0.974085
      3          6           0        1.196856   -1.192323    1.876793
      4          6           0        1.868303   -1.414293    3.072050
      5          6           0        2.992083   -0.647785    3.395987
      6          6           0        3.438799    0.344648    2.520516
      7          6           0        0.886731    0.015174   -0.265961
      8          6           0        1.325641    0.982555   -1.370240
      9          6           0        2.686009    0.691533   -2.026368
     10          6           0        2.656979   -0.680559   -2.719624
     11          6           0        2.266449   -1.765565   -1.754367
     12          6           0        1.166568   -2.545008   -1.781250
     13          6           0        0.066338   -2.452258   -2.803348
     14          8           0       -0.275806   -0.458915   -0.374917
     15         26           0       -2.100238   -0.482707    0.306719
     16         17           0       -3.378653    0.001924   -1.402305
     17          6           0        0.967984   -3.623787   -0.748331
     18         17           0       -2.164147    1.003421    1.917584
     19         17           0       -2.436772   -2.523600    1.056792
     20          1           0        0.322294   -1.783131    1.631945
     21          1           0        1.510807   -2.178611    3.755200
     22          1           0        3.513272   -0.818534    4.333898
     23          1           0        4.299104    0.954382    2.779645
     24          1           0        3.121029    1.365194    0.668813
     25          1           0        0.539036    0.891771   -2.125954
     26          6           0        1.240515    2.431440   -0.844620
     27          1           0        2.898287    1.487488   -2.748080
     28          1           0        3.489893    0.724710   -1.286969
     29          1           0        1.973383   -0.641784   -3.573936
     30          1           0        3.655446   -0.887833   -3.128393
     31          1           0        2.997654   -1.960681   -0.969276
     32          1           0        1.768245   -3.634831   -0.002282
     33          1           0        0.006162   -3.504827   -0.233004
     34          1           0        0.938732   -4.611137   -1.229604
     35          1           0       -0.108063   -3.434836   -3.260667
     36          1           0       -0.877518   -2.162202   -2.323830
     37          1           0        0.265834   -1.737822   -3.604605
     38          8           0       -0.034187    2.794896   -0.688383
     39          8           0        2.200977    3.137716   -0.622751
     40          6           0       -0.275796    4.141812   -0.182817
     41          6           0       -1.772208    4.376511   -0.203823
     42          1           0        0.140869    4.200594    0.827101
     43          1           0        0.270231    4.844539   -0.818639
     44          1           0       -1.985779    5.383590    0.171069
     45          1           0       -2.167137    4.296289   -1.221339
     46          1           0       -2.289712    3.651446    0.430283
 ---------------------------------------------------------------------
 Rotational constants (GHZ):           0.1812545           0.1624140           0.1381911
 Leave Link  202 at Sun Jun 20 09:14:11 2021, MaxMem=  2147483648 cpu:               0.2 elap:               0.1
 (Enter /SFS/product/gaussian/g16.a03/x86_64/avx/g16/l301.exe)
 Standard basis: Jul-CC-pVDZ (5D, 7F)
 Ernie: Thresh=  0.10000D-02 Tol=  0.10000D-05 Strict=F.
 Ernie:  134 primitive shells out of 958 were deleted.
 There are   766 symmetry adapted cartesian basis functions of A   symmetry.
 There are   710 symmetry adapted basis functions of A   symmetry.
   710 basis functions,  1571 primitive gaussians,   766 cartesian basis functions
   115 alpha electrons      110 beta electrons
       nuclear repulsion energy      3291.8288901106 Hartrees.
 IExCor=  402 DFT=T Ex+Corr=B3LYP ExCW=0 ScaHFX=  0.200000
 ScaDFX=  0.800000  0.720000  1.000000  0.810000 ScalE2=  1.000000  1.000000
 IRadAn=      5 IRanWt=     -1 IRanGd=            0 ICorTp=0 IEmpDi=  4
 NAtoms=   46 NActive=   46 NUniq=   46 SFac= 1.00D+00 NAtFMM=   60 NAOKFM=F Big=F
 Integral buffers will be    131072 words long.
 Raffenetti 2 integral format.
 Two-electron integral symmetry is turned on.
 Leave Link  301 at Sun Jun 20 09:14:11 2021, MaxMem=  2147483648 cpu:               1.2 elap:               0.1
 (Enter /SFS/product/gaussian/g16.a03/x86_64/avx/g16/l302.exe)
 NPDir=0 NMtPBC=     1 NCelOv=     1 NCel=       1 NClECP=     1 NCelD=      1
         NCelK=      1 NCelE2=     1 NClLst=     1 CellRange=     0.0.
 One-electron integrals computed using PRISM.
 One-electron integral symmetry used in STVInt
 NBasis=   710 RedAO= T EigKep=  1.62D-06  NBF=   710
 NBsUse=   710 1.00D-06 EigRej= -1.00D+00 NBFU=   710
 Precomputing XC quadrature grid using
 IXCGrd= 4 IRadAn=           5 IRanWt=          -1 IRanGd=           0 AccXCQ= 0.00D+00.
 Generated NRdTot=       0 NPtTot=           0 NUsed=           0 NTot=          32
 NSgBfM=   764   764   764   764   764 MxSgAt=    46 MxSgA2=    46.
 Leave Link  302 at Sun Jun 20 09:14:12 2021, MaxMem=  2147483648 cpu:              15.8 elap:               1.0
 (Enter /SFS/product/gaussian/g16.a03/x86_64/avx/g16/l303.exe)
 DipDrv:  MaxL=1.
 Leave Link  303 at Sun Jun 20 09:14:13 2021, MaxMem=  2147483648 cpu:               2.5 elap:               0.2
 (Enter /SFS/product/gaussian/g16.a03/x86_64/avx/g16/l401.exe)
 ExpMin= 1.40D-02 ExpMax= 4.32D+06 ExpMxC= 4.91D+03 IAcc=3 IRadAn=         5 AccDes= 0.00D+00
 Harris functional with IExCor=  402 and IRadAn=       5 diagonalized for initial guess.
 HarFok:  IExCor=  402 AccDes= 0.00D+00 IRadAn=         5 IDoV= 1 UseB2=F ITyADJ=14
 ICtDFT=  3500011 ScaDFX=  1.000000  1.000000  1.000000  1.000000
 FoFCou: FMM=F IPFlag=           0 FMFlag=      100000 FMFlg1=           0
         NFxFlg=           0 DoJE=T BraDBF=F KetDBF=T FulRan=T
         wScrn=  0.000000 ICntrl=       500 IOpCl=  0 I1Cent=   200000004 NGrid=           0
         NMat0=    1 NMatS0=      1 NMatT0=    0 NMatD0=    1 NMtDS0=    0 NMtDT0=    0
 Petite list used in FoFCou.
 Harris En= -3531.13736935005    
 JPrj=0 DoOrth=F DoCkMO=F.
 Initial guess <Sx>= 0.0000 <Sy>= 0.0000 <Sz>= 2.5000 <S**2>= 8.7500 S= 2.5000
 Leave Link  401 at Sun Jun 20 09:14:19 2021, MaxMem=  2147483648 cpu:              94.2 elap:               6.0
 (Enter /SFS/product/gaussian/g16.a03/x86_64/avx/g16/l502.exe)
 Integral symmetry usage will be decided dynamically.
 UHF open shell SCF:
 Using DIIS extrapolation, IDIIS=  1040.
 NGot=  2147483648 LenX=  2146290678 LenY=  2145703156
 Requested convergence on RMS density matrix=1.00D-08 within 128 cycles.
 Requested convergence on MAX density matrix=1.00D-06.
 Requested convergence on             energy=1.00D-06.
 No special actions if energy rises.
 Fock matrices will be formed incrementally for  20 cycles.

 Cycle   1  Pass 1  IDiag  1:
 FoFJK:  IHMeth= 1 ICntrl=       0 DoSepK=F KAlg= 0 I1Cent=           0 FoldK=F
 IRaf= 920000000 NMat=       1 IRICut=       1 DoRegI=T DoRafI=F ISym2E= 0 IDoP0=0 IntGTp=1.
 FoFCou: FMM=F IPFlag=           0 FMFlag=      100000 FMFlg1=           0
         NFxFlg=           0 DoJE=F BraDBF=F KetDBF=F FulRan=T
         wScrn=  0.000000 ICntrl=         0 IOpCl=  1 I1Cent=           0 NGrid=           0
         NMat0=    1 NMatS0=      1 NMatT0=    0 NMatD0=    1 NMtDS0=    0 NMtDT0=    0
 Symmetry not used in FoFCou.
 E= -3530.43281847250    
 DIIS: error= 2.66D-02 at cycle   1 NSaved=   1.
 NSaved= 1 IEnMin= 1 EnMin= -3530.43281847250     IErMin= 1 ErrMin= 2.66D-02
 ErrMax= 2.66D-02  0.00D+00 EMaxC= 1.00D-01 BMatC= 4.34D+00 BMatP= 4.34D+00
 IDIUse=3 WtCom= 7.34D-01 WtEn= 2.66D-01
 Coeff-Com:  0.100D+01
 Coeff-En:   0.100D+01
 Coeff:      0.100D+01
 Gap=     0.209 Goal=   None    Shift=    0.000
 Gap=     0.056 Goal=   None    Shift=    0.000
 GapD=    0.056 DampG=0.500 DampE=0.250 DampFc=0.1250 IDamp=-1.
 Damping current iteration by 1.25D-01
 RMSDP=3.43D-02 MaxDP=9.22D+00              OVMax= 7.91D-01

 Cycle   2  Pass 1  IDiag  1:
 RMSU=  1.85D-03    CP:  9.51D-01
 E= -3530.73276752184     Delta-E=       -0.299949049339 Rises=F Damp=T
 DIIS: error= 9.05D-03 at cycle   2 NSaved=   2.
 NSaved= 2 IEnMin= 2 EnMin= -3530.73276752184     IErMin= 2 ErrMin= 9.05D-03
 ErrMax= 9.05D-03  0.00D+00 EMaxC= 1.00D-01 BMatC= 1.22D+00 BMatP= 4.34D+00
 IDIUse=3 WtCom= 9.10D-01 WtEn= 9.05D-02
 Coeff-Com: -0.405D+00 0.141D+01
 Coeff-En:   0.000D+00 0.100D+01
 Coeff:     -0.369D+00 0.137D+01
 Gap=     0.356 Goal=   None    Shift=    0.000
 Gap=     0.012 Goal=   None    Shift=    0.000
 RMSDP=2.99D-02 MaxDP=8.49D+00 DE=-3.00D-01 OVMax= 9.83D-01

 Cycle   3  Pass 1  IDiag  1:
 RMSU=  7.10D-03    CP:  5.88D-01  3.00D+00
 E= -3530.20214041385     Delta-E=        0.530627107985 Rises=F Damp=F
 DIIS: error= 4.05D-02 at cycle   3 NSaved=   3.
 NSaved= 3 IEnMin= 2 EnMin= -3530.73276752184     IErMin= 2 ErrMin= 9.05D-03
 ErrMax= 4.05D-02  0.00D+00 EMaxC= 1.00D-01 BMatC= 5.81D+00 BMatP= 1.22D+00
 IDIUse=2 WtCom= 0.00D+00 WtEn= 1.00D+00
 Coeff-En:   0.000D+00 0.710D+00 0.290D+00
 Coeff:      0.000D+00 0.710D+00 0.290D+00
 Gap=    -0.064 Goal=   None    Shift=    0.000
 Gap=     0.206 Goal=   None    Shift=    0.000
 RMSDP=7.01D-03 MaxDP=7.02D-01 DE= 5.31D-01 OVMax= 7.12D-01

 Cycle   4  Pass 1  IDiag  1:
 RMSU=  5.30D-03    CP:  6.09D-01  3.00D+00  3.94D-01
 E= -3521.58097777391     Delta-E=        8.621162639944 Rises=F Damp=F
 DIIS: error= 1.41D-01 at cycle   4 NSaved=   4.
 NSaved= 4 IEnMin= 2 EnMin= -3530.73276752184     IErMin= 2 ErrMin= 9.05D-03
 ErrMax= 1.41D-01  0.00D+00 EMaxC= 1.00D-01 BMatC= 4.64D+01 BMatP= 1.22D+00
 IDIUse=2 WtCom= 0.00D+00 WtEn= 1.00D+00
 EnCoef did   100 forward-backward iterations
 Coeff-En:   0.361D+00 0.195D-01 0.446D+00 0.173D+00
 Coeff:      0.361D+00 0.195D-01 0.446D+00 0.173D+00
 Gap=     0.103 Goal=   None    Shift=    0.000
 Gap=     0.029 Goal=   None    Shift=    0.000
 RMSDP=4.97D-03 MaxDP=6.20D-01 DE= 8.62D+00 OVMax= 9.78D-01

 Cycle   5  Pass 1  IDiag  1:
 RMSU=  3.53D-03    CP:  6.26D-01  3.00D+00  6.08D-01  4.62D-01
 E= -3530.59885363673     Delta-E=       -9.017875862823 Rises=F Damp=F
 DIIS: error= 4.21D-02 at cycle   5 NSaved=   5.
 NSaved= 5 IEnMin= 2 EnMin= -3530.73276752184     IErMin= 2 ErrMin= 9.05D-03
 ErrMax= 4.21D-02  0.00D+00 EMaxC= 1.00D-01 BMatC= 5.75D+00 BMatP= 1.22D+00
 IDIUse=2 WtCom= 0.00D+00 WtEn= 1.00D+00
 Coeff-En:   0.000D+00 0.000D+00 0.437D+00 0.000D+00 0.563D+00
 Coeff:      0.000D+00 0.000D+00 0.437D+00 0.000D+00 0.563D+00
 Gap=     0.200 Goal=   None    Shift=    0.000
 Gap=     0.072 Goal=   None    Shift=    0.000
 RMSDP=3.81D-03 MaxDP=5.01D-01 DE=-9.02D+00 OVMax= 3.55D-01

 Cycle   6  Pass 1  IDiag  1:
 RMSU=  2.57D-03    CP:  6.45D-01  2.70D+00  6.39D-01  1.99D-01  5.71D-01
 E= -3531.20911194007     Delta-E=       -0.610258303338 Rises=F Damp=F
 DIIS: error= 2.11D-02 at cycle   6 NSaved=   6.
 NSaved= 6 IEnMin= 6 EnMin= -3531.20911194007     IErMin= 2 ErrMin= 9.05D-03
 ErrMax= 2.11D-02  0.00D+00 EMaxC= 1.00D-01 BMatC= 1.26D+00 BMatP= 1.22D+00
 IDIUse=3 WtCom= 7.89D-01 WtEn= 2.11D-01
 Coeff-Com: -0.428D+00 0.771D+00 0.238D+00 0.213D-02 0.128D+00 0.290D+00
 Coeff-En:   0.000D+00 0.000D+00 0.000D+00 0.000D+00 0.292D+00 0.708D+00
 Coeff:     -0.338D+00 0.608D+00 0.187D+00 0.168D-02 0.163D+00 0.378D+00
 Gap=     0.127 Goal=   None    Shift=    0.000
 Gap=     0.120 Goal=   None    Shift=    0.000
 RMSDP=3.11D-03 MaxDP=5.39D-01 DE=-6.10D-01 OVMax= 1.68D-01

 Cycle   7  Pass 1  IDiag  1:
 RMSU=  1.40D-03    CP:  6.28D-01  3.00D+00  6.80D-01  2.70D-01  7.67D-01
                    CP:  1.70D-01
 E= -3531.40579244512     Delta-E=       -0.196680505055 Rises=F Damp=F
 DIIS: error= 3.29D-03 at cycle   7 NSaved=   7.
 NSaved= 7 IEnMin= 7 EnMin= -3531.40579244512     IErMin= 7 ErrMin= 3.29D-03
 ErrMax= 3.29D-03  0.00D+00 EMaxC= 1.00D-01 BMatC= 1.62D-01 BMatP= 1.22D+00
 IDIUse=3 WtCom= 9.67D-01 WtEn= 3.29D-02
 Coeff-Com: -0.158D+00 0.217D+00 0.134D-01 0.790D-02 0.389D-03 0.297D+00
 Coeff-Com:  0.623D+00
 Coeff-En:   0.000D+00 0.000D+00 0.000D+00 0.000D+00 0.000D+00 0.160D+00
 Coeff-En:   0.840D+00
 Coeff:     -0.153D+00 0.210D+00 0.129D-01 0.764D-02 0.376D-03 0.292D+00
 Coeff:      0.630D+00
 Gap=     0.130 Goal=   None    Shift=    0.000
 Gap=     0.130 Goal=   None    Shift=    0.000
 RMSDP=1.11D-03 MaxDP=9.64D-02 DE=-1.97D-01 OVMax= 6.43D-02

 Cycle   8  Pass 1  IDiag  1:
 RMSU=  8.27D-04    CP:  6.25D-01  3.00D+00  6.75D-01  2.73D-01  7.76D-01
                    CP:  4.08D-01  7.71D-01
 E= -3531.43474149710     Delta-E=       -0.028949051976 Rises=F Damp=F
 DIIS: error= 3.93D-03 at cycle   8 NSaved=   8.
 NSaved= 8 IEnMin= 8 EnMin= -3531.43474149710     IErMin= 7 ErrMin= 3.29D-03
 ErrMax= 3.93D-03  0.00D+00 EMaxC= 1.00D-01 BMatC= 7.39D-02 BMatP= 1.62D-01
 IDIUse=3 WtCom= 9.67D-01 WtEn= 3.29D-02
 Coeff-Com: -0.837D-01 0.110D+00-0.154D-01 0.692D-02-0.168D-01 0.127D+00
 Coeff-Com:  0.440D+00 0.432D+00
 Coeff-En:   0.000D+00 0.000D+00 0.000D+00 0.000D+00 0.000D+00 0.000D+00
 Coeff-En:   0.233D+00 0.767D+00
 Coeff:     -0.809D-01 0.106D+00-0.149D-01 0.669D-02-0.163D-01 0.123D+00
 Coeff:      0.433D+00 0.443D+00
 Gap=     0.135 Goal=   None    Shift=    0.000
 Gap=     0.115 Goal=   None    Shift=    0.000
 RMSDP=4.56D-04 MaxDP=3.88D-02 DE=-2.89D-02 OVMax= 2.33D-02

 Cycle   9  Pass 1  IDiag  1:
 RMSU=  3.36D-04    CP:  6.25D-01  3.00D+00  6.63D-01  2.78D-01  7.70D-01
                    CP:  4.50D-01  8.43D-01  7.05D-01
 E= -3531.44448436253     Delta-E=       -0.009742865426 Rises=F Damp=F
 DIIS: error= 2.97D-03 at cycle   9 NSaved=   9.
 NSaved= 9 IEnMin= 9 EnMin= -3531.44448436253     IErMin= 9 ErrMin= 2.97D-03
 ErrMax= 2.97D-03  0.00D+00 EMaxC= 1.00D-01 BMatC= 2.29D-02 BMatP= 7.39D-02
 IDIUse=3 WtCom= 9.70D-01 WtEn= 2.97D-02
 Coeff-Com: -0.321D-01 0.508D-01-0.665D-02 0.149D-02 0.142D-01-0.579D-01
 Coeff-Com:  0.125D-01 0.161D+00 0.856D+00
 Coeff-En:   0.000D+00 0.000D+00 0.000D+00 0.000D+00 0.000D+00 0.000D+00
 Coeff-En:   0.000D+00 0.000D+00 0.100D+01
 Coeff:     -0.312D-01 0.493D-01-0.646D-02 0.144D-02 0.138D-01-0.562D-01
 Coeff:      0.121D-01 0.157D+00 0.860D+00
 Gap=     0.138 Goal=   None    Shift=    0.000
 Gap=     0.111 Goal=   None    Shift=    0.000
 RMSDP=3.90D-04 MaxDP=1.05D-01 DE=-9.74D-03 OVMax= 1.62D-02

 Cycle  10  Pass 1  IDiag  1:
 RMSU=  2.67D-04    CP:  6.28D-01  3.00D+00  6.47D-01  2.90D-01  7.77D-01
                    CP:  4.41D-01  9.07D-01  7.47D-01  1.07D+00
 E= -3531.44825438608     Delta-E=       -0.003770023559 Rises=F Damp=F
 DIIS: error= 4.01D-04 at cycle  10 NSaved=  10.
 NSaved=10 IEnMin=10 EnMin= -3531.44825438608     IErMin=10 ErrMin= 4.01D-04
 ErrMax= 4.01D-04  0.00D+00 EMaxC= 1.00D-01 BMatC= 2.25D-03 BMatP= 2.29D-02
 IDIUse=3 WtCom= 9.96D-01 WtEn= 4.01D-03
 Coeff-Com:  0.254D-02-0.464D-03-0.310D-02-0.990D-04 0.162D-01-0.627D-01
 Coeff-Com: -0.804D-01 0.608D-02 0.584D+00 0.538D+00
 Coeff-En:   0.000D+00 0.000D+00 0.000D+00 0.000D+00 0.000D+00 0.000D+00
 Coeff-En:   0.000D+00 0.000D+00 0.311D-01 0.969D+00
 Coeff:      0.253D-02-0.462D-03-0.309D-02-0.986D-04 0.161D-01-0.624D-01
 Coeff:     -0.800D-01 0.605D-02 0.582D+00 0.539D+00
 Gap=     0.135 Goal=   None    Shift=    0.000
 Gap=     0.107 Goal=   None    Shift=    0.000
 RMSDP=1.45D-04 MaxDP=2.25D-02 DE=-3.77D-03 OVMax= 1.01D-02

 Cycle  11  Pass 1  IDiag  1:
 RMSU=  1.15D-04    CP:  6.28D-01  3.00D+00  6.43D-01  2.92D-01  7.76D-01
                    CP:  4.52D-01  9.00D-01  7.99D-01  1.22D+00  8.56D-01
 E= -3531.44877657474     Delta-E=       -0.000522188657 Rises=F Damp=F
 DIIS: error= 1.48D-04 at cycle  11 NSaved=  11.
 NSaved=11 IEnMin=11 EnMin= -3531.44877657474     IErMin=11 ErrMin= 1.48D-04
 ErrMax= 1.48D-04  0.00D+00 EMaxC= 1.00D-01 BMatC= 2.22D-04 BMatP= 2.25D-03
 IDIUse=3 WtCom= 9.99D-01 WtEn= 1.48D-03
 Coeff-Com:  0.257D-02-0.123D-02-0.819D-03-0.125D-03 0.344D-02-0.203D-01
 Coeff-Com: -0.203D-01-0.125D-02 0.167D+00 0.256D+00 0.615D+00
 Coeff-En:   0.000D+00 0.000D+00 0.000D+00 0.000D+00 0.000D+00 0.000D+00
 Coeff-En:   0.000D+00 0.000D+00 0.000D+00 0.268D-01 0.973D+00
 Coeff:      0.257D-02-0.123D-02-0.818D-03-0.125D-03 0.343D-02-0.202D-01
 Coeff:     -0.202D-01-0.125D-02 0.167D+00 0.256D+00 0.616D+00
 Gap=     0.136 Goal=   None    Shift=    0.000
 Gap=     0.109 Goal=   None    Shift=    0.000
 RMSDP=4.93D-05 MaxDP=5.52D-03 DE=-5.22D-04 OVMax= 2.35D-03

 Cycle  12  Pass 1  IDiag  1:
 RMSU=  3.53D-05    CP:  6.28D-01  3.00D+00  6.44D-01  2.91D-01  7.76D-01
                    CP:  4.47D-01  9.09D-01  7.92D-01  1.22D+00  8.25D-01
                    CP:  8.26D-01
 E= -3531.44882830124     Delta-E=       -0.000051726496 Rises=F Damp=F
 DIIS: error= 5.68D-05 at cycle  12 NSaved=  12.
 NSaved=12 IEnMin=12 EnMin= -3531.44882830124     IErMin=12 ErrMin= 5.68D-05
 ErrMax= 5.68D-05  0.00D+00 EMaxC= 1.00D-01 BMatC= 3.67D-05 BMatP= 2.22D-04
 IDIUse=1 WtCom= 1.00D+00 WtEn= 0.00D+00
 Coeff-Com:  0.163D-02-0.124D-02-0.426D-03-0.222D-04-0.804D-04-0.321D-02
 Coeff-Com:  0.208D-02 0.199D-02 0.208D-01 0.742D-01 0.350D+00 0.554D+00
 Coeff:      0.163D-02-0.124D-02-0.426D-03-0.222D-04-0.804D-04-0.321D-02
 Coeff:      0.208D-02 0.199D-02 0.208D-01 0.742D-01 0.350D+00 0.554D+00
 Gap=     0.136 Goal=   None    Shift=    0.000
 Gap=     0.109 Goal=   None    Shift=    0.000
 RMSDP=1.77D-05 MaxDP=1.48D-03 DE=-5.17D-05 OVMax= 1.33D-03

 Cycle  13  Pass 1  IDiag  1:
 RMSU=  1.53D-05    CP:  6.28D-01  3.00D+00  6.45D-01  2.91D-01  7.77D-01
                    CP:  4.47D-01  9.10D-01  7.94D-01  1.22D+00  8.28D-01
                    CP:  8.26D-01  7.93D-01
 E= -3531.44883822534     Delta-E=       -0.000009924100 Rises=F Damp=F
 DIIS: error= 1.95D-05 at cycle  13 NSaved=  13.
 NSaved=13 IEnMin=13 EnMin= -3531.44883822534     IErMin=13 ErrMin= 1.95D-05
 ErrMax= 1.95D-05  0.00D+00 EMaxC= 1.00D-01 BMatC= 4.26D-06 BMatP= 3.67D-05
 IDIUse=1 WtCom= 1.00D+00 WtEn= 0.00D+00
 Coeff-Com:  0.639D-03-0.600D-03-0.162D-03-0.104D-04-0.275D-03 0.245D-03
 Coeff-Com:  0.279D-02 0.927D-03-0.970D-02 0.331D-02 0.705D-01 0.238D+00
 Coeff-Com:  0.694D+00
 Coeff:      0.639D-03-0.600D-03-0.162D-03-0.104D-04-0.275D-03 0.245D-03
 Coeff:      0.279D-02 0.927D-03-0.970D-02 0.331D-02 0.705D-01 0.238D+00
 Coeff:      0.694D+00
 Gap=     0.136 Goal=   None    Shift=    0.000
 Gap=     0.109 Goal=   None    Shift=    0.000
 RMSDP=8.44D-06 MaxDP=6.61D-04 DE=-9.92D-06 OVMax= 5.19D-04

 Cycle  14  Pass 1  IDiag  1:
 RMSU=  7.15D-06    CP:  6.28D-01  3.00D+00  6.45D-01  2.91D-01  7.78D-01
                    CP:  4.47D-01  9.10D-01  7.96D-01  1.22D+00  8.31D-01
                    CP:  8.35D-01  8.67D-01  1.04D+00
 E= -3531.44883972642     Delta-E=       -0.000001501087 Rises=F Damp=F
 DIIS: error= 1.42D-05 at cycle  14 NSaved=  14.
 NSaved=14 IEnMin=14 EnMin= -3531.44883972642     IErMin=14 ErrMin= 1.42D-05
 ErrMax= 1.42D-05  0.00D+00 EMaxC= 1.00D-01 BMatC= 1.02D-06 BMatP= 4.26D-06
 IDIUse=1 WtCom= 1.00D+00 WtEn= 0.00D+00
 Coeff-Com: -0.144D-03 0.861D-04 0.809D-04 0.960D-06-0.598D-04 0.662D-03
 Coeff-Com:  0.956D-04-0.583D-03-0.873D-02-0.180D-01-0.665D-01-0.437D-01
 Coeff-Com:  0.363D+00 0.774D+00
 Coeff:     -0.144D-03 0.861D-04 0.809D-04 0.960D-06-0.598D-04 0.662D-03
 Coeff:      0.956D-04-0.583D-03-0.873D-02-0.180D-01-0.665D-01-0.437D-01
 Coeff:      0.363D+00 0.774D+00
 Gap=     0.136 Goal=   None    Shift=    0.000
 Gap=     0.109 Goal=   None    Shift=    0.000
 RMSDP=5.70D-06 MaxDP=4.73D-04 DE=-1.50D-06 OVMax= 3.92D-04

 Cycle  15  Pass 1  IDiag  1:
 RMSU=  4.13D-06    CP:  6.28D-01  3.00D+00  6.45D-01  2.91D-01  7.78D-01
                    CP:  4.47D-01  9.10D-01  7.97D-01  1.22D+00  8.32D-01
                    CP:  8.32D-01  8.96D-01  1.23D+00  1.19D+00
 E= -3531.44884029613     Delta-E=       -0.000000569702 Rises=F Damp=F
 DIIS: error= 8.68D-06 at cycle  15 NSaved=  15.
 NSaved=15 IEnMin=15 EnMin= -3531.44884029613     IErMin=15 ErrMin= 8.68D-06
 ErrMax= 8.68D-06  0.00D+00 EMaxC= 1.00D-01 BMatC= 2.27D-07 BMatP= 1.02D-06
 IDIUse=1 WtCom= 1.00D+00 WtEn= 0.00D+00
 Coeff-Com: -0.166D-03 0.117D-03 0.735D-04 0.296D-05-0.248D-05 0.297D-03
 Coeff-Com: -0.391D-03-0.367D-03-0.164D-02-0.759D-02-0.376D-01-0.577D-01
 Coeff-Com:  0.208D-01 0.316D+00 0.769D+00
 Coeff:     -0.166D-03 0.117D-03 0.735D-04 0.296D-05-0.248D-05 0.297D-03
 Coeff:     -0.391D-03-0.367D-03-0.164D-02-0.759D-02-0.376D-01-0.577D-01
 Coeff:      0.208D-01 0.316D+00 0.769D+00
 Gap=     0.136 Goal=   None    Shift=    0.000
 Gap=     0.109 Goal=   None    Shift=    0.000
 RMSDP=3.11D-06 MaxDP=2.99D-04 DE=-5.70D-07 OVMax= 1.75D-04

 Cycle  16  Pass 1  IDiag  1:
 RMSU=  2.14D-06    CP:  6.28D-01  3.00D+00  6.45D-01  2.91D-01  7.78D-01
                    CP:  4.46D-01  9.10D-01  7.97D-01  1.22D+00  8.32D-01
                    CP:  8.31D-01  9.17D-01  1.30D+00  1.35D+00  1.28D+00
 E= -3531.44884043066     Delta-E=       -0.000000134538 Rises=F Damp=F
 DIIS: error= 6.02D-06 at cycle  16 NSaved=  16.
 NSaved=16 IEnMin=16 EnMin= -3531.44884043066     IErMin=16 ErrMin= 6.02D-06
 ErrMax= 6.02D-06  0.00D+00 EMaxC= 1.00D-01 BMatC= 9.64D-08 BMatP= 2.27D-07
 IDIUse=1 WtCom= 1.00D+00 WtEn= 0.00D+00
 Coeff-Com: -0.140D-03 0.178D-03 0.482D-04 0.492D-06-0.219D-04 0.140D-04
 Coeff-Com: -0.227D-03 0.501D-05 0.156D-02 0.104D-02-0.950D-03-0.209D-01
 Coeff-Com: -0.113D+00-0.636D-01 0.481D+00 0.715D+00
 Coeff:     -0.140D-03 0.178D-03 0.482D-04 0.492D-06-0.219D-04 0.140D-04
 Coeff:     -0.227D-03 0.501D-05 0.156D-02 0.104D-02-0.950D-03-0.209D-01
 Coeff:     -0.113D+00-0.636D-01 0.481D+00 0.715D+00
 Gap=     0.136 Goal=   None    Shift=    0.000
 Gap=     0.109 Goal=   None    Shift=    0.000
 RMSDP=2.26D-06 MaxDP=1.72D-04 DE=-1.35D-07 OVMax= 1.71D-04

 Cycle  17  Pass 1  IDiag  1:
 RMSU=  1.15D-06    CP:  6.28D-01  3.00D+00  6.45D-01  2.91D-01  7.78D-01
                    CP:  4.46D-01  9.10D-01  7.97D-01  1.22D+00  8.32D-01
                    CP:  8.33D-01  9.28D-01  1.36D+00  1.49D+00  1.58D+00
                    CP:  1.14D+00
 E= -3531.44884048979     Delta-E=       -0.000000059122 Rises=F Damp=F
 DIIS: error= 3.32D-06 at cycle  17 NSaved=  17.
 NSaved=17 IEnMin=17 EnMin= -3531.44884048979     IErMin=17 ErrMin= 3.32D-06
 ErrMax= 3.32D-06  0.00D+00 EMaxC= 1.00D-01 BMatC= 2.46D-08 BMatP= 9.64D-08
 IDIUse=1 WtCom= 1.00D+00 WtEn= 0.00D+00
 Coeff-Com: -0.241D-04 0.476D-04 0.660D-05-0.879D-06-0.878D-05-0.517D-04
 Coeff-Com: -0.566D-04 0.132D-03 0.107D-02 0.228D-02 0.807D-02 0.272D-02
 Coeff-Com: -0.681D-01-0.114D+00 0.624D-01 0.420D+00 0.685D+00
 Coeff:     -0.241D-04 0.476D-04 0.660D-05-0.879D-06-0.878D-05-0.517D-04
 Coeff:     -0.566D-04 0.132D-03 0.107D-02 0.228D-02 0.807D-02 0.272D-02
 Coeff:     -0.681D-01-0.114D+00 0.624D-01 0.420D+00 0.685D+00
 Gap=     0.136 Goal=   None    Shift=    0.000
 Gap=     0.109 Goal=   None    Shift=    0.000
 RMSDP=1.29D-06 MaxDP=1.30D-04 DE=-5.91D-08 OVMax= 7.88D-05

 Cycle  18  Pass 1  IDiag  1:
 RMSU=  5.98D-07    CP:  6.28D-01  3.00D+00  6.45D-01  2.91D-01  7.78D-01
                    CP:  4.46D-01  9.10D-01  7.97D-01  1.22D+00  8.32D-01
                    CP:  8.34D-01  9.34D-01  1.38D+00  1.57D+00  1.72D+00
                    CP:  1.41D+00  1.21D+00
 E= -3531.44884050712     Delta-E=       -0.000000017334 Rises=F Damp=F
 DIIS: error= 1.37D-06 at cycle  18 NSaved=  18.
 NSaved=18 IEnMin=18 EnMin= -3531.44884050712     IErMin=18 ErrMin= 1.37D-06
 ErrMax= 1.37D-06  0.00D+00 EMaxC= 1.00D-01 BMatC= 5.23D-09 BMatP= 2.46D-08
 IDIUse=1 WtCom= 1.00D+00 WtEn= 0.00D+00
 Coeff-Com:  0.262D-04-0.256D-04-0.948D-05-0.125D-06 0.547D-05-0.309D-04
 Coeff-Com:  0.123D-04 0.642D-04 0.210D-03 0.856D-03 0.412D-02 0.612D-02
 Coeff-Com: -0.760D-02-0.425D-01-0.904D-01 0.379D-01 0.346D+00 0.746D+00
 Coeff:      0.262D-04-0.256D-04-0.948D-05-0.125D-06 0.547D-05-0.309D-04
 Coeff:      0.123D-04 0.642D-04 0.210D-03 0.856D-03 0.412D-02 0.612D-02
 Coeff:     -0.760D-02-0.425D-01-0.904D-01 0.379D-01 0.346D+00 0.746D+00
 Gap=     0.136 Goal=   None    Shift=    0.000
 Gap=     0.109 Goal=   None    Shift=    0.000
 RMSDP=7.56D-07 MaxDP=7.66D-05 DE=-1.73D-08 OVMax= 5.03D-05

 Cycle  19  Pass 1  IDiag  1:
 RMSU=  2.77D-07    CP:  6.28D-01  3.00D+00  6.45D-01  2.91D-01  7.78D-01
                    CP:  4.46D-01  9.10D-01  7.97D-01  1.22D+00  8.32D-01
                    CP:  8.34D-01  9.36D-01  1.39D+00  1.61D+00  1.81D+00
                    CP:  1.55D+00  1.50D+00  1.25D+00
 E= -3531.44884051209     Delta-E=       -0.000000004967 Rises=F Damp=F
 DIIS: error= 8.50D-07 at cycle  19 NSaved=  19.
 NSaved=19 IEnMin=19 EnMin= -3531.44884051209     IErMin=19 ErrMin= 8.50D-07
 ErrMax= 8.50D-07  0.00D+00 EMaxC= 1.00D-01 BMatC= 1.58D-09 BMatP= 5.23D-09
 IDIUse=1 WtCom= 1.00D+00 WtEn= 0.00D+00
 Coeff-Com:  0.201D-04-0.254D-04-0.680D-05-0.160D-06 0.926D-05-0.123D-04
 Coeff-Com:  0.968D-05-0.339D-04-0.178D-03-0.348D-03-0.894D-03 0.132D-02
 Coeff-Com:  0.180D-01 0.175D-01-0.553D-01-0.121D+00-0.633D-01 0.295D+00
 Coeff-Com:  0.910D+00
 Coeff:      0.201D-04-0.254D-04-0.680D-05-0.160D-06 0.926D-05-0.123D-04
 Coeff:      0.968D-05-0.339D-04-0.178D-03-0.348D-03-0.894D-03 0.132D-02
 Coeff:      0.180D-01 0.175D-01-0.553D-01-0.121D+00-0.633D-01 0.295D+00
 Coeff:      0.910D+00
 Gap=     0.136 Goal=   None    Shift=    0.000
 Gap=     0.109 Goal=   None    Shift=    0.000
 RMSDP=5.34D-07 MaxDP=3.52D-05 DE=-4.97D-09 OVMax= 3.22D-05

 Cycle  20  Pass 1  IDiag  1:
 RMSU=  1.68D-07    CP:  6.28D-01  3.00D+00  6.45D-01  2.91D-01  7.78D-01
                    CP:  4.46D-01  9.10D-01  7.97D-01  1.22D+00  8.32D-01
                    CP:  8.34D-01  9.38D-01  1.40D+00  1.63D+00  1.87D+00
                    CP:  1.65D+00  1.72D+00  1.55D+00  1.31D+00
 E= -3531.44884051372     Delta-E=       -0.000000001632 Rises=F Damp=F
 DIIS: error= 4.42D-07 at cycle  20 NSaved=  20.
 NSaved=20 IEnMin=20 EnMin= -3531.44884051372     IErMin=20 ErrMin= 4.42D-07
 ErrMax= 4.42D-07  0.00D+00 EMaxC= 1.00D-01 BMatC= 7.22D-10 BMatP= 1.58D-09
 IDIUse=1 WtCom= 1.00D+00 WtEn= 0.00D+00
 Coeff-Com:  0.329D-05-0.478D-05-0.941D-06-0.623D-07 0.260D-05-0.527D-06
 Coeff-Com:  0.745D-05-0.373D-04-0.144D-03-0.412D-03-0.153D-02-0.724D-03
 Coeff-Com:  0.130D-01 0.215D-01-0.977D-02-0.859D-01-0.129D+00-0.306D-01
 Coeff-Com:  0.578D+00 0.646D+00
 Coeff:      0.329D-05-0.478D-05-0.941D-06-0.623D-07 0.260D-05-0.527D-06
 Coeff:      0.745D-05-0.373D-04-0.144D-03-0.412D-03-0.153D-02-0.724D-03
 Coeff:      0.130D-01 0.215D-01-0.977D-02-0.859D-01-0.129D+00-0.306D-01
 Coeff:      0.578D+00 0.646D+00
 Gap=     0.136 Goal=   None    Shift=    0.000
 Gap=     0.109 Goal=   None    Shift=    0.000
 RMSDP=2.49D-07 MaxDP=2.28D-05 DE=-1.63D-09 OVMax= 1.82D-05

 Cycle  21  Pass 1  IDiag  1:
 Restarting incremental Fock formation.
 E= -3531.44884051429     Delta-E=       -0.000000000573 Rises=F Damp=F
 DIIS: error= 2.02D-07 at cycle  21 NSaved=  20.
 NSaved=20 IEnMin=20 EnMin= -3531.44884051429     IErMin=20 ErrMin= 2.02D-07
 ErrMax= 2.02D-07  0.00D+00 EMaxC= 1.00D-01 BMatC= 1.62D-10 BMatP= 7.22D-10
 IDIUse=1 WtCom= 1.00D+00 WtEn= 0.00D+00
 Coeff-Com: -0.277D-05 0.269D-05 0.117D-05-0.191D-05 0.320D-05 0.297D-05
 Coeff-Com: -0.382D-05 0.173D-05-0.491D-04-0.338D-03-0.517D-03 0.111D-02
 Coeff-Com:  0.503D-02 0.103D-01-0.672D-02-0.456D-01-0.105D+00 0.884D-02
 Coeff-Com:  0.337D+00 0.796D+00
 Coeff:     -0.277D-05 0.269D-05 0.117D-05-0.191D-05 0.320D-05 0.297D-05
 Coeff:     -0.382D-05 0.173D-05-0.491D-04-0.338D-03-0.517D-03 0.111D-02
 Coeff:      0.503D-02 0.103D-01-0.672D-02-0.456D-01-0.105D+00 0.884D-02
 Coeff:      0.337D+00 0.796D+00
 Gap=     0.136 Goal=   None    Shift=    0.000
 Gap=     0.109 Goal=   None    Shift=    0.000
[...]
    12   Atom        0.003313     -0.000449     -0.002864
    13   Atom       -0.001622     -0.003686      0.005308
    14   Atom        0.040615     -0.121184      0.080569
    15   Atom        0.124537     -0.079902     -0.044635
    16   Atom       -0.051784     -0.097905      0.149689
    17   Atom        0.003680      0.002486     -0.006166
    18   Atom       -0.089538      0.028972      0.060566
    19   Atom       -0.144511      0.270232     -0.125721
    20   Atom        0.021505     -0.010854     -0.010651
    21   Atom        0.002263     -0.003270      0.001007
    22   Atom        0.002088     -0.002306      0.000217
    23   Atom        0.003066     -0.001740     -0.001327
    24   Atom        0.006555     -0.002497     -0.004058
    25   Atom        0.003799     -0.006649      0.002850
    26   Atom        0.002359      0.003836     -0.006195
    27   Atom        0.002617     -0.001826     -0.000791
    28   Atom        0.005555     -0.002904     -0.002652
    29   Atom        0.002074     -0.004008      0.001934
    30   Atom        0.002888     -0.002407     -0.000480
    31   Atom        0.007313     -0.003879     -0.003434
    32   Atom        0.004829      0.000450     -0.005279
    33   Atom        0.002189      0.009711     -0.011900
    34   Atom        0.000297      0.003014     -0.003311
    35   Atom       -0.002420     -0.000406      0.002826
    36   Atom       -0.009306     -0.004354      0.013660
    37   Atom       -0.001457     -0.005672      0.007130
    38   Atom       -0.002460      0.010097     -0.007637
    39   Atom       -0.000101      0.002479     -0.002378
    40   Atom       -0.003567      0.008729     -0.005162
    41   Atom       -0.006029      0.011386     -0.005357
    42   Atom       -0.002420      0.007218     -0.004798
    43   Atom       -0.001854      0.004805     -0.002951
    44   Atom       -0.003603      0.007026     -0.003423
    45   Atom       -0.005406      0.009149     -0.003743
    46   Atom       -0.010132      0.019046     -0.008915
 --------------------------------------------------------
                        XY            XZ            YZ
 --------------------------------------------------------
     1   Atom        0.002568      0.002722      0.001863
     2   Atom        0.001717      0.009297      0.002344
     3   Atom       -0.007797      0.012476     -0.001242
     4   Atom       -0.001704      0.008225     -0.002223
     5   Atom       -0.003117      0.002341      0.002068
     6   Atom        0.001488      0.003845     -0.000067
     7   Atom        0.029016     -0.003246      0.006685
     8   Atom        0.014377     -0.013112     -0.010052
     9   Atom        0.001906     -0.005901     -0.000894
    10   Atom       -0.000366     -0.005700      0.000282
    11   Atom       -0.007891     -0.010751      0.006214
    12   Atom       -0.012502     -0.012596      0.011543
    13   Atom       -0.005979     -0.009751      0.008580
    14   Atom       -0.001608     -0.110672     -0.132949
    15   Atom        0.001896     -0.117626      0.003868
    16   Atom       -0.051074      0.170649     -0.081388
    17   Atom       -0.009801     -0.004132      0.003470
    18   Atom        0.062190      0.035569      0.204218
    19   Atom       -0.000613     -0.018024     -0.104638
    20   Atom       -0.021067      0.022479     -0.012085
    21   Atom       -0.003010      0.006406     -0.002788
    22   Atom       -0.000418      0.003194     -0.000176
    23   Atom        0.001266      0.001960      0.000434
    24   Atom        0.004184      0.000677      0.000238
    25   Atom        0.009288     -0.014039     -0.009821
    26   Atom        0.009794     -0.003719     -0.001644
    27   Atom        0.002521     -0.003643     -0.001691
    28   Atom        0.002290     -0.002484     -0.000586
    29   Atom        0.000014     -0.005931     -0.000097
    30   Atom       -0.000099     -0.003272      0.000052
    31   Atom       -0.003117     -0.002411      0.000946
    32   Atom       -0.007617     -0.001069      0.000530
    33   Atom       -0.017344     -0.004975      0.004492
    34   Atom       -0.005873     -0.002662      0.003005
    35   Atom       -0.003557     -0.004622      0.006252
    36   Atom       -0.009555     -0.014790      0.019651
    37   Atom       -0.002471     -0.008156      0.003902
    38   Atom        0.012123     -0.005127     -0.005949
    39   Atom        0.003984     -0.003211      0.003383
    40   Atom        0.005329     -0.000697     -0.001554
    41   Atom        0.001111     -0.000173     -0.002248
    42   Atom        0.005724      0.000395      0.001129
    43   Atom        0.003425     -0.000715     -0.001651
    44   Atom        0.000049      0.000026     -0.000344
    45   Atom       -0.000162      0.000201     -0.004495
    46   Atom       -0.001815      0.000231     -0.000552
 --------------------------------------------------------


 ---------------------------------------------------------------------------------
              Anisotropic Spin Dipole Couplings in Principal Axis System
 ---------------------------------------------------------------------------------

       Atom             a.u.   MegaHertz   Gauss  10(-4) cm-1        Axes

              Baa    -0.0069    -0.921    -0.328    -0.307 -0.0422 -0.5847  0.8102
     1 C(13)  Bbb    -0.0040    -0.535    -0.191    -0.178 -0.2564  0.7901  0.5568
              Bcc     0.0108     1.455     0.519     0.485  0.9656  0.1843  0.1832
 
              Baa    -0.0150    -2.014    -0.719    -0.672  0.0385  0.9448 -0.3253
     2 C(13)  Bbb    -0.0093    -1.244    -0.444    -0.415 -0.2913  0.3220  0.9008
              Bcc     0.0243     3.258     1.163     1.087  0.9559  0.0601  0.2876
 
              Baa    -0.0140    -1.877    -0.670    -0.626  0.3962  0.7850 -0.4762
     3 C(13)  Bbb    -0.0098    -1.311    -0.468    -0.437 -0.2025  0.5806  0.7886
              Bcc     0.0238     3.188     1.137     1.063  0.8955 -0.2160  0.3890
 
              Baa    -0.0067    -0.905    -0.323    -0.302 -0.3516  0.6593  0.6646
     4 C(13)  Bbb    -0.0051    -0.684    -0.244    -0.228  0.4823  0.7360 -0.4751
              Bcc     0.0118     1.589     0.567     0.530  0.8024 -0.1535  0.5767
 
              Baa    -0.0058    -0.775    -0.277    -0.259  0.3631  0.7427 -0.5626
     5 C(13)  Bbb     0.0000     0.004     0.002     0.001  0.0028  0.6030  0.7978
              Bcc     0.0057     0.771     0.275     0.257  0.9318 -0.2912  0.2168
 
              Baa    -0.0042    -0.561    -0.200    -0.187 -0.3677  0.6811  0.6332
     6 C(13)  Bbb    -0.0029    -0.385    -0.138    -0.129  0.1853  0.7209 -0.6678
              Bcc     0.0071     0.947     0.338     0.316  0.9113  0.1282  0.3913
 
              Baa    -0.0366    -4.905    -1.750    -1.636  0.1980 -0.4446  0.8736
     7 C(13)  Bbb    -0.0191    -2.561    -0.914    -0.854 -0.3493  0.8007  0.4867
              Bcc     0.0556     7.466     2.664     2.490  0.9158  0.4015 -0.0033
 
              Baa    -0.0147    -1.968    -0.702    -0.656  0.3070  0.3371  0.8900
     8 C(13)  Bbb    -0.0118    -1.589    -0.567    -0.530 -0.6269  0.7753 -0.0775
              Bcc     0.0265     3.557     1.269     1.187  0.7161  0.5341 -0.4493
 
              Baa    -0.0054    -0.722    -0.258    -0.241  0.4850 -0.0710  0.8716
     9 C(13)  Bbb    -0.0037    -0.494    -0.176    -0.165 -0.1124  0.9834  0.1427
              Bcc     0.0091     1.216     0.434     0.406  0.8672  0.1672 -0.4690
 
              Baa    -0.0044    -0.597    -0.213    -0.199  0.5463 -0.0394  0.8366
    10 C(13)  Bbb    -0.0036    -0.477    -0.170    -0.159  0.0549  0.9984  0.0111
              Bcc     0.0080     1.074     0.383     0.358  0.8358 -0.0399 -0.5477
 
              Baa    -0.0105    -1.404    -0.501    -0.468  0.2895 -0.4730  0.8321
    11 C(13)  Bbb    -0.0081    -1.086    -0.387    -0.362  0.5672  0.7850  0.2489
              Bcc     0.0186     2.490     0.888     0.830  0.7710 -0.3999 -0.4956
 
              Baa    -0.0135    -1.817    -0.649    -0.606  0.2672 -0.4809  0.8350
    12 C(13)  Bbb    -0.0111    -1.493    -0.533    -0.498  0.7214  0.6744  0.1576
              Bcc     0.0247     3.310     1.181     1.104  0.6389 -0.5603 -0.5272
 
              Baa    -0.0089    -1.192    -0.425    -0.398  0.1320  0.8858 -0.4448
    13 C(13)  Bbb    -0.0085    -1.140    -0.407    -0.380  0.8466  0.1327  0.5155
              Bcc     0.0174     2.332     0.832     0.778 -0.5157  0.4446  0.7324
 
              Baa    -0.1993    14.422     5.146     4.811  0.2320  0.8399  0.4907
    14 O(17)  Bbb    -0.0078     0.565     0.202     0.188  0.8203 -0.4400  0.3653
              Bcc     0.2071   -14.987    -5.348    -4.999 -0.5227 -0.3178  0.7910
 
              Baa    -0.1057    -1.829    -0.653    -0.610  0.4499 -0.1650  0.8777
    15 Fe(57) Bbb    -0.0792    -1.371    -0.489    -0.457  0.0755  0.9863  0.1467
              Bcc     0.1848     3.200     1.142     1.067  0.8899 -0.0003 -0.4562
 
              Baa    -0.1498    -7.839    -2.797    -2.615  0.8762  0.1383 -0.4617
    16 Cl(35) Bbb    -0.1223    -6.399    -2.283    -2.134 -0.0001  0.9580  0.2868
              Bcc     0.2720    14.238     5.080     4.749  0.4820 -0.2512  0.8394
 
              Baa    -0.0077    -1.030    -0.368    -0.344  0.3812  0.0525  0.9230
    17 C(13)  Bbb    -0.0066    -0.892    -0.318    -0.297  0.5959  0.7494 -0.2887
              Bcc     0.0143     1.921     0.686     0.641  0.7068 -0.6601 -0.2544
 
              Baa    -0.1670    -8.741    -3.119    -2.916 -0.3079  0.7315 -0.6083
    18 Cl(35) Bbb    -0.0959    -5.018    -1.790    -1.674  0.9321  0.1036 -0.3472
              Bcc     0.2629    13.759     4.910     4.590  0.1909  0.6739  0.7137
 
              Baa    -0.1661    -8.694    -3.102    -2.900  0.6332  0.1813  0.7524
    19 Cl(35) Bbb    -0.1301    -6.810    -2.430    -2.271  0.7739 -0.1590 -0.6130
              Bcc     0.2962    15.503     5.532     5.171  0.0085  0.9705 -0.2410
 
              Baa    -0.0230   -12.259    -4.374    -4.089 -0.1540  0.5504  0.8205
    20 H(1)   Bbb    -0.0209   -11.128    -3.971    -3.712  0.5663  0.7297 -0.3832
              Bcc     0.0438    23.386     8.345     7.801  0.8097 -0.4056  0.4241
 
              Baa    -0.0048    -2.567    -0.916    -0.856 -0.6162  0.1827  0.7661
    21 H(1)   Bbb    -0.0046    -2.449    -0.874    -0.817  0.3529  0.9337  0.0611
              Bcc     0.0094     5.015     1.790     1.673  0.7041 -0.3080  0.6398
 
              Baa    -0.0024    -1.275    -0.455    -0.425  0.3174  0.8895 -0.3286
    22 H(1)   Bbb    -0.0021    -1.131    -0.404    -0.377 -0.5103  0.4523  0.7315
              Bcc     0.0045     2.406     0.858     0.803  0.7993 -0.0644  0.5975
 
              Baa    -0.0021    -1.124    -0.401    -0.375 -0.4092  0.5747  0.7088
    23 H(1)   Bbb    -0.0020    -1.074    -0.383    -0.358  0.0409  0.7875 -0.6149
              Bcc     0.0041     2.198     0.784     0.733  0.9115  0.2226  0.3458
 
              Baa    -0.0041    -2.213    -0.790    -0.738 -0.3473  0.8126  0.4681
    24 H(1)   Bbb    -0.0041    -2.181    -0.778    -0.727  0.1229 -0.4554  0.8818
              Bcc     0.0082     4.393     1.568     1.466  0.9297  0.3637  0.0583
 
              Baa    -0.0129    -6.859    -2.447    -2.288 -0.1094  0.8838  0.4549
    25 H(1)   Bbb    -0.0106    -5.646    -2.014    -1.883  0.7513 -0.2261  0.6200
              Bcc     0.0234    12.504     4.462     4.171  0.6508  0.4096 -0.6393
 
              Baa    -0.0084    -1.127    -0.402    -0.376  0.5894 -0.3758  0.7150
    26 C(13)  Bbb    -0.0052    -0.702    -0.250    -0.234 -0.4379  0.5952  0.6738
              Bcc     0.0136     1.829     0.653     0.610  0.6788  0.7103 -0.1863
 
              Baa    -0.0031    -1.675    -0.598    -0.559  0.3663  0.3867  0.8464
    27 H(1)   Bbb    -0.0030    -1.578    -0.563    -0.526 -0.4975  0.8500 -0.1731
              Bcc     0.0061     3.254     1.161     1.085  0.7863  0.3577 -0.5037
 
              Baa    -0.0035    -1.864    -0.665    -0.622 -0.3000  0.9227 -0.2423
    28 H(1)   Bbb    -0.0033    -1.776    -0.634    -0.592  0.1828  0.3049  0.9347
              Bcc     0.0068     3.640     1.299     1.214  0.9363  0.2361 -0.2601
 
              Baa    -0.0040    -2.156    -0.769    -0.719  0.3239  0.8845  0.3359
    29 H(1)   Bbb    -0.0039    -2.079    -0.742    -0.693  0.6239 -0.4666  0.6270
              Bcc     0.0079     4.235     1.511     1.412  0.7112  0.0065 -0.7029
 
              Baa    -0.0025    -1.322    -0.472    -0.441  0.5195  0.0972  0.8489
    30 H(1)   Bbb    -0.0024    -1.285    -0.459    -0.429 -0.0376  0.9952 -0.0909
              Bcc     0.0049     2.607     0.930     0.869  0.8536 -0.0153 -0.5207
 
              Baa    -0.0048    -2.561    -0.914    -0.854  0.1705  0.9251 -0.3393
    31 H(1)   Bbb    -0.0039    -2.064    -0.736    -0.688  0.2773  0.2853  0.9174
              Bcc     0.0087     4.625     1.650     1.543  0.9455 -0.2506 -0.2079
 
              Baa    -0.0055    -2.960    -1.056    -0.987  0.4302  0.4786  0.7654
    32 H(1)   Bbb    -0.0051    -2.723    -0.972    -0.908  0.4234  0.6419 -0.6393
              Bcc     0.0107     5.683     2.028     1.896  0.7973 -0.5991 -0.0734
 
              Baa    -0.0137    -7.292    -2.602    -2.432  0.4733  0.1857  0.8611
    33 H(1)   Bbb    -0.0112    -5.988    -2.137    -1.997  0.6240  0.6193 -0.4766
              Bcc     0.0249    13.280     4.739     4.430 -0.6217  0.7629  0.1772
 
              Baa    -0.0047    -2.525    -0.901    -0.842  0.5511  0.0963  0.8288
    34 H(1)   Bbb    -0.0043    -2.272    -0.811    -0.758  0.5844  0.6644 -0.4658
              Bcc     0.0090     4.797     1.712     1.600 -0.5956  0.7411  0.3099
 
              Baa    -0.0052    -2.800    -0.999    -0.934 -0.0900  0.7619 -0.6414
    35 H(1)   Bbb    -0.0051    -2.713    -0.968    -0.905  0.9050  0.3315  0.2668
              Bcc     0.0103     5.514     1.967     1.839 -0.4159  0.5564  0.7193
 
              Baa    -0.0170    -9.054    -3.231    -3.020  0.1085  0.8597 -0.4991
    36 H(1)   Bbb    -0.0165    -8.825    -3.149    -2.944  0.9185  0.1054  0.3812
              Bcc     0.0335    17.880     6.380     5.964 -0.3803  0.4998  0.7782
 
              Baa    -0.0068    -3.641    -1.299    -1.214  0.3017  0.9492 -0.0891
    37 H(1)   Bbb    -0.0064    -3.393    -1.211    -1.132  0.8099 -0.2059  0.5492
              Bcc     0.0132     7.034     2.510     2.346 -0.5030  0.2379  0.8309
 
              Baa    -0.0111     0.801     0.286     0.267  0.7006 -0.2095  0.6821
    38 O(17)  Bbb    -0.0086     0.622     0.222     0.208 -0.4990  0.5395  0.6782
              Bcc     0.0197    -1.424    -0.508    -0.475  0.5100  0.8155 -0.2734
 
              Baa    -0.0073     0.529     0.189     0.176  0.5616 -0.4650  0.6844
    39 O(17)  Bbb     0.0018    -0.130    -0.047    -0.044 -0.6500  0.2638  0.7127
              Bcc     0.0055    -0.399    -0.142    -0.133  0.5119  0.8451  0.1540
 
              Baa    -0.0056    -0.752    -0.268    -0.251  0.8774 -0.2843  0.3865
    40 C(13)  Bbb    -0.0053    -0.711    -0.254    -0.237 -0.3301  0.2269  0.9163
              Bcc     0.0109     1.462     0.522     0.488  0.3482  0.9315 -0.1053
 
              Baa    -0.0061    -0.819    -0.292    -0.273  0.9963 -0.0548  0.0656
    41 C(13)  Bbb    -0.0057    -0.758    -0.271    -0.253 -0.0577  0.1343  0.9893
              Bcc     0.0118     1.577     0.563     0.526  0.0631  0.9894 -0.1306
 
              Baa    -0.0051    -2.742    -0.978    -0.915  0.8037 -0.4115  0.4298
    42 H(1)   Bbb    -0.0048    -2.581    -0.921    -0.861 -0.4216  0.1159  0.8994
              Bcc     0.0100     5.323     1.900     1.776  0.4199  0.9040  0.0803
 
              Baa    -0.0033    -1.767    -0.631    -0.589  0.7948 -0.2204  0.5654
    43 H(1)   Bbb    -0.0033    -1.750    -0.624    -0.584 -0.4709  0.3636  0.8037
              Bcc     0.0066     3.517     1.255     1.173  0.3828  0.9051 -0.1852
 
              Baa    -0.0036    -1.925    -0.687    -0.642  0.9877 -0.0096 -0.1563
    44 H(1)   Bbb    -0.0034    -1.830    -0.653    -0.610  0.1565  0.0317  0.9872
              Bcc     0.0070     3.755     1.340     1.253  0.0045  0.9995 -0.0328
 
              Baa    -0.0055    -2.920    -1.042    -0.974  0.9118 -0.1114 -0.3953
    45 H(1)   Bbb    -0.0051    -2.716    -0.969    -0.906  0.4104  0.2787  0.8682
              Bcc     0.0106     5.637     2.011     1.880 -0.0135  0.9539 -0.2999
 
              Baa    -0.0103    -5.481    -1.956    -1.828  0.9878  0.0585 -0.1440
    46 H(1)   Bbb    -0.0089    -4.747    -1.694    -1.584  0.1426  0.0288  0.9894
              Bcc     0.0192    10.228     3.650     3.412 -0.0620  0.9979 -0.0201
 

 ---------------------------------------------------------------------------------

 No NMR shielding tensors so no spin-rotation constants.
 Leave Link  601 at Sun Jun 20 19:56:24 2021, MaxMem=  2147483648 cpu:              75.0 elap:               4.8
 (Enter /SFS/product/gaussian/g16.a03/x86_64/avx/g16/l9999.exe)
 1\1\GINC-KTCHPCPX251\SP\UB3LYP\Jul-CC-pVDZ\C17H22Cl3Fe1O3(6)\KWANEU\20
 -Jun-2021\0\\#p ub3lyp jul-cc-pvdz pop=cm5 scrf=(pcm,solvent=water) gu
 ess=read geom=allcheck\\title\\0,6\C,0,2.7887838488,0.5397288389,1.311
 8005176\C,0,1.6489454619,-0.2207623143,0.9739253957\C,0,1.1913690223,-
 1.2046213152,1.8777821738\C,0,1.8640240493,-1.4324759327,3.0738541578\
 C,0,2.9960600758,-0.6740800712,3.3972851849\C,0,3.449880209,0.31497728
 56,2.5184667544\C,0,0.8828205211,0.0145809364,-0.2649607884\C,0,1.3259
 466844,0.9932773202,-1.3613721598\C,0,2.6783299836,0.7015250443,-2.030
 5704761\C,0,2.6397446963,-0.6682489154,-2.7254182063\C,0,2.2714242555,
 -1.7569499301,-1.7560896085\C,0,1.1773994915,-2.5467698787,-1.77062626
 25\C,0,0.0670098427,-2.460984953,-2.7802463207\O,0,-0.2750874585,-0.45
 61659371,-0.3815060101\Fe,0,-2.1326724937,-0.483139472,0.320928349\Cl,
 0,-3.4163210572,0.0778462833,-1.3700949437\C,0,0.9985512097,-3.6291091
 367,-0.7397032749\Cl,0,-2.135912018,0.9692170641,1.9744389581\Cl,0,-2.
 4775859276,-2.551289729,1.0114764962\H,0,0.307716293,-1.7916256174,1.6
 364818702\H,0,1.5000299916,-2.1967884802,3.7609054672\H,0,3.519521606,
 -0.8492440705,4.3386299545\H,0,4.319795918,0.9199932237,2.7758066764\H
 ,0,3.1429272561,1.3335418988,0.6594501975\H,0,0.5311424455,0.911247531
 7,-2.1138890088\C,0,1.2410148686,2.4368173395,-0.8274206046\H,0,2.8804
 449957,1.4997807361,-2.7578596582\H,0,3.4945796982,0.7373285515,-1.300
 3745719\H,0,1.93753194,-0.6303240159,-3.5687497316\H,0,3.634071917,-0.
 8731686588,-3.1532060993\H,0,3.0138056409,-1.9467396033,-0.9745951433\
 H,0,1.8145175144,-3.6396217338,-0.006057753\H,0,0.0400304535,-3.514710
 5798,-0.2104836103\H,0,0.9646856978,-4.6158095912,-1.22942749\H,0,-0.0
 613490713,-3.4345835039,-3.2790979229\H,0,-0.8885550832,-2.2411448111,
 -2.2801266459\H,0,0.228466065,-1.7016923843,-3.5525584835\O,0,-0.03447
 2531,2.8171137891,-0.7160379319\O,0,2.2000194201,3.1316523357,-0.56637
 92968\C,0,-0.2798148614,4.1606822643,-0.1963498444\C,0,-1.7731493281,4
 .4038308924,-0.2465264227\H,0,0.1169131002,4.2000683429,0.8269817872\H
 ,0,0.2865853113,4.8706050592,-0.8132102478\H,0,-1.9861272754,5.4087115
 613,0.1458002404\H,0,-2.1469745881,4.3478180296,-1.2779858535\H,0,-2.3
 113257912,3.6674403068,0.3638811906\\Version=ES64L-G16RevA.03\State=6-
 A\HF=-3531.4697989\S2=8.761422\S2-1=0.\S2A=8.75004\RMSD=7.165e-09\Dipo
 le=3.8261585,0.2568052,-0.3782993\Quadrupole=-10.4092682,3.1301338,7.2
 791345,-9.4164635,5.5793126,-1.0998639\PG=C01 [X(C17H22Cl3Fe1O3)]\\@


 I SUPPOSE A BABY LLAMA HAS A MMAMA AND A PPOPA.
     -- RICHARD AMOUR
 Job cpu time:       0 days  4 hours  4 minutes 15.6 seconds.
 Elapsed time:       0 days  0 hours 15 minutes 20.3 seconds.
 File lengths (MBytes):  RWF=    671 Int=      0 D2E=      0 Chk=     57 Scr=      1
 Normal termination of Gaussian 16 at Sun Jun 20 19:56:25 2021.
