 Entering Gaussian System, Link 0=g16
 Input=prenyl-first_betaine_grid-CC_160_CO_160-b3lyp_d3bj-juldz-gas.gjf
 Output=prenyl-first_betaine_grid-CC_160_CO_160-b3lyp_d3bj-juldz-gas.out
 Initial command:
 /SFS/product/gaussian/g16.a03/x86_64/avx/g16/l1.exe "/scratch/kwaneu.2874210.bmbhpcps002/Gau-48806.inp" -scrdir="/scratch/kwaneu.2874210.bmbhpcps002/"
 Entering Link 1 = /SFS/product/gaussian/g16.a03/x86_64/avx/g16/l1.exe PID=     48807.
  
 Copyright (c) 1988,1990,1992,1993,1995,1998,2003,2009,2016,
            Gaussian, Inc.  All Rights Reserved.
  
 This is part of the Gaussian(R) 16 program.  It is based on
 the Gaussian(R) 09 system (copyright 2009, Gaussian, Inc.),
 the Gaussian(R) 03 system (copyright 2003, Gaussian, Inc.),
 the Gaussian(R) 98 system (copyright 1998, Gaussian, Inc.),
 the Gaussian(R) 94 system (copyright 1995, Gaussian, Inc.),
 the Gaussian 92(TM) system (copyright 1992, Gaussian, Inc.),
 the Gaussian 90(TM) system (copyright 1990, Gaussian, Inc.),
 the Gaussian 88(TM) system (copyright 1988, Gaussian, Inc.),
 the Gaussian 86(TM) system (copyright 1986, Carnegie Mellon
 University), and the Gaussian 82(TM) system (copyright 1983,
 Carnegie Mellon University). Gaussian is a federally registered
 trademark of Gaussian, Inc.
  
 This software contains proprietary and confidential information,
 including trade secrets, belonging to Gaussian, Inc.
  
 This software is provided under written license and may be
 used, copied, transmitted, or stored only in accord with that
 written license.
  
 The following legend is applicable only to US Government
 contracts under FAR:
  
                    RESTRICTED RIGHTS LEGEND
  
 Use, reproduction and disclosure by the US Government is
 subject to restrictions as set forth in subparagraphs (a)
 and (c) of the Commercial Computer Software - Restricted
 Rights clause in FAR 52.227-19.
  
 Gaussian, Inc.
 340 Quinnipiac St., Bldg. 40, Wallingford CT 06492
  
  
 ---------------------------------------------------------------
 Warning -- This program may not be used in any manner that
 competes with the business of Gaussian, Inc. or will provide
 assistance to any competitor of Gaussian, Inc.  The licensee
 of this program is prohibited from giving any competitor of
 Gaussian, Inc. access to this program.  By using this program,
 the user acknowledges that Gaussian, Inc. is engaged in the
 business of creating and licensing software in the field of
 computational chemistry and represents and warrants to the
 licensee that it is not a competitor of Gaussian, Inc. and that
 it will not use this program in any manner prohibited above.
 ---------------------------------------------------------------
  

 Cite this work as:
 Gaussian 16, Revision A.03,
 M. J. Frisch, G. W. Trucks, H. B. Schlegel, G. E. Scuseria, 
 M. A. Robb, J. R. Cheeseman, G. Scalmani, V. Barone, 
 G. A. Petersson, H. Nakatsuji, X. Li, M. Caricato, A. V. Marenich, 
 J. Bloino, B. G. Janesko, R. Gomperts, B. Mennucci, H. P. Hratchian, 
 J. V. Ortiz, A. F. Izmaylov, J. L. Sonnenberg, D. Williams-Young, 
 F. Ding, F. Lipparini, F. Egidi, J. Goings, B. Peng, A. Petrone, 
 T. Henderson, D. Ranasinghe, V. G. Zakrzewski, J. Gao, N. Rega, 
 G. Zheng, W. Liang, M. Hada, M. Ehara, K. Toyota, R. Fukuda, 
 J. Hasegawa, M. Ishida, T. Nakajima, Y. Honda, O. Kitao, H. Nakai, 
 T. Vreven, K. Throssell, J. A. Montgomery, Jr., J. E. Peralta, 
 F. Ogliaro, M. J. Bearpark, J. J. Heyd, E. N. Brothers, K. N. Kudin, 
 V. N. Staroverov, T. A. Keith, R. Kobayashi, J. Normand, 
 K. Raghavachari, A. P. Rendell, J. C. Burant, S. S. Iyengar, 
 J. Tomasi, M. Cossi, J. M. Millam, M. Klene, C. Adamo, R. Cammi, 
 J. W. Ochterski, R. L. Martin, K. Morokuma, O. Farkas, 
 J. B. Foresman, and D. J. Fox, Gaussian, Inc., Wallingford CT, 2016.
 
 ******************************************
 Gaussian 16:  ES64L-G16RevA.03 25-Dec-2016
                19-Jun-2021 
 ******************************************
 %chk=checkpoint.chk
 %nprocshared=16
 Will use up to   16 processors via shared memory.
 %mem=16GB
 -----------------------------------------------------------
 #p opt=modredundant freq=noraman ub3lyp jul-cc-pvdz pop=cm5
 -----------------------------------------------------------
 1/18=120,19=15,26=3,38=1/1,3;
 2/9=110,12=2,17=6,18=5,40=1/2;
 3/5=16,7=50,11=2,25=1,30=1,71=1,74=-5,116=2/1,2,3;
 4//1;
 5/5=2,38=5/2;
 6/7=2,8=2,9=2,10=2,28=1,79=1/1;
 7//1,2,3,16;
 1/18=20,19=15,26=3/3(2);
 2/9=110/2;
 99//99;
 2/9=110/2;
 3/5=16,7=50,11=2,25=1,30=1,71=1,74=-5,116=2/1,2,3;
 4/5=5,16=3,69=1/1;
 5/5=2,38=5/2;
 7//1,2,3,16;
 1/18=20,19=15,26=3/3(-5);
 2/9=110/2;
 6/7=2,8=2,9=2,10=2,19=2,28=1,79=1/1;
 99/9=1/99;
 Leave Link    1 at Sat Jun 19 21:34:02 2021, MaxMem=  2147483648 cpu:               2.3 elap:               0.2
 (Enter /SFS/product/gaussian/g16.a03/x86_64/avx/g16/l101.exe)
 -----
 title
 -----
 Symbolic Z-matrix:
 Charge =  0 Multiplicity = 6
 6                     1.64125  -2.14553   1.74325 
 6                     1.14483  -1.03226   1.05326 
 6                     1.23776   0.23031   1.65918 
 6                     1.78213   0.36775   2.93391 
 6                     2.26654  -0.7494    3.61623 
 6                     2.20267  -2.00424   3.01335 
 6                     0.57994  -1.16709  -0.34 
 6                     1.50552  -0.6943   -1.51201 
 6                     2.07561  -2.01389  -2.06925 
 6                     0.9022   -3.01392  -2.04475 
 6                     0.05184  -2.59498  -0.83217 
 6                    -1.36432  -1.99318  -1.01532 
 6                    -1.89755  -1.80133  -2.41784 
 8                    -0.80936  -0.59297  -0.47549 
 26                   -1.92648   0.90609   0.26828 
 17                   -3.77288   0.8772   -0.92439 
 6                    -2.39522  -2.52414  -0.04066 
 17                   -0.88192   2.8097   -0.01528 
 17                   -2.36472   0.45648   2.3635 
 1                     0.88951   1.11546   1.13681 
 1                     1.82709   1.35166   3.3915 
 1                     2.69352  -0.64086   4.60919 
 1                     2.58518  -2.88001   3.53002 
 1                     1.60963  -3.13219   1.29236 
 1                     0.86466  -0.2055   -2.25167 
 6                     2.62252   0.27349  -1.13675 
 1                     2.50624  -1.88127  -3.06682 
 1                     2.88576  -2.34177  -1.40972 
 1                     0.329    -2.95958  -2.97493 
 1                     1.25215  -4.04656  -1.9518 
 1                     0.04363  -3.34789  -0.04385 
 1                    -2.63829  -3.55562  -0.32642 
 1                    -2.0106   -2.53172   0.98266 
 1                    -3.31881  -1.93952  -0.07016 
 1                    -2.15205  -2.78224  -2.83794 
 1                    -2.8031   -1.19095  -2.40151 
 1                    -1.16979  -1.32362  -3.07785 
 8                     2.25061   1.54703  -1.34372 
 8                     3.71144  -0.06563  -0.72521 
 6                     3.23128   2.5649   -1.00981 
 6                     2.67874   3.90128  -1.46483 
 1                     3.40144   2.53283   0.07111 
 1                     4.17403   2.31154  -1.50379 
 1                     3.38996   4.69632  -1.2149 
 1                     2.51984   3.90996  -2.54793 
 1                     1.72555   4.11759  -0.97428 
 
 The following ModRedundant input section has been read:
 B       7      11 F                                                           
 B      12      14 F                                                           
 
 ITRead=  0  0  0  0  0  0  0  0  0  0  0  0  0  0  0  0  0  0  0  0
 ITRead=  0  0  0  0  0  0  0  0  0  0  0  0  0  0  0  0  0  0  0  0
 ITRead=  0  0  0  0  0  0
 MicOpt= -1 -1 -1 -1 -1 -1 -1 -1 -1 -1 -1 -1 -1 -1 -1 -1 -1 -1 -1 -1
 MicOpt= -1 -1 -1 -1 -1 -1 -1 -1 -1 -1 -1 -1 -1 -1 -1 -1 -1 -1 -1 -1
 MicOpt= -1 -1 -1 -1 -1 -1
 NAtoms=     46 NQM=       46 NQMF=       0 NMMI=      0 NMMIF=      0
                NMic=       0 NMicF=      0.
                    Isotopes and Nuclear Properties:
 (Nuclear quadrupole moments (NQMom) in fm**2, nuclear magnetic moments (NMagM)
  in nuclear magnetons)

  Atom         1           2           3           4           5           6           7           8           9          10
 IAtWgt=          12          12          12          12          12          12          12          12          12          12
 AtmWgt=  12.0000000  12.0000000  12.0000000  12.0000000  12.0000000  12.0000000  12.0000000  12.0000000  12.0000000  12.0000000
 NucSpn=           0           0           0           0           0           0           0           0           0           0
 AtZEff=  -0.0000000  -0.0000000  -0.0000000  -0.0000000  -0.0000000  -0.0000000  -0.0000000  -0.0000000  -0.0000000  -0.0000000
 NQMom=    0.0000000   0.0000000   0.0000000   0.0000000   0.0000000   0.0000000   0.0000000   0.0000000   0.0000000   0.0000000
 NMagM=    0.0000000   0.0000000   0.0000000   0.0000000   0.0000000   0.0000000   0.0000000   0.0000000   0.0000000   0.0000000
 AtZNuc=   6.0000000   6.0000000   6.0000000   6.0000000   6.0000000   6.0000000   6.0000000   6.0000000   6.0000000   6.0000000

  Atom        11          12          13          14          15          16          17          18          19          20
 IAtWgt=          12          12          12          16          56          35          12          35          35           1
 AtmWgt=  12.0000000  12.0000000  12.0000000  15.9949146  55.9349393  34.9688527  12.0000000  34.9688527  34.9688527   1.0078250
 NucSpn=           0           0           0           0           0           3           0           3           3           1
 AtZEff=  -0.0000000  -0.0000000  -0.0000000  -0.0000000  -0.0000000  -0.0000000  -0.0000000  -0.0000000  -0.0000000  -0.0000000
 NQMom=    0.0000000   0.0000000   0.0000000   0.0000000   0.0000000  -8.1650000   0.0000000  -8.1650000  -8.1650000   0.0000000
 NMagM=    0.0000000   0.0000000   0.0000000   0.0000000   0.0000000   0.8218740   0.0000000   0.8218740   0.8218740   2.7928460
 AtZNuc=   6.0000000   6.0000000   6.0000000   8.0000000  26.0000000  17.0000000   6.0000000  17.0000000  17.0000000   1.0000000

  Atom        21          22          23          24          25          26          27          28          29          30
 IAtWgt=           1           1           1           1           1          12           1           1           1           1
 AtmWgt=   1.0078250   1.0078250   1.0078250   1.0078250   1.0078250  12.0000000   1.0078250   1.0078250   1.0078250   1.0078250
 NucSpn=           1           1           1           1           1           0           1           1           1           1
 AtZEff=  -0.0000000  -0.0000000  -0.0000000  -0.0000000  -0.0000000  -0.0000000  -0.0000000  -0.0000000  -0.0000000  -0.0000000
 NQMom=    0.0000000   0.0000000   0.0000000   0.0000000   0.0000000   0.0000000   0.0000000   0.0000000   0.0000000   0.0000000
 NMagM=    2.7928460   2.7928460   2.7928460   2.7928460   2.7928460   0.0000000   2.7928460   2.7928460   2.7928460   2.7928460
 AtZNuc=   1.0000000   1.0000000   1.0000000   1.0000000   1.0000000   6.0000000   1.0000000   1.0000000   1.0000000   1.0000000

  Atom        31          32          33          34          35          36          37          38          39          40
 IAtWgt=           1           1           1           1           1           1           1          16          16          12
 AtmWgt=   1.0078250   1.0078250   1.0078250   1.0078250   1.0078250   1.0078250   1.0078250  15.9949146  15.9949146  12.0000000
 NucSpn=           1           1           1           1           1           1           1           0           0           0
 AtZEff=  -0.0000000  -0.0000000  -0.0000000  -0.0000000  -0.0000000  -0.0000000  -0.0000000  -0.0000000  -0.0000000  -0.0000000
 NQMom=    0.0000000   0.0000000   0.0000000   0.0000000   0.0000000   0.0000000   0.0000000   0.0000000   0.0000000   0.0000000
 NMagM=    2.7928460   2.7928460   2.7928460   2.7928460   2.7928460   2.7928460   2.7928460   0.0000000   0.0000000   0.0000000
 AtZNuc=   1.0000000   1.0000000   1.0000000   1.0000000   1.0000000   1.0000000   1.0000000   8.0000000   8.0000000   6.0000000

  Atom        41          42          43          44          45          46
 IAtWgt=          12           1           1           1           1           1
 AtmWgt=  12.0000000   1.0078250   1.0078250   1.0078250   1.0078250   1.0078250
 NucSpn=           0           1           1           1           1           1
 AtZEff=  -0.0000000  -0.0000000  -0.0000000  -0.0000000  -0.0000000  -0.0000000
 NQMom=    0.0000000   0.0000000   0.0000000   0.0000000   0.0000000   0.0000000
 NMagM=    0.0000000   2.7928460   2.7928460   2.7928460   2.7928460   2.7928460
 AtZNuc=   6.0000000   1.0000000   1.0000000   1.0000000   1.0000000   1.0000000
 Leave Link  101 at Sat Jun 19 21:34:02 2021, MaxMem=  2147483648 cpu:               6.1 elap:               0.5
 (Enter /SFS/product/gaussian/g16.a03/x86_64/avx/g16/l103.exe)

 GradGradGradGradGradGradGradGradGradGradGradGradGradGradGradGradGradGrad
 Berny optimization.
 Initialization pass.
                           ----------------------------
                           !    Initial Parameters    !
                           ! (Angstroms and Degrees)  !
 --------------------------                            --------------------------
 ! Name  Definition              Value          Derivative Info.                !
 --------------------------------------------------------------------------------
 ! R1    R(1,2)                  1.4007         estimate D2E/DX2                !
 ! R2    R(1,6)                  1.3958         estimate D2E/DX2                !
 ! R3    R(1,24)                 1.0853         estimate D2E/DX2                !
 ! R4    R(2,3)                  1.4035         estimate D2E/DX2                !
 ! R5    R(2,7)                  1.5094         estimate D2E/DX2                !
 ! R6    R(3,4)                  1.3929         estimate D2E/DX2                !
 ! R7    R(3,20)                 1.0852         estimate D2E/DX2                !
 ! R8    R(4,5)                  1.3958         estimate D2E/DX2                !
 ! R9    R(4,21)                 1.086          estimate D2E/DX2                !
 ! R10   R(5,6)                  1.3936         estimate D2E/DX2                !
 ! R11   R(5,22)                 1.0863         estimate D2E/DX2                !
 ! R12   R(6,23)                 1.0864         estimate D2E/DX2                !
 ! R13   R(7,8)                  1.5665         estimate D2E/DX2                !
 ! R14   R(7,11)                 1.6            Frozen                          !
 ! R15   R(7,14)                 1.5093         estimate D2E/DX2                !
 ! R16   R(8,9)                  1.5417         estimate D2E/DX2                !
 ! R17   R(8,25)                 1.0939         estimate D2E/DX2                !
 ! R18   R(8,26)                 1.5248         estimate D2E/DX2                !
 ! R19   R(9,10)                 1.5419         estimate D2E/DX2                !
 ! R20   R(9,27)                 1.0946         estimate D2E/DX2                !
 ! R21   R(9,28)                 1.0949         estimate D2E/DX2                !
 ! R22   R(10,11)                1.5391         estimate D2E/DX2                !
 ! R23   R(10,29)                1.094          estimate D2E/DX2                !
 ! R24   R(10,30)                1.0943         estimate D2E/DX2                !
 ! R25   R(11,12)                1.5496         estimate D2E/DX2                !
 ! R26   R(11,31)                1.0901         estimate D2E/DX2                !
 ! R27   R(12,13)                1.5127         estimate D2E/DX2                !
 ! R28   R(12,14)                1.6            Frozen                          !
 ! R29   R(12,17)                1.5148         estimate D2E/DX2                !
 ! R30   R(13,35)                1.097          estimate D2E/DX2                !
 ! R31   R(13,36)                1.0922         estimate D2E/DX2                !
 ! R32   R(13,37)                1.0925         estimate D2E/DX2                !
 ! R33   R(14,15)                2.012          estimate D2E/DX2                !
 ! R34   R(15,16)                2.1983         estimate D2E/DX2                !
 ! R35   R(15,18)                2.1898         estimate D2E/DX2                !
 ! R36   R(15,19)                2.1873         estimate D2E/DX2                !
 ! R37   R(17,32)                1.0976         estimate D2E/DX2                !
 ! R38   R(17,33)                1.0932         estimate D2E/DX2                !
 ! R39   R(17,34)                1.0935         estimate D2E/DX2                !
 ! R40   R(26,38)                1.3428         estimate D2E/DX2                !
 ! R41   R(26,39)                1.2125         estimate D2E/DX2                !
 ! R42   R(38,40)                1.4523         estimate D2E/DX2                !
 ! R43   R(40,41)                1.516          estimate D2E/DX2                !
 ! R44   R(40,42)                1.0947         estimate D2E/DX2                !
 ! R45   R(40,43)                1.0941         estimate D2E/DX2                !
 ! R46   R(41,44)                1.0956         estimate D2E/DX2                !
 ! R47   R(41,45)                1.0947         estimate D2E/DX2                !
 ! R48   R(41,46)                1.0936         estimate D2E/DX2                !
 ! A1    A(2,1,6)              120.687          estimate D2E/DX2                !
 ! A2    A(2,1,24)             120.5041         estimate D2E/DX2                !
 ! A3    A(6,1,24)             118.8024         estimate D2E/DX2                !
 ! A4    A(1,2,3)              118.6104         estimate D2E/DX2                !
 ! A5    A(1,2,7)              121.0869         estimate D2E/DX2                !
 ! A6    A(3,2,7)              120.2394         estimate D2E/DX2                !
 ! A7    A(2,3,4)              120.646          estimate D2E/DX2                !
 ! A8    A(2,3,20)             120.311          estimate D2E/DX2                !
 ! A9    A(4,3,20)             119.0423         estimate D2E/DX2                !
 ! A10   A(3,4,5)              120.2671         estimate D2E/DX2                !
 ! A11   A(3,4,21)             119.4174         estimate D2E/DX2                !
 ! A12   A(5,4,21)             120.3155         estimate D2E/DX2                !
 ! A13   A(4,5,6)              119.5566         estimate D2E/DX2                !
 ! A14   A(4,5,22)             120.2169         estimate D2E/DX2                !
 ! A15   A(6,5,22)             120.2262         estimate D2E/DX2                !
 ! A16   A(1,6,5)              120.213          estimate D2E/DX2                !
 ! A17   A(1,6,23)             119.5228         estimate D2E/DX2                !
 ! A18   A(5,6,23)             120.2636         estimate D2E/DX2                !
 ! A19   A(2,7,8)              116.2642         estimate D2E/DX2                !
 ! A20   A(2,7,11)             119.1542         estimate D2E/DX2                !
 ! A21   A(2,7,14)             113.1632         estimate D2E/DX2                !
 ! A22   A(8,7,11)             103.5461         estimate D2E/DX2                !
 ! A23   A(8,7,14)             111.2171         estimate D2E/DX2                !
 ! A24   A(11,7,14)             90.4606         estimate D2E/DX2                !
 ! A25   A(7,8,9)              103.331          estimate D2E/DX2                !
 ! A26   A(7,8,25)             107.1334         estimate D2E/DX2                !
 ! A27   A(7,8,26)             116.1207         estimate D2E/DX2                !
 ! A28   A(9,8,25)             110.7742         estimate D2E/DX2                !
 ! A29   A(9,8,26)             111.1813         estimate D2E/DX2                !
 ! A30   A(25,8,26)            108.1765         estimate D2E/DX2                !
 ! A31   A(8,9,10)             105.5439         estimate D2E/DX2                !
 ! A32   A(8,9,27)             111.7877         estimate D2E/DX2                !
 ! A33   A(8,9,28)             108.1922         estimate D2E/DX2                !
 ! A34   A(10,9,27)            113.1065         estimate D2E/DX2                !
 ! A35   A(10,9,28)            111.0575         estimate D2E/DX2                !
 ! A36   A(27,9,28)            107.106          estimate D2E/DX2                !
 ! A37   A(9,10,11)            104.8582         estimate D2E/DX2                !
 ! A38   A(9,10,29)            110.672          estimate D2E/DX2                !
 ! A39   A(9,10,30)            111.7157         estimate D2E/DX2                !
 ! A40   A(11,10,29)           111.5229         estimate D2E/DX2                !
 ! A41   A(11,10,30)           111.5076         estimate D2E/DX2                !
 ! A42   A(29,10,30)           106.6585         estimate D2E/DX2                !
 ! A43   A(7,11,10)            107.6319         estimate D2E/DX2                !
 ! A44   A(7,11,12)             89.508          estimate D2E/DX2                !
 ! A45   A(7,11,31)            113.3537         estimate D2E/DX2                !
 ! A46   A(10,11,12)           121.1651         estimate D2E/DX2                !
 ! A47   A(10,11,31)           112.6989         estimate D2E/DX2                !
 ! A48   A(12,11,31)           110.2921         estimate D2E/DX2                !
 ! A49   A(11,12,13)           118.7507         estimate D2E/DX2                !
 ! A50   A(11,12,14)            89.0261         estimate D2E/DX2                !
 ! A51   A(11,12,17)           114.191          estimate D2E/DX2                !
 ! A52   A(13,12,14)           108.9108         estimate D2E/DX2                !
 ! A53   A(13,12,17)           113.6483         estimate D2E/DX2                !
 ! A54   A(14,12,17)           109.0082         estimate D2E/DX2                !
 ! A55   A(12,13,35)           108.8704         estimate D2E/DX2                !
 ! A56   A(12,13,36)           110.4438         estimate D2E/DX2                !
 ! A57   A(12,13,37)           112.3825         estimate D2E/DX2                !
 ! A58   A(35,13,36)           108.2454         estimate D2E/DX2                !
 ! A59   A(35,13,37)           108.3116         estimate D2E/DX2                !
 ! A60   A(36,13,37)           108.4818         estimate D2E/DX2                !
 ! A61   A(7,14,12)             90.9552         estimate D2E/DX2                !
 ! A62   A(7,14,15)            139.5765         estimate D2E/DX2                !
 ! A63   A(12,14,15)           125.7433         estimate D2E/DX2                !
 ! A64   A(14,15,16)           104.8327         estimate D2E/DX2                !
 ! A65   A(14,15,18)           109.57           estimate D2E/DX2                !
 ! A66   A(14,15,19)           108.1914         estimate D2E/DX2                !
 ! A67   A(16,15,18)           109.9882         estimate D2E/DX2                !
 ! A68   A(16,15,19)           110.4091         estimate D2E/DX2                !
 ! A69   A(18,15,19)           113.4722         estimate D2E/DX2                !
 ! A70   A(12,17,32)           108.2156         estimate D2E/DX2                !
 ! A71   A(12,17,33)           111.4238         estimate D2E/DX2                !
 ! A72   A(12,17,34)           111.7194         estimate D2E/DX2                !
 ! A73   A(32,17,33)           108.3671         estimate D2E/DX2                !
 ! A74   A(32,17,34)           107.9616         estimate D2E/DX2                !
 ! A75   A(33,17,34)           109.0336         estimate D2E/DX2                !
 ! A76   A(8,26,38)            111.1698         estimate D2E/DX2                !
 ! A77   A(8,26,39)            124.3262         estimate D2E/DX2                !
 ! A78   A(38,26,39)           124.4944         estimate D2E/DX2                !
 ! A79   A(26,38,40)           116.2481         estimate D2E/DX2                !
 ! A80   A(38,40,41)           107.6203         estimate D2E/DX2                !
 ! A81   A(38,40,42)           108.1462         estimate D2E/DX2                !
 ! A82   A(38,40,43)           108.4058         estimate D2E/DX2                !
 ! A83   A(41,40,42)           112.2616         estimate D2E/DX2                !
 ! A84   A(41,40,43)           112.5            estimate D2E/DX2                !
 ! A85   A(42,40,43)           107.764          estimate D2E/DX2                !
 ! A86   A(40,41,44)           109.5492         estimate D2E/DX2                !
 ! A87   A(40,41,45)           110.9064         estimate D2E/DX2                !
 ! A88   A(40,41,46)           110.9405         estimate D2E/DX2                !
 ! A89   A(44,41,45)           108.3101         estimate D2E/DX2                !
 ! A90   A(44,41,46)           108.6594         estimate D2E/DX2                !
 ! A91   A(45,41,46)           108.4039         estimate D2E/DX2                !
 ! D1    D(6,1,2,3)              0.7257         estimate D2E/DX2                !
 ! D2    D(6,1,2,7)            177.8395         estimate D2E/DX2                !
 ! D3    D(24,1,2,3)          -178.336          estimate D2E/DX2                !
 ! D4    D(24,1,2,7)            -1.2222         estimate D2E/DX2                !
 ! D5    D(2,1,6,5)              0.4936         estimate D2E/DX2                !
 ! D6    D(2,1,6,23)          -179.7816         estimate D2E/DX2                !
 ! D7    D(24,1,6,5)           179.5711         estimate D2E/DX2                !
 ! D8    D(24,1,6,23)           -0.7041         estimate D2E/DX2                !
 ! D9    D(1,2,3,4)             -1.5756         estimate D2E/DX2                !
 ! D10   D(1,2,3,20)           178.134          estimate D2E/DX2                !
 ! D11   D(7,2,3,4)           -178.7146         estimate D2E/DX2                !
 ! D12   D(7,2,3,20)             0.995          estimate D2E/DX2                !
 ! D13   D(1,2,7,8)           -102.8316         estimate D2E/DX2                !
 ! D14   D(1,2,7,11)            22.2223         estimate D2E/DX2                !
 ! D15   D(1,2,7,14)           126.6215         estimate D2E/DX2                !
 ! D16   D(3,2,7,8)             74.2355         estimate D2E/DX2                !
 ! D17   D(3,2,7,11)          -160.7106         estimate D2E/DX2                !
 ! D18   D(3,2,7,14)           -56.3114         estimate D2E/DX2                !
 ! D19   D(2,3,4,5)              1.2117         estimate D2E/DX2                !
 ! D20   D(2,3,4,21)          -178.8448         estimate D2E/DX2                !
 ! D21   D(20,3,4,5)          -178.5016         estimate D2E/DX2                !
 ! D22   D(20,3,4,21)            1.4419         estimate D2E/DX2                !
 ! D23   D(3,4,5,6)              0.0303         estimate D2E/DX2                !
 ! D24   D(3,4,5,22)           179.8248         estimate D2E/DX2                !
 ! D25   D(21,4,5,6)          -179.9127         estimate D2E/DX2                !
 ! D26   D(21,4,5,22)           -0.1181         estimate D2E/DX2                !
 ! D27   D(4,5,6,1)             -0.877          estimate D2E/DX2                !
 ! D28   D(4,5,6,23)           179.4003         estimate D2E/DX2                !
 ! D29   D(22,5,6,1)           179.3284         estimate D2E/DX2                !
 ! D30   D(22,5,6,23)           -0.3943         estimate D2E/DX2                !
 ! D31   D(2,7,8,9)            101.211          estimate D2E/DX2                !
 ! D32   D(2,7,8,25)          -141.7571         estimate D2E/DX2                !
 ! D33   D(2,7,8,26)           -20.778          estimate D2E/DX2                !
 ! D34   D(11,7,8,9)           -31.4514         estimate D2E/DX2                !
 ! D35   D(11,7,8,25)           85.5804         estimate D2E/DX2                !
 ! D36   D(11,7,8,26)         -153.4404         estimate D2E/DX2                !
 ! D37   D(14,7,8,9)          -127.3289         estimate D2E/DX2                !
 ! D38   D(14,7,8,25)          -10.2971         estimate D2E/DX2                !
 ! D39   D(14,7,8,26)          110.6821         estimate D2E/DX2                !
 ! D40   D(2,7,11,10)         -118.5033         estimate D2E/DX2                !
 ! D41   D(2,7,11,12)          118.7923         estimate D2E/DX2                !
 ! D42   D(2,7,11,31)            6.826          estimate D2E/DX2                !
 ! D43   D(8,7,11,10)           12.4621         estimate D2E/DX2                !
 ! D44   D(8,7,11,12)         -110.2424         estimate D2E/DX2                !
 ! D45   D(8,7,11,31)          137.7914         estimate D2E/DX2                !
 ! D46   D(14,7,11,10)         124.4374         estimate D2E/DX2                !
 ! D47   D(14,7,11,12)           1.7329         estimate D2E/DX2                !
 ! D48   D(14,7,11,31)        -110.2333         estimate D2E/DX2                !
 ! D49   D(2,7,14,12)         -123.9094         estimate D2E/DX2                !
 ! D50   D(2,7,14,15)           33.1003         estimate D2E/DX2                !
 ! D51   D(8,7,14,12)          103.0588         estimate D2E/DX2                !
 ! D52   D(8,7,14,15)          -99.9314         estimate D2E/DX2                !
 ! D53   D(11,7,14,12)          -1.6785         estimate D2E/DX2                !
 ! D54   D(11,7,14,15)         155.3313         estimate D2E/DX2                !
 ! D55   D(7,8,9,10)            39.9112         estimate D2E/DX2                !
 ! D56   D(7,8,9,27)           163.2686         estimate D2E/DX2                !
 ! D57   D(7,8,9,28)           -79.0343         estimate D2E/DX2                !
 ! D58   D(25,8,9,10)          -74.5262         estimate D2E/DX2                !
 ! D59   D(25,8,9,27)           48.8312         estimate D2E/DX2                !
 ! D60   D(25,8,9,28)          166.5283         estimate D2E/DX2                !
 ! D61   D(26,8,9,10)          165.1552         estimate D2E/DX2                !
 ! D62   D(26,8,9,27)          -71.4874         estimate D2E/DX2                !
 ! D63   D(26,8,9,28)           46.2098         estimate D2E/DX2                !
 ! D64   D(7,8,26,38)          -95.4094         estimate D2E/DX2                !
 ! D65   D(7,8,26,39)           85.6703         estimate D2E/DX2                !
 ! D66   D(9,8,26,38)          146.8533         estimate D2E/DX2                !
 ! D67   D(9,8,26,39)          -32.067          estimate D2E/DX2                !
 ! D68   D(25,8,26,38)          25.0106         estimate D2E/DX2                !
 ! D69   D(25,8,26,39)        -153.9097         estimate D2E/DX2                !
 ! D70   D(8,9,10,11)          -31.8799         estimate D2E/DX2                !
 ! D71   D(8,9,10,29)           88.5034         estimate D2E/DX2                !
 ! D72   D(8,9,10,30)         -152.8067         estimate D2E/DX2                !
 ! D73   D(27,9,10,11)        -154.3962         estimate D2E/DX2                !
 ! D74   D(27,9,10,29)         -34.0129         estimate D2E/DX2                !
 ! D75   D(27,9,10,30)          84.677          estimate D2E/DX2                !
 ! D76   D(28,9,10,11)          85.1425         estimate D2E/DX2                !
 ! D77   D(28,9,10,29)        -154.4741         estimate D2E/DX2                !
 ! D78   D(28,9,10,30)         -35.7842         estimate D2E/DX2                !
 ! D79   D(9,10,11,7)           11.4717         estimate D2E/DX2                !
 ! D80   D(9,10,11,12)         111.9399         estimate D2E/DX2                !
 ! D81   D(9,10,11,31)        -114.2475         estimate D2E/DX2                !
 ! D82   D(29,10,11,7)        -108.3454         estimate D2E/DX2                !
 ! D83   D(29,10,11,12)         -7.8771         estimate D2E/DX2                !
 ! D84   D(29,10,11,31)        125.9354         estimate D2E/DX2                !
 ! D85   D(30,10,11,7)         132.5357         estimate D2E/DX2                !
 ! D86   D(30,10,11,12)       -126.9961         estimate D2E/DX2                !
 ! D87   D(30,10,11,31)          6.8165         estimate D2E/DX2                !
 ! D88   D(7,11,12,13)         109.4896         estimate D2E/DX2                !
 ! D89   D(7,11,12,14)          -1.6349         estimate D2E/DX2                !
 ! D90   D(7,11,12,17)        -112.0901         estimate D2E/DX2                !
 ! D91   D(10,11,12,13)         -0.9247         estimate D2E/DX2                !
 ! D92   D(10,11,12,14)       -112.0493         estimate D2E/DX2                !
 ! D93   D(10,11,12,17)        137.4955         estimate D2E/DX2                !
 ! D94   D(31,11,12,13)       -135.7088         estimate D2E/DX2                !
 ! D95   D(31,11,12,14)        113.1667         estimate D2E/DX2                !
 ! D96   D(31,11,12,17)          2.7115         estimate D2E/DX2                !
 ! D97   D(11,12,13,35)         72.7836         estimate D2E/DX2                !
 ! D98   D(11,12,13,36)       -168.4968         estimate D2E/DX2                !
 ! D99   D(11,12,13,37)        -47.2058         estimate D2E/DX2                !
 ! D100  D(14,12,13,35)        172.424          estimate D2E/DX2                !
 ! D101  D(14,12,13,36)        -68.8564         estimate D2E/DX2                !
 ! D102  D(14,12,13,37)         52.4346         estimate D2E/DX2                !
 ! D103  D(17,12,13,35)        -65.8494         estimate D2E/DX2                !
 ! D104  D(17,12,13,36)         52.8702         estimate D2E/DX2                !
 ! D105  D(17,12,13,37)        174.1612         estimate D2E/DX2                !
 ! D106  D(11,12,14,7)           1.7333         estimate D2E/DX2                !
 ! D107  D(11,12,14,15)       -160.0848         estimate D2E/DX2                !
 ! D108  D(13,12,14,7)        -118.4451         estimate D2E/DX2                !
 ! D109  D(13,12,14,15)         79.7369         estimate D2E/DX2                !
 ! D110  D(17,12,14,7)         117.0499         estimate D2E/DX2                !
 ! D111  D(17,12,14,15)        -44.7682         estimate D2E/DX2                !
 ! D112  D(11,12,17,32)        -72.5449         estimate D2E/DX2                !
 ! D113  D(11,12,17,33)         46.4986         estimate D2E/DX2                !
 ! D114  D(11,12,17,34)        168.734          estimate D2E/DX2                !
 ! D115  D(13,12,17,32)         68.0213         estimate D2E/DX2                !
 ! D116  D(13,12,17,33)       -172.9352         estimate D2E/DX2                !
 ! D117  D(13,12,17,34)        -50.6998         estimate D2E/DX2                !
 ! D118  D(14,12,17,32)       -170.3063         estimate D2E/DX2                !
 ! D119  D(14,12,17,33)        -51.2627         estimate D2E/DX2                !
 ! D120  D(14,12,17,34)         70.9727         estimate D2E/DX2                !
 ! D121  D(7,14,15,16)         172.844          estimate D2E/DX2                !
 ! D122  D(7,14,15,18)          54.8466         estimate D2E/DX2                !
 ! D123  D(7,14,15,19)         -69.3328         estimate D2E/DX2                !
 ! D124  D(12,14,15,16)        -35.9164         estimate D2E/DX2                !
 ! D125  D(12,14,15,18)       -153.9138         estimate D2E/DX2                !
 ! D126  D(12,14,15,19)         81.9068         estimate D2E/DX2                !
 ! D127  D(8,26,38,40)         179.4625         estimate D2E/DX2                !
 ! D128  D(39,26,38,40)         -1.6194         estimate D2E/DX2                !
 ! D129  D(26,38,40,41)        173.5505         estimate D2E/DX2                !
 ! D130  D(26,38,40,42)        -64.9573         estimate D2E/DX2                !
 ! D131  D(26,38,40,43)         51.6221         estimate D2E/DX2                !
 ! D132  D(38,40,41,44)        179.222          estimate D2E/DX2                !
 ! D133  D(38,40,41,45)        -61.2722         estimate D2E/DX2                !
 ! D134  D(38,40,41,46)         59.2613         estimate D2E/DX2                !
 ! D135  D(42,40,41,44)         60.3337         estimate D2E/DX2                !
 ! D136  D(42,40,41,45)        179.8395         estimate D2E/DX2                !
 ! D137  D(42,40,41,46)        -59.627          estimate D2E/DX2                !
 ! D138  D(43,40,41,44)        -61.4282         estimate D2E/DX2                !
 ! D139  D(43,40,41,45)         58.0776         estimate D2E/DX2                !
 ! D140  D(43,40,41,46)        178.6112         estimate D2E/DX2                !
 --------------------------------------------------------------------------------
 Trust Radius=3.00D-01 FncErr=1.00D-07 GrdErr=1.00D-06 EigMax=2.50D+02 EigMin=1.00D-04
 Number of steps in this run=    276 maximum allowed number of steps=    276.
 GradGradGradGradGradGradGradGradGradGradGradGradGradGradGradGradGradGrad

 Leave Link  103 at Sat Jun 19 21:34:03 2021, MaxMem=  2147483648 cpu:               0.3 elap:               0.1
 (Enter /SFS/product/gaussian/g16.a03/x86_64/avx/g16/l202.exe)
                          Input orientation:                          
 ---------------------------------------------------------------------
 Center     Atomic      Atomic             Coordinates (Angstroms)
 Number     Number       Type             X           Y           Z
 ---------------------------------------------------------------------
      1          6           0        1.641250   -2.145528    1.743248
      2          6           0        1.144826   -1.032264    1.053257
      3          6           0        1.237759    0.230305    1.659178
      4          6           0        1.782134    0.367747    2.933905
      5          6           0        2.266544   -0.749404    3.616234
      6          6           0        2.202667   -2.004242    3.013352
      7          6           0        0.579940   -1.167089   -0.339995
      8          6           0        1.505518   -0.694295   -1.512011
      9          6           0        2.075609   -2.013894   -2.069246
     10          6           0        0.902199   -3.013922   -2.044748
     11          6           0        0.051844   -2.594982   -0.832168
     12          6           0       -1.364317   -1.993184   -1.015321
     13          6           0       -1.897550   -1.801325   -2.417842
     14          8           0       -0.809357   -0.592970   -0.475486
     15         26           0       -1.926483    0.906093    0.268276
     16         17           0       -3.772879    0.877200   -0.924386
     17          6           0       -2.395224   -2.524142   -0.040657
     18         17           0       -0.881924    2.809695   -0.015279
     19         17           0       -2.364724    0.456484    2.363504
     20          1           0        0.889509    1.115463    1.136808
     21          1           0        1.827088    1.351660    3.391504
     22          1           0        2.693523   -0.640859    4.609191
     23          1           0        2.585178   -2.880008    3.530016
     24          1           0        1.609627   -3.132189    1.292356
     25          1           0        0.864664   -0.205502   -2.251673
     26          6           0        2.622516    0.273491   -1.136751
     27          1           0        2.506240   -1.881272   -3.066817
     28          1           0        2.885761   -2.341766   -1.409723
     29          1           0        0.328997   -2.959583   -2.974926
     30          1           0        1.252154   -4.046562   -1.951797
     31          1           0        0.043627   -3.347887   -0.043846
     32          1           0       -2.638288   -3.555616   -0.326418
     33          1           0       -2.010596   -2.531719    0.982655
     34          1           0       -3.318806   -1.939518   -0.070155
     35          1           0       -2.152054   -2.782243   -2.837944
     36          1           0       -2.803102   -1.190951   -2.401506
     37          1           0       -1.169787   -1.323623   -3.077854
     38          8           0        2.250609    1.547025   -1.343717
     39          8           0        3.711443   -0.065628   -0.725208
     40          6           0        3.231278    2.564897   -1.009814
     41          6           0        2.678741    3.901278   -1.464825
     42          1           0        3.401438    2.532830    0.071112
     43          1           0        4.174034    2.311540   -1.503794
     44          1           0        3.389957    4.696315   -1.214902
     45          1           0        2.519841    3.909956   -2.547932
     46          1           0        1.725553    4.117588   -0.974275
 ---------------------------------------------------------------------
                    Distance matrix (angstroms):
                    1          2          3          4          5
     1  C    0.000000
     2  C    1.400672   0.000000
     3  C    2.411318   1.403516   0.000000
     4  C    2.784612   2.429615   1.392897   0.000000
     5  C    2.418312   2.811959   2.418325   1.395798   0.000000
     6  C    1.395821   2.430173   2.785325   2.410289   1.393616
     7  C    2.534487   1.509445   2.526287   3.810435   4.320977
     8  C    3.566681   2.612455   3.314064   4.579369   5.184698
     9  C    3.839415   3.402937   4.431655   5.548861   5.827527
    10  C    3.955909   3.685576   4.935248   6.082512   6.247895
    11  C    3.059573   2.681702   3.949107   5.094602   5.300881
    12  C    4.082443   3.390897   4.343691   5.574095   6.015101
    13  C    5.473230   4.679320   5.529898   6.847346   7.406503
    14  O    3.652217   2.519696   3.070058   4.388935   5.121310
    15  Fe   4.921042   3.715691   3.521892   4.598830   5.615244
    16  Cl   6.750255   5.633910   5.674484   6.782634   7.729017
    17  C    4.429310   3.994284   4.865694   5.887390   6.185033
    18  Cl   5.832072   4.473269   3.734985   4.664547   5.980629
    19  Cl   4.816950   4.031136   3.677651   4.186844   4.946933
    20  H    3.401021   2.164463   1.085197   2.141359   3.394335
    21  H    3.870608   3.408222   2.146089   1.086049   2.158262
    22  H    3.403665   3.898247   3.403050   2.157429   1.086304
    23  H    2.150116   3.409268   3.871643   3.398256   2.156023
    24  H    1.085267   2.163999   3.402824   3.869625   3.392582
    25  H    4.508457   3.418273   3.952706   5.297224   6.057510
    26  C    3.887021   2.946981   3.120358   4.157567   4.874823
    27  H    4.894360   4.421456   5.329431   6.449115   6.782459
    28  H    3.395371   3.288149   4.330082   5.237037   5.308417
    29  H    4.964460   4.539427   5.698785   6.935201   7.216812
    30  H    4.173570   4.257683   5.597405   6.605837   6.550054
    31  H    2.681748   2.788975   4.138804   5.069057   5.008958
    32  H    4.958459   4.752132   5.770574   6.750008   6.890334
    33  H    3.750150   3.494286   4.317206   5.157430   5.329757
    34  H    5.285170   4.691394   5.334886   6.353537   6.797203
    35  H    5.981796   5.391965   6.386735   7.662540   8.081637
    36  H    6.151623   5.248495   5.902345   7.205591   7.880956
    37  H    5.640965   4.744302   5.536284   6.907664   7.546450
    38  O    4.851352   3.690660   3.431763   4.461862   5.465799
    39  O    3.834704   3.268768   3.448476   4.159225   4.626381
    40  C    5.682926   4.642102   4.067918   4.741351   5.771969
    41  C    6.923293   5.747475   5.031090   5.713018   6.900428
    42  H    5.270800   4.332067   3.536253   3.937679   4.962755
    43  H    6.068256   5.186100   4.791413   5.403026   6.262794
    44  H    7.656334   6.557574   5.730405   6.207592   7.365989
    45  H    7.473623   6.267756   5.734400   6.568256   7.731154
    46  H    6.827786   5.564989   4.720592   5.416491   6.712157
                    6          7          8          9         10
     6  C    0.000000
     7  C    3.818246   0.000000
     8  C    4.762446   1.566477   0.000000
     9  C    5.084195   2.438117   1.541706   0.000000
    10  C    5.319309   2.533935   2.455295   1.541930   0.000000
    11  C    4.445564   1.599999   2.487562   2.442059   1.539144
    12  C    5.380865   2.217799   3.189007   3.597816   2.690487
    13  C    6.808144   3.295096   3.691465   3.994083   3.073790
    14  O    4.820370   1.509343   2.538365   3.589168   3.354551
    15  Fe   5.749380   3.309114   4.184411   5.477871   5.358921
    16  Cl   7.714638   4.844343   5.538626   6.623741   6.184852
    17  C    5.544174   3.283717   4.552912   4.935978   3.889635
    18  Cl   6.470031   4.249388   4.496447   6.019368   6.419996
    19  Cl   5.228627   4.314620   5.596667   6.743041   6.492241
    20  H    3.870189   2.736206   3.266639   4.634489   5.212896
    21  H    3.397961   4.671569   5.322950   6.419385   7.033247
    22  H    2.155564   5.407272   6.235650   6.846062   7.288016
    23  H    1.086380   4.683167   5.600450   5.688721   5.824804
    24  H    2.141445   2.754350   3.717343   3.573247   3.413313
    25  H    5.722430   2.158757   1.093943   2.184021   2.816283
    26  C    4.752651   2.623396   1.524833   2.529977   3.819821
    27  H    6.088985   3.414125   2.197221   1.094614   2.213700
    28  H    4.488222   2.800178   2.151672   1.094905   2.188508
    29  H    6.346872   3.196696   2.942083   2.182942   1.093958
    30  H    5.452270   3.367661   3.390472   2.196272   1.094282
    31  H    3.976593   2.265219   3.366628   3.163974   2.202791
    32  H    6.082407   4.007772   5.173385   5.256917   3.972548
    33  H    4.706756   3.212864   4.686421   5.126335   4.228719
    34  H    6.324466   3.983677   5.186871   5.753400   4.782284
    35  H    7.335295   4.038844   4.415366   4.365134   3.164063
    36  H    7.418885   3.961738   4.427423   4.958775   4.144847
    37  H    6.995676   3.252986   3.163096   3.467904   2.866626
    38  O    5.621196   3.341408   2.367910   3.638291   4.807483
    39  O    4.473417   3.341843   2.424951   2.877174   4.280826
    40  C    6.174215   4.626659   3.721933   4.839762   6.133426
    41  C    7.426701   5.599871   4.743202   5.976483   7.163268
    42  H    5.538849   4.671109   4.063881   5.197274   6.441236
    43  H    6.551097   5.135445   4.019464   4.840713   6.273602
    44  H    8.011570   6.560577   5.718222   6.890887   8.144037
    45  H    8.124421   5.866395   4.827122   5.959738   7.128117
    46  H    7.321585   5.444497   4.846833   6.238315   7.258255
                   11         12         13         14         15
    11  C    0.000000
    12  C    1.549586   0.000000
    13  C    2.635221   1.512684   0.000000
    14  O    2.208380   1.600001   2.533186   0.000000
    15  Fe   4.169206   3.220164   3.813945   2.012049   0.000000
    16  Cl   5.166532   3.748139   3.594686   3.338469   2.198285
    17  C    2.572868   1.514812   2.533999   2.536430   3.475870
    18  Cl   5.545247   4.929547   5.297670   3.434412   2.189796
    19  Cl   5.036225   4.291637   5.308222   3.402996   2.187278
    20  H    4.283217   4.401713   5.376884   2.899031   2.954318
    21  H    6.047055   6.386952   7.587012   5.068140   4.903303
    22  H    6.356528   7.066115   8.473714   6.174658   6.525416
    23  H    5.052491   6.086465   7.525651   5.726906   6.732651
    24  H    2.688658   3.932817   5.276084   3.927389   5.464479
    25  H    2.895736   3.113315   3.194384   2.471299   3.921261
    26  C    3.863840   4.587744   5.135859   3.600802   4.802882
    27  H    3.395158   4.382051   4.452070   4.400898   6.208163
    28  H    2.903235   4.282549   4.918175   4.193445   6.043340
    29  H    2.191155   2.764289   2.570878   3.625453   5.527115
    30  H    2.191209   3.455325   3.896014   4.284463   6.289773
    31  H    1.090131   2.182038   3.434513   2.916070   4.698415
    32  H    2.900933   2.130442   2.828477   3.484893   4.557102
    33  H    2.747953   2.167857   3.479890   2.707009   3.512259
    34  H    3.517325   2.171692   2.747854   2.876599   3.186001
    35  H    2.985862   2.136609   1.097022   3.489550   4.827350
    36  H    3.547512   2.152949   1.092176   2.835869   3.506250
    37  H    2.855143   2.177199   1.092453   2.726918   4.091553
    38  O    4.717253   5.070366   5.438053   3.833640   4.522987
    39  O    4.449914   5.437185   6.110520   4.558298   5.806674
    40  C    6.063391   6.472683   6.881229   5.156002   5.566655
    41  C    7.035783   7.161917   7.373626   5.774416   5.760457
    42  H    6.191135   6.661648   7.284165   5.272589   5.574216
    43  H    6.443407   7.031542   7.390215   5.858992   6.506291
    44  H    8.028231   8.209284   8.463103   6.793932   6.695531
    45  H    7.165827   7.230674   7.221426   5.971175   6.060034
    46  H    6.919544   6.847665   7.088321   5.372515   5.019462
                   16         17         18         19         20
    16  Cl   0.000000
    17  C    3.774657   0.000000
    18  Cl   3.594250   5.544415   0.000000
    19  Cl   3.601406   3.829498   3.659905   0.000000
    20  H    5.103249   5.042085   2.708450   3.539642   0.000000
    21  H    7.086018   6.680531   4.590292   4.407881   2.453263
    22  H    8.645191   7.145851   6.787921   5.642086   4.289123
    23  H    8.624569   6.138465   7.547359   6.082307   4.956463
    24  H    7.068275   4.264443   6.574475   5.460897   4.311069
    25  H    4.943758   4.570728   4.140464   5.671599   3.636945
    26  C    6.427335   5.848580   4.468907   6.095723   2.980151
    27  H    7.185159   5.796143   6.541920   7.660273   5.409686
    28  H    7.411800   5.458608   6.532800   7.045214   4.735216
    29  H    5.979214   4.027521   6.596242   6.886544   5.816058
    30  H    7.109850   4.390169   7.437248   7.209789   6.026400
    31  H    5.761287   2.574211   6.226819   5.105754   4.693714
    32  H    4.614620   1.097578   6.610507   4.838126   6.033686
    33  H    4.285228   1.093235   5.549818   3.310817   4.662221
    34  H    2.978220   1.093462   5.338205   3.545955   5.338500
    35  H    4.436249   2.819674   6.391435   6.131039   6.343648
    36  H    2.720220   2.741782   5.038866   5.060784   5.610222
    37  H    4.032014   3.488195   5.152334   5.848507   5.287080
    38  O    6.075106   6.313171   3.629304   6.019474   2.862140
    39  O    7.546103   6.618480   5.465391   6.836121   3.581256
    40  C    7.205126   7.648209   4.238804   6.865852   3.491809
    41  C    7.145665   8.310198   3.996382   7.208276   4.210773
    42  H    7.429869   7.693292   4.293170   6.543309   3.074805
    43  H    8.096078   8.287324   5.294010   7.820012   4.380809
    44  H    8.122577   9.326423   4.821556   7.993592   4.960371
    45  H    7.171599   8.475961   4.381428   7.740003   4.903517
    46  H    6.382426   7.871787   3.070699   6.424548   3.764093
                   21         22         23         24         25
    21  H    0.000000
    22  H    2.490703   0.000000
    23  H    4.301267   2.488000   0.000000
    24  H    4.955665   4.287534   2.454061   0.000000
    25  H    5.932660   7.113769   6.598566   4.656244   0.000000
    26  C    4.722314   5.818671   5.632465   4.304087   2.136008
    27  H    7.254172   7.777840   6.672474   4.622888   2.483432
    28  H    6.149306   6.257585   4.978059   3.091038   3.058976
    29  H    7.833424   8.275645   6.885561   4.458643   2.897412
    30  H    7.617231   7.531462   5.760909   3.389453   3.872185
    31  H    6.088358   6.000059   4.410315   2.069859   3.927236
    32  H    7.605517   7.828426   6.527873   4.565578   5.215414
    33  H    5.967496   6.233446   5.266070   3.682729   4.913174
    34  H    7.021051   7.728576   6.978738   5.250557   5.026654
    35  H    8.469283   9.139199   7.937370   5.597507   4.010473
    36  H    7.839802   8.925545   8.189593   6.073319   3.800798
    37  H    7.615182   8.630295   7.757966   5.485872   2.464094
    38  O    4.758136   6.357682   6.592710   5.408769   2.411758
    39  O    4.744135   5.461031   5.224571   4.229893   3.233235
    40  C    4.776536   6.491477   7.118602   6.355040   3.849440
    41  C    5.550657   7.584517   8.422769   7.629856   4.558031
    42  H    3.859889   5.582796   6.475269   6.065844   4.396478
    43  H    5.513027   6.948177   7.403775   6.635422   4.224542
    44  H    5.903241   7.930353   8.975666   8.410790   5.610687
    45  H    6.503975   8.483189   9.113141   8.072677   4.445714
    46  H    5.169206   7.399654   8.366238   7.596731   4.589334
                   26         27         28         29         30
    26  C    0.000000
    27  H    2.895113   0.000000
    28  H    2.642609   1.761264   0.000000
    29  H    4.369426   2.431375   3.060817   0.000000
    30  H    4.604894   2.739431   2.422570   1.755145   0.000000
    31  H    4.578153   4.165786   3.309928   2.970429   2.364098
    32  H    6.557039   6.064601   5.758654   4.021770   4.244811
    33  H    5.816082   6.101075   5.452877   4.617273   4.642337
    34  H    6.429179   6.550919   6.360259   4.773332   5.373443
    35  H    5.918453   4.750140   5.254847   2.491150   3.737966
    36  H    5.760341   5.395210   5.888223   3.642377   4.980146
    37  H    4.549749   3.718100   4.501860   2.221106   3.814210
    38  O    1.342773   3.845470   3.940872   5.163618   5.714446
    39  O    1.212490   3.198783   2.516171   4.987700   4.837402
    40  C    2.374288   4.952309   4.935043   6.542536   6.965318
    41  C    3.643025   6.002834   6.246718   7.407639   8.089527
    42  H    2.677735   5.489287   5.120594   6.991770   7.211101
    43  H    2.587580   4.775380   4.829260   6.688294   7.011672
    44  H    4.489593   6.890225   7.058807   8.430892   9.030566
    45  H    3.902032   5.814443   6.365017   7.223066   8.078898
    46  H    3.950699   6.401135   6.577154   7.485942   8.236079
                   31         32         33         34         35
    31  H    0.000000
    32  H    2.704749   0.000000
    33  H    2.437143   1.776523   0.000000
    34  H    3.645566   1.772159   1.780597   0.000000
    35  H    3.598326   2.672507   3.831416   3.119640   0.000000
    36  H    4.279579   3.150364   3.725355   2.502299   1.773852
    37  H    3.843855   3.835191   4.319050   3.747514   1.774818
    38  O    5.524545   7.139549   6.340822   6.693006   6.352851
    39  O    4.968939   7.256592   6.460660   7.305132   6.798842
    40  C    6.786400   8.507615   7.577775   8.004768   7.804757
    41  C    7.843048   9.228870   8.328475   8.487083   8.360113
    42  H    6.772809   8.585190   7.467977   8.073632   8.219117
    43  H    7.156873   9.067385   8.239492   8.733239   8.230794
    44  H    8.790818  10.257851   9.286534   9.505379   9.448650
    45  H    8.067116   9.342172   8.630474   8.628182   8.166776
    46  H    7.708949   8.851039   7.874114   7.934200   8.131222
                   36         37         38         39         40
    36  H    0.000000
    37  H    1.772785   0.000000
    38  O    5.844264   4.790299   0.000000
    39  O    6.820236   5.562724   2.262132   0.000000
    40  C    7.242717   6.226295   1.452331   2.689093   0.000000
    41  C    7.540475   6.686750   2.395928   4.165315   1.515997
    42  H    7.647006   6.759017   2.073152   2.735363   1.094707
    43  H    7.858356   6.651954   2.075975   2.543838   1.094073
    44  H    8.626813   7.778272   3.351527   4.797839   2.147134
    45  H    7.373901   6.425303   2.665720   4.532936   2.163593
    46  H    7.122239   6.512666   2.649522   4.637358   2.163174
                   41         42         43         44         45
    41  C    0.000000
    42  H    2.180377   0.000000
    43  H    2.182816   1.768107   0.000000
    44  H    1.095616   2.516869   2.526932   0.000000
    45  H    1.094735   3.087569   2.526166   1.775509   0.000000
    46  H    1.093616   2.532367   3.088245   1.778501   1.774937
                   46
    46  H    0.000000
 Stoichiometry    C17H22Cl3FeO3(6)
 Framework group  C1[X(C17H22Cl3FeO3)]
 Deg. of freedom   132
 Full point group                 C1      NOp   1
 Largest Abelian subgroup         C1      NOp   1
 Largest concise Abelian subgroup C1      NOp   1
                         Standard orientation:                         
 ---------------------------------------------------------------------
 Center     Atomic      Atomic             Coordinates (Angstroms)
 Number     Number       Type             X           Y           Z
 ---------------------------------------------------------------------
      1          6           0        1.641250   -2.145528    1.743248
      2          6           0        1.144826   -1.032264    1.053257
      3          6           0        1.237759    0.230305    1.659178
      4          6           0        1.782134    0.367747    2.933905
      5          6           0        2.266544   -0.749404    3.616234
      6          6           0        2.202667   -2.004242    3.013352
      7          6           0        0.579940   -1.167089   -0.339995
      8          6           0        1.505518   -0.694295   -1.512011
      9          6           0        2.075609   -2.013894   -2.069246
     10          6           0        0.902199   -3.013922   -2.044748
     11          6           0        0.051844   -2.594982   -0.832168
     12          6           0       -1.364317   -1.993184   -1.015321
     13          6           0       -1.897550   -1.801325   -2.417842
     14          8           0       -0.809357   -0.592970   -0.475486
     15         26           0       -1.926483    0.906093    0.268276
     16         17           0       -3.772879    0.877200   -0.924386
     17          6           0       -2.395224   -2.524142   -0.040657
     18         17           0       -0.881924    2.809695   -0.015279
     19         17           0       -2.364724    0.456484    2.363504
     20          1           0        0.889509    1.115463    1.136808
     21          1           0        1.827088    1.351660    3.391504
     22          1           0        2.693523   -0.640859    4.609191
     23          1           0        2.585178   -2.880008    3.530016
     24          1           0        1.609627   -3.132189    1.292356
     25          1           0        0.864664   -0.205502   -2.251673
     26          6           0        2.622516    0.273491   -1.136751
     27          1           0        2.506240   -1.881272   -3.066817
     28          1           0        2.885761   -2.341766   -1.409723
     29          1           0        0.328997   -2.959583   -2.974926
     30          1           0        1.252154   -4.046562   -1.951797
     31          1           0        0.043627   -3.347887   -0.043846
     32          1           0       -2.638288   -3.555616   -0.326418
     33          1           0       -2.010596   -2.531719    0.982655
     34          1           0       -3.318806   -1.939518   -0.070155
     35          1           0       -2.152054   -2.782243   -2.837944
     36          1           0       -2.803102   -1.190951   -2.401506
     37          1           0       -1.169787   -1.323623   -3.077854
     38          8           0        2.250609    1.547025   -1.343717
     39          8           0        3.711443   -0.065628   -0.725208
     40          6           0        3.231278    2.564897   -1.009814
     41          6           0        2.678741    3.901278   -1.464825
     42          1           0        3.401438    2.532830    0.071112
     43          1           0        4.174034    2.311540   -1.503794
     44          1           0        3.389957    4.696315   -1.214902
     45          1           0        2.519841    3.909956   -2.547932
     46          1           0        1.725553    4.117588   -0.974275
 ---------------------------------------------------------------------
 Rotational constants (GHZ):           0.2035702           0.1567966           0.1449706
 Leave Link  202 at Sat Jun 19 21:34:03 2021, MaxMem=  2147483648 cpu:               0.2 elap:               0.1
 (Enter /SFS/product/gaussian/g16.a03/x86_64/avx/g16/l301.exe)
 Standard basis: Jul-CC-pVDZ (5D, 7F)
 Ernie: Thresh=  0.10000D-02 Tol=  0.10000D-05 Strict=F.
 Ernie:  134 primitive shells out of 958 were deleted.
 There are   766 symmetry adapted cartesian basis functions of A   symmetry.
 There are   710 symmetry adapted basis functions of A   symmetry.
   710 basis functions,  1571 primitive gaussians,   766 cartesian basis functions
   115 alpha electrons      110 beta electrons
       nuclear repulsion energy      3361.2012616710 Hartrees.
 IExCor=  402 DFT=T Ex+Corr=B3LYP ExCW=0 ScaHFX=  0.200000
 ScaDFX=  0.800000  0.720000  1.000000  0.810000 ScalE2=  1.000000  1.000000
 IRadAn=      5 IRanWt=     -1 IRanGd=            0 ICorTp=0 IEmpDi=  4
 NAtoms=   46 NActive=   46 NUniq=   46 SFac= 1.00D+00 NAtFMM=   60 NAOKFM=F Big=F
 Integral buffers will be    131072 words long.
 Raffenetti 2 integral format.
 Two-electron integral symmetry is turned on.
 Leave Link  301 at Sat Jun 19 21:34:03 2021, MaxMem=  2147483648 cpu:               1.2 elap:               0.1
 (Enter /SFS/product/gaussian/g16.a03/x86_64/avx/g16/l302.exe)
 NPDir=0 NMtPBC=     1 NCelOv=     1 NCel=       1 NClECP=     1 NCelD=      1
         NCelK=      1 NCelE2=     1 NClLst=     1 CellRange=     0.0.
 One-electron integrals computed using PRISM.
 One-electron integral symmetry used in STVInt
 NBasis=   710 RedAO= T EigKep=  1.43D-06  NBF=   710
 NBsUse=   710 1.00D-06 EigRej= -1.00D+00 NBFU=   710
 Precomputing XC quadrature grid using
 IXCGrd= 4 IRadAn=           5 IRanWt=          -1 IRanGd=           0 AccXCQ= 0.00D+00.
 Generated NRdTot=       0 NPtTot=           0 NUsed=           0 NTot=          32
 NSgBfM=   764   764   764   764   764 MxSgAt=    46 MxSgA2=    46.
 Leave Link  302 at Sat Jun 19 21:34:04 2021, MaxMem=  2147483648 cpu:              23.3 elap:               1.5
 (Enter /SFS/product/gaussian/g16.a03/x86_64/avx/g16/l303.exe)
 DipDrv:  MaxL=1.
 Leave Link  303 at Sat Jun 19 21:34:05 2021, MaxMem=  2147483648 cpu:               3.2 elap:               0.3
 (Enter /SFS/product/gaussian/g16.a03/x86_64/avx/g16/l401.exe)
 ExpMin= 1.40D-02 ExpMax= 4.32D+06 ExpMxC= 4.91D+03 IAcc=3 IRadAn=         5 AccDes= 0.00D+00
 Harris functional with IExCor=  402 and IRadAn=       5 diagonalized for initial guess.
 HarFok:  IExCor=  402 AccDes= 0.00D+00 IRadAn=         5 IDoV= 1 UseB2=F ITyADJ=14
 ICtDFT=  3500011 ScaDFX=  1.000000  1.000000  1.000000  1.000000
 FoFCou: FMM=F IPFlag=           0 FMFlag=      100000 FMFlg1=           0
         NFxFlg=           0 DoJE=T BraDBF=F KetDBF=T FulRan=T
         wScrn=  0.000000 ICntrl=       500 IOpCl=  0 I1Cent=   200000004 NGrid=           0
         NMat0=    1 NMatS0=      1 NMatT0=    0 NMatD0=    1 NMtDS0=    0 NMtDT0=    0
 Petite list used in FoFCou.
 Harris En= -3531.08848536011    
 JPrj=0 DoOrth=F DoCkMO=F.
 Initial guess <Sx>= 0.0000 <Sy>= 0.0000 <Sz>= 2.5000 <S**2>= 8.7500 S= 2.5000
 Leave Link  401 at Sat Jun 19 21:34:13 2021, MaxMem=  2147483648 cpu:             128.6 elap:               8.1
 (Enter /SFS/product/gaussian/g16.a03/x86_64/avx/g16/l502.exe)
 Integral symmetry usage will be decided dynamically.
 UHF open shell SCF:
 Using DIIS extrapolation, IDIIS=  1040.
 NGot=  2147483648 LenX=  2146290678 LenY=  2145703156
 Requested convergence on RMS density matrix=1.00D-08 within 128 cycles.
 Requested convergence on MAX density matrix=1.00D-06.
 Requested convergence on             energy=1.00D-06.
 No special actions if energy rises.
 Fock matrices will be formed incrementally for  20 cycles.

 Cycle   1  Pass 1  IDiag  1:
 FoFJK:  IHMeth= 1 ICntrl=       0 DoSepK=F KAlg= 0 I1Cent=           0 FoldK=F
 IRaf= 920000000 NMat=       1 IRICut=       1 DoRegI=T DoRafI=F ISym2E= 0 IDoP0=0 IntGTp=1.
 FoFCou: FMM=F IPFlag=           0 FMFlag=      100000 FMFlg1=           0
         NFxFlg=           0 DoJE=F BraDBF=F KetDBF=F FulRan=T
         wScrn=  0.000000 ICntrl=         0 IOpCl=  1 I1Cent=           0 NGrid=           0
         NMat0=    1 NMatS0=      1 NMatT0=    0 NMatD0=    1 NMtDS0=    0 NMtDT0=    0
 Symmetry not used in FoFCou.
 E= -3530.82525455393    
 DIIS: error= 1.42D-02 at cycle   1 NSaved=   1.
 NSaved= 1 IEnMin= 1 EnMin= -3530.82525455393     IErMin= 1 ErrMin= 1.42D-02
 ErrMax= 1.42D-02  0.00D+00 EMaxC= 1.00D-01 BMatC= 2.64D+00 BMatP= 2.64D+00
 IDIUse=3 WtCom= 8.58D-01 WtEn= 1.42D-01
 Coeff-Com:  0.100D+01
 Coeff-En:   0.100D+01
 Coeff:      0.100D+01
 Gap=     0.495 Goal=   None    Shift=    0.000
 Gap=     0.035 Goal=   None    Shift=    0.000
 GapD=    0.035 DampG=0.250 DampE=0.250 DampFc=0.1250 IDamp=-1.
 Damping current iteration by 1.25D-01
 RMSDP=2.99D-02 MaxDP=9.46D+00              OVMax= 8.15D-01

 Cycle   2  Pass 1  IDiag  1:
 RMSU=  1.56D-03    CP:  9.47D-01
 E= -3530.87948684952     Delta-E=       -0.054232295590 Rises=F Damp=T
 DIIS: error= 9.14D-03 at cycle   2 NSaved=   2.
 NSaved= 2 IEnMin= 2 EnMin= -3530.87948684952     IErMin= 2 ErrMin= 9.14D-03
 ErrMax= 9.14D-03  0.00D+00 EMaxC= 1.00D-01 BMatC= 1.14D+00 BMatP= 2.64D+00
 IDIUse=3 WtCom= 9.09D-01 WtEn= 9.14D-02
 Coeff-Com: -0.347D+00 0.135D+01
 Coeff-En:   0.327D+00 0.673D+00
 Coeff:     -0.285D+00 0.129D+01
 Gap=     0.331 Goal=   None    Shift=    0.000
 Gap=     0.052 Goal=   None    Shift=    0.000
 RMSDP=2.44D-02 MaxDP=7.46D+00 DE=-5.42D-02 OVMax= 8.75D-01

 Cycle   3  Pass 1  IDiag  1:
 RMSU=  1.08D-02    CP:  6.12D-01  3.00D+00
 E= -3528.52160230601     Delta-E=        2.357884543503 Rises=F Damp=F
 DIIS: error= 7.29D-02 at cycle   3 NSaved=   3.
 NSaved= 3 IEnMin= 2 EnMin= -3530.87948684952     IErMin= 2 ErrMin= 9.14D-03
 ErrMax= 7.29D-02  0.00D+00 EMaxC= 1.00D-01 BMatC= 1.27D+01 BMatP= 1.14D+00
 IDIUse=2 WtCom= 0.00D+00 WtEn= 1.00D+00
 Coeff-En:   0.000D+00 0.876D+00 0.124D+00
 Coeff:      0.000D+00 0.876D+00 0.124D+00
 Gap=    -0.003 Goal=   None    Shift=    0.000
 Gap=     0.270 Goal=   None    Shift=    0.000
 RMSDP=9.67D-03 MaxDP=2.33D+00 DE= 2.36D+00 OVMax= 6.70D-01

 Cycle   4  Pass 1  IDiag  1:
 RMSU=  5.29D-03    CP:  5.97D-01  3.00D+00  2.56D-01
 E= -3531.23887102272     Delta-E=       -2.717268716711 Rises=F Damp=F
 DIIS: error= 9.64D-03 at cycle   4 NSaved=   4.
 NSaved= 4 IEnMin= 4 EnMin= -3531.23887102272     IErMin= 2 ErrMin= 9.14D-03
 ErrMax= 9.64D-03  0.00D+00 EMaxC= 1.00D-01 BMatC= 9.27D-01 BMatP= 1.14D+00
 IDIUse=3 WtCom= 9.04D-01 WtEn= 9.64D-02
 EnCoef did   100 forward-backward iterations
 Coeff-Com:  0.592D+00-0.304D+00-0.262D-01 0.738D+00
 Coeff-En:   0.219D+00 0.204D-02 0.000D+00 0.779D+00
 Coeff:      0.556D+00-0.274D+00-0.237D-01 0.742D+00
 Gap=     0.229 Goal=   None    Shift=    0.000
 Gap=     0.116 Goal=   None    Shift=    0.000
 RMSDP=3.85D-03 MaxDP=7.76D-01 DE=-2.72D+00 OVMax= 1.35D-01

 Cycle   5  Pass 1  IDiag  1:
 RMSU=  2.70D-03    CP:  6.34D-01  3.00D+00  1.87D-01  7.82D-01
 E= -3531.38374312145     Delta-E=       -0.144872098729 Rises=F Damp=F
 DIIS: error= 7.98D-03 at cycle   5 NSaved=   5.
 NSaved= 5 IEnMin= 5 EnMin= -3531.38374312145     IErMin= 5 ErrMin= 7.98D-03
 ErrMax= 7.98D-03  0.00D+00 EMaxC= 1.00D-01 BMatC= 2.88D-01 BMatP= 9.27D-01
 IDIUse=3 WtCom= 9.20D-01 WtEn= 7.98D-02
 Coeff-Com:  0.248D+00-0.717D-01-0.361D-01 0.453D+00 0.406D+00
 Coeff-En:   0.000D+00 0.000D+00 0.000D+00 0.193D+00 0.807D+00
 Coeff:      0.229D+00-0.659D-01-0.333D-01 0.432D+00 0.438D+00
 Gap=     0.234 Goal=   None    Shift=    0.000
 Gap=     0.132 Goal=   None    Shift=    0.000
 RMSDP=1.22D-03 MaxDP=1.38D-01 DE=-1.45D-01 OVMax= 6.41D-02

 Cycle   6  Pass 1  IDiag  1:
 RMSU=  1.10D-03    CP:  6.36D-01  3.00D+00  1.68D-01  8.16D-01  8.35D-01
 E= -3531.43497430384     Delta-E=       -0.051231182389 Rises=F Damp=F
 DIIS: error= 9.61D-04 at cycle   6 NSaved=   6.
 NSaved= 6 IEnMin= 6 EnMin= -3531.43497430384     IErMin= 6 ErrMin= 9.61D-04
 ErrMax= 9.61D-04  0.00D+00 EMaxC= 1.00D-01 BMatC= 1.47D-02 BMatP= 2.88D-01
 IDIUse=3 WtCom= 9.90D-01 WtEn= 9.61D-03
 Coeff-Com: -0.423D-01 0.809D-01-0.640D-02 0.904D-01 0.197D+00 0.681D+00
 Coeff-En:   0.000D+00 0.000D+00 0.000D+00 0.000D+00 0.000D+00 0.100D+01
 Coeff:     -0.419D-01 0.801D-01-0.634D-02 0.895D-01 0.195D+00 0.684D+00
 Gap=     0.227 Goal=   None    Shift=    0.000
 Gap=     0.134 Goal=   None    Shift=    0.000
 RMSDP=4.53D-04 MaxDP=1.07D-01 DE=-5.12D-02 OVMax= 2.17D-02

 Cycle   7  Pass 1  IDiag  1:
 RMSU=  4.06D-04    CP:  6.33D-01  3.00D+00  1.72D-01  8.15D-01  8.24D-01
                    CP:  9.63D-01
 E= -3531.43630794693     Delta-E=       -0.001333643089 Rises=F Damp=F
 DIIS: error= 1.41D-03 at cycle   7 NSaved=   7.
 NSaved= 7 IEnMin= 7 EnMin= -3531.43630794693     IErMin= 6 ErrMin= 9.61D-04
 ErrMax= 1.41D-03  0.00D+00 EMaxC= 1.00D-01 BMatC= 1.14D-02 BMatP= 1.47D-02
 IDIUse=3 WtCom= 9.90D-01 WtEn= 9.61D-03
 Coeff-Com: -0.815D-01 0.941D-01-0.123D-02 0.635D-02 0.594D-01 0.458D+00
 Coeff-Com:  0.465D+00
 Coeff-En:   0.000D+00 0.000D+00 0.000D+00 0.000D+00 0.000D+00 0.345D+00
 Coeff-En:   0.655D+00
 Coeff:     -0.807D-01 0.932D-01-0.122D-02 0.629D-02 0.588D-01 0.457D+00
 Coeff:      0.467D+00
 Gap=     0.226 Goal=   None    Shift=    0.000
 Gap=     0.129 Goal=   None    Shift=    0.000
 RMSDP=1.83D-04 MaxDP=2.79D-02 DE=-1.33D-03 OVMax= 1.06D-02

 Cycle   8  Pass 1  IDiag  1:
 RMSU=  1.63D-04    CP:  6.32D-01  3.00D+00  1.68D-01  8.21D-01  8.17D-01
                    CP:  9.84D-01  9.02D-01
 E= -3531.43784065922     Delta-E=       -0.001532712291 Rises=F Damp=F
 DIIS: error= 7.81D-04 at cycle   8 NSaved=   8.
 NSaved= 8 IEnMin= 8 EnMin= -3531.43784065922     IErMin= 8 ErrMin= 7.81D-04
 ErrMax= 7.81D-04  0.00D+00 EMaxC= 1.00D-01 BMatC= 3.18D-03 BMatP= 1.14D-02
 IDIUse=3 WtCom= 9.92D-01 WtEn= 7.81D-03
 Coeff-Com: -0.743D-01 0.852D-01 0.789D-03-0.150D-01-0.568D-02 0.125D+00
 Coeff-Com:  0.236D+00 0.648D+00
 Coeff-En:   0.000D+00 0.000D+00 0.000D+00 0.000D+00 0.000D+00 0.000D+00
 Coeff-En:   0.000D+00 0.100D+01
 Coeff:     -0.737D-01 0.845D-01 0.783D-03-0.149D-01-0.564D-02 0.124D+00
 Coeff:      0.234D+00 0.651D+00
 Gap=     0.226 Goal=   None    Shift=    0.000
 Gap=     0.126 Goal=   None    Shift=    0.000
 RMSDP=8.58D-05 MaxDP=1.33D-02 DE=-1.53D-03 OVMax= 2.95D-03

 Cycle   9  Pass 1  IDiag  1:
 RMSU=  7.39D-05    CP:  6.32D-01  3.00D+00  1.67D-01  8.24D-01  8.24D-01
                    CP:  1.01D+00  8.81D-01  9.34D-01
 E= -3531.43822343634     Delta-E=       -0.000382777123 Rises=F Damp=F
 DIIS: error= 4.42D-04 at cycle   9 NSaved=   9.
 NSaved= 9 IEnMin= 9 EnMin= -3531.43822343634     IErMin= 9 ErrMin= 4.42D-04
 ErrMax= 4.42D-04  0.00D+00 EMaxC= 1.00D-01 BMatC= 1.04D-03 BMatP= 3.18D-03
 IDIUse=3 WtCom= 9.96D-01 WtEn= 4.42D-03
 Coeff-Com: -0.372D-01 0.453D-01 0.150D-03-0.809D-02-0.107D-01-0.704D-01
 Coeff-Com: -0.537D-01 0.223D+00 0.911D+00
 Coeff-En:   0.000D+00 0.000D+00 0.000D+00 0.000D+00 0.000D+00 0.000D+00
 Coeff-En:   0.000D+00 0.000D+00 0.100D+01
 Coeff:     -0.370D-01 0.451D-01 0.149D-03-0.806D-02-0.107D-01-0.701D-01
 Coeff:     -0.534D-01 0.222D+00 0.912D+00
 Gap=     0.226 Goal=   None    Shift=    0.000
 Gap=     0.124 Goal=   None    Shift=    0.000
 RMSDP=8.34D-05 MaxDP=1.30D-02 DE=-3.83D-04 OVMax= 2.44D-03

 Cycle  10  Pass 1  IDiag  1:
 RMSU=  5.99D-05    CP:  6.33D-01  3.00D+00  1.65D-01  8.26D-01  8.31D-01
                    CP:  1.00D+00  8.88D-01  1.10D+00  1.34D+00
 E= -3531.43839938534     Delta-E=       -0.000175948991 Rises=F Damp=F
 DIIS: error= 1.72D-04 at cycle  10 NSaved=  10.
 NSaved=10 IEnMin=10 EnMin= -3531.43839938534     IErMin=10 ErrMin= 1.72D-04
 ErrMax= 1.72D-04  0.00D+00 EMaxC= 1.00D-01 BMatC= 1.99D-04 BMatP= 1.04D-03
 IDIUse=3 WtCom= 9.98D-01 WtEn= 1.72D-03
 Coeff-Com: -0.913D-02 0.130D-01 0.116D-03 0.560D-03 0.303D-02-0.694D-01
 Coeff-Com: -0.107D+00-0.115D+00 0.459D+00 0.825D+00
 Coeff-En:   0.000D+00 0.000D+00 0.000D+00 0.000D+00 0.000D+00 0.000D+00
 Coeff-En:   0.000D+00 0.000D+00 0.000D+00 0.100D+01
 Coeff:     -0.911D-02 0.130D-01 0.116D-03 0.559D-03 0.302D-02-0.693D-01
 Coeff:     -0.107D+00-0.115D+00 0.458D+00 0.826D+00
 Gap=     0.226 Goal=   None    Shift=    0.000
 Gap=     0.123 Goal=   None    Shift=    0.000
 RMSDP=5.73D-05 MaxDP=4.62D-03 DE=-1.76D-04 OVMax= 1.71D-03

 Cycle  11  Pass 1  IDiag  1:
 RMSU=  3.23D-05    CP:  6.33D-01  3.00D+00  1.63D-01  8.26D-01  8.32D-01
                    CP:  9.94D-01  8.74D-01  1.25D+00  1.60D+00  1.44D+00
 E= -3531.43844302039     Delta-E=       -0.000043635056 Rises=F Damp=F
 DIIS: error= 3.19D-05 at cycle  11 NSaved=  11.
 NSaved=11 IEnMin=11 EnMin= -3531.43844302039     IErMin=11 ErrMin= 3.19D-05
 ErrMax= 3.19D-05  0.00D+00 EMaxC= 1.00D-01 BMatC= 1.79D-05 BMatP= 1.99D-04
 IDIUse=1 WtCom= 1.00D+00 WtEn= 0.00D+00
 Coeff-Com: -0.185D-02 0.277D-02 0.587D-04 0.112D-02 0.625D-02-0.161D-01
 Coeff-Com: -0.386D-01-0.943D-01 0.459D-01 0.469D+00 0.625D+00
 Coeff:     -0.185D-02 0.277D-02 0.587D-04 0.112D-02 0.625D-02-0.161D-01
 Coeff:     -0.386D-01-0.943D-01 0.459D-01 0.469D+00 0.625D+00
 Gap=     0.226 Goal=   None    Shift=    0.000
 Gap=     0.123 Goal=   None    Shift=    0.000
 RMSDP=2.09D-05 MaxDP=3.78D-03 DE=-4.36D-05 OVMax= 8.23D-04

 Cycle  12  Pass 1  IDiag  1:
 RMSU=  1.21D-05    CP:  6.33D-01  3.00D+00  1.62D-01  8.26D-01  8.33D-01
                    CP:  9.91D-01  8.64D-01  1.23D+00  1.71D+00  1.60D+00
                    CP:  9.91D-01
 E= -3531.43844684907     Delta-E=       -0.000003828677 Rises=F Damp=F
 DIIS: error= 2.71D-05 at cycle  12 NSaved=  12.
 NSaved=12 IEnMin=12 EnMin= -3531.43844684907     IErMin=12 ErrMin= 2.71D-05
 ErrMax= 2.71D-05  0.00D+00 EMaxC= 1.00D-01 BMatC= 3.40D-06 BMatP= 1.79D-05
 IDIUse=1 WtCom= 1.00D+00 WtEn= 0.00D+00
 Coeff-Com: -0.511D-03 0.627D-03 0.365D-04 0.383D-03 0.354D-02 0.132D-03
 Coeff-Com: -0.600D-02-0.335D-01-0.378D-01 0.152D+00 0.386D+00 0.535D+00
 Coeff:     -0.511D-03 0.627D-03 0.365D-04 0.383D-03 0.354D-02 0.132D-03
 Coeff:     -0.600D-02-0.335D-01-0.378D-01 0.152D+00 0.386D+00 0.535D+00
 Gap=     0.226 Goal=   None    Shift=    0.000
 Gap=     0.123 Goal=   None    Shift=    0.000
 RMSDP=6.31D-06 MaxDP=6.60D-04 DE=-3.83D-06 OVMax= 4.30D-04

 Cycle  13  Pass 1  IDiag  1:
 RMSU=  4.48D-06    CP:  6.33D-01  3.00D+00  1.62D-01  8.26D-01  8.34D-01
                    CP:  9.91D-01  8.58D-01  1.23D+00  1.72D+00  1.62D+00
                    CP:  1.04D+00  7.85D-01
 E= -3531.43844771084     Delta-E=       -0.000000861769 Rises=F Damp=F
 DIIS: error= 6.11D-06 at cycle  13 NSaved=  13.
 NSaved=13 IEnMin=13 EnMin= -3531.43844771084     IErMin=13 ErrMin= 6.11D-06
 ErrMax= 6.11D-06  0.00D+00 EMaxC= 1.00D-01 BMatC= 5.64D-07 BMatP= 3.40D-06
 IDIUse=1 WtCom= 1.00D+00 WtEn= 0.00D+00
 Coeff-Com: -0.351D-04-0.834D-04-0.359D-05-0.396D-04 0.129D-02 0.228D-02
 Coeff-Com:  0.281D-02-0.312D-02-0.274D-01 0.135D-01 0.127D+00 0.302D+00
 Coeff-Com:  0.583D+00
 Coeff:     -0.351D-04-0.834D-04-0.359D-05-0.396D-04 0.129D-02 0.228D-02
 Coeff:      0.281D-02-0.312D-02-0.274D-01 0.135D-01 0.127D+00 0.302D+00
 Coeff:      0.583D+00
 Gap=     0.226 Goal=   None    Shift=    0.000
 Gap=     0.123 Goal=   None    Shift=    0.000
 RMSDP=2.52D-06 MaxDP=3.02D-04 DE=-8.62D-07 OVMax= 8.70D-05

 Cycle  14  Pass 1  IDiag  1:
 RMSU=  1.69D-06    CP:  6.33D-01  3.00D+00  1.62D-01  8.26D-01  8.34D-01
                    CP:  9.90D-01  8.58D-01  1.23D+00  1.72D+00  1.64D+00
                    CP:  1.05D+00  8.41D-01  8.55D-01
 E= -3531.43844782996     Delta-E=       -0.000000119119 Rises=F Damp=F
 DIIS: error= 3.91D-06 at cycle  14 NSaved=  14.
 NSaved=14 IEnMin=14 EnMin= -3531.43844782996     IErMin=14 ErrMin= 3.91D-06
 ErrMax= 3.91D-06  0.00D+00 EMaxC= 1.00D-01 BMatC= 1.10D-07 BMatP= 5.64D-07
 IDIUse=1 WtCom= 1.00D+00 WtEn= 0.00D+00
 Coeff-Com:  0.690D-05-0.714D-04-0.185D-05-0.972D-04 0.114D-03 0.927D-03
 Coeff-Com:  0.264D-02 0.578D-02-0.434D-02-0.205D-01-0.905D-02 0.477D-01
 Coeff-Com:  0.283D+00 0.694D+00
 Coeff:      0.690D-05-0.714D-04-0.185D-05-0.972D-04 0.114D-03 0.927D-03
 Coeff:      0.264D-02 0.578D-02-0.434D-02-0.205D-01-0.905D-02 0.477D-01
 Coeff:      0.283D+00 0.694D+00
 Gap=     0.226 Goal=   None    Shift=    0.000
 Gap=     0.123 Goal=   None    Shift=    0.000
 RMSDP=7.97D-07 MaxDP=1.44D-04 DE=-1.19D-07 OVMax= 2.77D-05

 Cycle  15  Pass 1  IDiag  1:
 RMSU=  6.61D-07    CP:  6.33D-01  3.00D+00  1.62D-01  8.26D-01  8.34D-01
                    CP:  9.90D-01  8.58D-01  1.23D+00  1.71D+00  1.63D+00
                    CP:  1.05D+00  8.43D-01  8.54D-01  9.10D-01
 E= -3531.43844784855     Delta-E=       -0.000000018594 Rises=F Damp=F
 DIIS: error= 1.65D-06 at cycle  15 NSaved=  15.
 NSaved=15 IEnMin=15 EnMin= -3531.43844784855     IErMin=15 ErrMin= 1.65D-06
 ErrMax= 1.65D-06  0.00D+00 EMaxC= 1.00D-01 BMatC= 2.12D-08 BMatP= 1.10D-07
 IDIUse=1 WtCom= 1.00D+00 WtEn= 0.00D+00
 Coeff-Com: -0.155D-04-0.225D-05 0.351D-05-0.695D-04-0.167D-03 0.480D-04
 Coeff-Com:  0.105D-02 0.437D-02 0.334D-02-0.147D-01-0.302D-01-0.296D-01
 Coeff-Com:  0.625D-01 0.439D+00 0.565D+00
 Coeff:     -0.155D-04-0.225D-05 0.351D-05-0.695D-04-0.167D-03 0.480D-04
 Coeff:      0.105D-02 0.437D-02 0.334D-02-0.147D-01-0.302D-01-0.296D-01
 Coeff:      0.625D-01 0.439D+00 0.565D+00
 Gap=     0.226 Goal=   None    Shift=    0.000
 Gap=     0.123 Goal=   None    Shift=    0.000
 RMSDP=4.15D-07 MaxDP=7.44D-05 DE=-1.86D-08 OVMax= 1.82D-05

 Cycle  16  Pass 1  IDiag  1:
 RMSU=  3.15D-07    CP:  6.33D-01  3.00D+00  1.62D-01  8.26D-01  8.34D-01
                    CP:  9.90D-01  8.58D-01  1.23D+00  1.71D+00  1.63D+00
                    CP:  1.05D+00  8.43D-01  8.72D-01  8.93D-01  9.44D-01
 E= -3531.43844785346     Delta-E=       -0.000000004907 Rises=F Damp=F
 DIIS: error= 5.44D-07 at cycle  16 NSaved=  16.
 NSaved=16 IEnMin=16 EnMin= -3531.43844785346     IErMin=16 ErrMin= 5.44D-07
 ErrMax= 5.44D-07  0.00D+00 EMaxC= 1.00D-01 BMatC= 2.10D-09 BMatP= 2.12D-08
 IDIUse=1 WtCom= 1.00D+00 WtEn= 0.00D+00
 Coeff-Com:  0.290D-05-0.136D-05-0.261D-06-0.161D-04-0.106D-03-0.147D-03
 Coeff-Com:  0.142D-04 0.975D-03 0.213D-02-0.326D-02-0.124D-01-0.209D-01
 Coeff-Com: -0.201D-01 0.846D-01 0.267D+00 0.702D+00
 Coeff:      0.290D-05-0.136D-05-0.261D-06-0.161D-04-0.106D-03-0.147D-03
 Coeff:      0.142D-04 0.975D-03 0.213D-02-0.326D-02-0.124D-01-0.209D-01
 Coeff:     -0.201D-01 0.846D-01 0.267D+00 0.702D+00
 Gap=     0.226 Goal=   None    Shift=    0.000
 Gap=     0.123 Goal=   None    Shift=    0.000
 RMSDP=1.56D-07 MaxDP=3.29D-05 DE=-4.91D-09 OVMax= 8.27D-06

 Cycle  17  Pass 1  IDiag  1:
 RMSU=  1.31D-07    CP:  6.33D-01  3.00D+00  1.62D-01  8.26D-01  8.34D-01
                    CP:  9.90D-01  8.58D-01  1.23D+00  1.71D+00  1.63D+00
                    CP:  1.05D+00  8.44D-01  8.77D-01  9.20D-01  9.55D-01
                    CP:  9.81D-01
 E= -3531.43844785408     Delta-E=       -0.000000000626 Rises=F Damp=F
 DIIS: error= 2.73D-07 at cycle  17 NSaved=  17.
 NSaved=17 IEnMin=17 EnMin= -3531.43844785408     IErMin=17 ErrMin= 2.73D-07
 ErrMax= 2.73D-07  0.00D+00 EMaxC= 1.00D-01 BMatC= 9.54D-10 BMatP= 2.10D-09
 IDIUse=1 WtCom= 1.00D+00 WtEn= 0.00D+00
 Coeff-Com:  0.860D-06 0.609D-05-0.744D-07 0.596D-05-0.325D-04-0.105D-03
 Coeff-Com: -0.271D-03-0.516D-03 0.474D-03 0.167D-02-0.300D-03-0.585D-02
 Coeff-Com: -0.265D-01-0.474D-01 0.339D-01 0.414D+00 0.631D+00
 Coeff:      0.860D-06 0.609D-05-0.744D-07 0.596D-05-0.325D-04-0.105D-03
 Coeff:     -0.271D-03-0.516D-03 0.474D-03 0.167D-02-0.300D-03-0.585D-02
 Coeff:     -0.265D-01-0.474D-01 0.339D-01 0.414D+00 0.631D+00
 Gap=     0.226 Goal=   None    Shift=    0.000
 Gap=     0.123 Goal=   None    Shift=    0.000
 RMSDP=8.40D-08 MaxDP=9.03D-06 DE=-6.26D-10 OVMax= 4.65D-06

 Cycle  18  Pass 1  IDiag  1:
 RMSU=  7.05D-08    CP:  6.33D-01  3.00D+00  1.62D-01  8.26D-01  8.34D-01
                    CP:  9.90D-01  8.58D-01  1.23D+00  1.71D+00  1.63D+00
                    CP:  1.05D+00  8.44D-01  8.77D-01  9.26D-01  9.76D-01
                    CP:  1.01D+00  9.67D-01
 E= -3531.43844785436     Delta-E=       -0.000000000273 Rises=F Damp=F
 DIIS: error= 9.85D-08 at cycle  18 NSaved=  18.
 NSaved=18 IEnMin=18 EnMin= -3531.43844785436     IErMin=18 ErrMin= 9.85D-08
[...]
    12   Atom       -0.023826      0.036906     -0.013080
    13   Atom       -0.012601      0.005012      0.007589
    14   Atom       -0.133060      0.062601      0.070459
    15   Atom        0.017596      0.026481     -0.044076
    16   Atom        0.077792     -0.115265      0.037474
    17   Atom       -0.012776      0.027730     -0.014953
    18   Atom        0.071967      0.074767     -0.146734
    19   Atom       -0.128540     -0.072654      0.201194
    20   Atom        0.041094     -0.023236     -0.017858
    21   Atom        0.004361     -0.005777      0.001416
    22   Atom        0.001294     -0.001947      0.000653
    23   Atom        0.000763      0.000132     -0.000895
    24   Atom        0.000913      0.002905     -0.003818
    25   Atom        0.006005     -0.009166      0.003161
    26   Atom        0.010527     -0.005674     -0.004854
    27   Atom        0.001578     -0.001442     -0.000136
    28   Atom        0.003042     -0.000624     -0.002418
    29   Atom       -0.002164      0.001186      0.000977
    30   Atom       -0.000789      0.002321     -0.001532
    31   Atom       -0.003575      0.009626     -0.006050
    32   Atom       -0.006515      0.013118     -0.006604
    33   Atom       -0.014740      0.027392     -0.012653
    34   Atom       -0.009442      0.028213     -0.018771
    35   Atom       -0.005992      0.004071      0.001921
    36   Atom       -0.011498      0.000749      0.010749
    37   Atom       -0.008893     -0.002664      0.011556
    38   Atom        0.011751     -0.006643     -0.005108
    39   Atom        0.005430     -0.004048     -0.001382
    40   Atom        0.006756     -0.003113     -0.003643
    41   Atom        0.004830     -0.001621     -0.003209
    42   Atom        0.007368     -0.003195     -0.004173
    43   Atom        0.004304     -0.002209     -0.002095
    44   Atom        0.002505     -0.000288     -0.002216
    45   Atom        0.002253     -0.001095     -0.001159
    46   Atom        0.005134      0.000199     -0.005332
 --------------------------------------------------------
                        XY            XZ            YZ
 --------------------------------------------------------
     1   Atom       -0.007553      0.002954     -0.003636
     2   Atom       -0.016873      0.007500     -0.004031
     3   Atom       -0.009008      0.015835     -0.004142
     4   Atom       -0.002458      0.009037     -0.002321
     5   Atom       -0.003020      0.004959     -0.002306
     6   Atom       -0.004156      0.003530     -0.002573
     7   Atom       -0.040493     -0.009008      0.008404
     8   Atom       -0.007522     -0.012908      0.003796
     9   Atom       -0.005242     -0.004929      0.003412
    10   Atom       -0.005672     -0.004421      0.005586
    11   Atom       -0.014493     -0.004159      0.008837
    12   Atom       -0.009214     -0.004294      0.029450
    13   Atom       -0.001141      0.000091      0.019533
    14   Atom       -0.147337     -0.148645      0.067076
    15   Atom       -0.076739     -0.029864      0.080653
    16   Atom        0.014742      0.215460      0.092757
    17   Atom        0.006524     -0.000514      0.005135
    18   Atom        0.172031     -0.081741     -0.039648
    19   Atom       -0.000665     -0.045164     -0.136810
    20   Atom        0.001639      0.022660     -0.000195
    21   Atom        0.000548      0.008513      0.000311
    22   Atom       -0.001533      0.003463     -0.001408
    23   Atom       -0.002749      0.002049     -0.001861
    24   Atom       -0.006133      0.001314     -0.001482
    25   Atom       -0.005695     -0.016230      0.004790
    26   Atom       -0.002051     -0.004696      0.000832
    27   Atom       -0.002647     -0.003693      0.002050
    28   Atom       -0.004069     -0.002338      0.001523
    29   Atom       -0.003512     -0.003230      0.005390
    30   Atom       -0.003405     -0.001811      0.002627
    31   Atom       -0.007426     -0.001040      0.001376
    32   Atom        0.003128      0.000450      0.003431
    33   Atom        0.000273     -0.000640     -0.006543
    34   Atom        0.021594      0.003394      0.006175
    35   Atom        0.000582      0.000697      0.009239
    36   Atom        0.004502      0.008404      0.021420
    37   Atom       -0.002899     -0.004337      0.012797
    38   Atom        0.002460     -0.007094     -0.000678
    39   Atom       -0.001742     -0.001291      0.001560
    40   Atom        0.002970     -0.002493     -0.000675
    41   Atom        0.004438     -0.003382     -0.001519
    42   Atom        0.002912     -0.000189     -0.000077
    43   Atom        0.001402     -0.001907     -0.000380
    44   Atom        0.003289     -0.001207     -0.000748
    45   Atom        0.003470     -0.003391     -0.002071
    46   Atom        0.008388     -0.003703     -0.002548
 --------------------------------------------------------


 ---------------------------------------------------------------------------------
              Anisotropic Spin Dipole Couplings in Principal Axis System
 ---------------------------------------------------------------------------------

       Atom             a.u.   MegaHertz   Gauss  10(-4) cm-1        Axes

              Baa    -0.0062    -0.834    -0.298    -0.278  0.3771  0.6913  0.6164
     1 C(13)  Bbb    -0.0048    -0.643    -0.229    -0.214 -0.6037 -0.3212  0.7296
              Bcc     0.0110     1.477     0.527     0.493  0.7024 -0.6473  0.2962
 
              Baa    -0.0141    -1.886    -0.673    -0.629  0.5694  0.7894 -0.2295
     2 C(13)  Bbb    -0.0112    -1.508    -0.538    -0.503 -0.0685  0.3237  0.9437
              Bcc     0.0253     3.393     1.211     1.132  0.8192 -0.5217  0.2384
 
              Baa    -0.0149    -1.996    -0.712    -0.666 -0.3224  0.3175  0.8918
     3 C(13)  Bbb    -0.0147    -1.974    -0.704    -0.659  0.3327  0.9200 -0.2073
              Bcc     0.0296     3.970     1.417     1.324  0.8862 -0.2299  0.4022
 
              Baa    -0.0075    -1.004    -0.358    -0.335 -0.0806  0.9228  0.3768
     4 C(13)  Bbb    -0.0060    -0.811    -0.289    -0.271 -0.5886 -0.3491  0.7292
              Bcc     0.0135     1.815     0.648     0.605  0.8044 -0.1630  0.5713
 
              Baa    -0.0040    -0.538    -0.192    -0.179  0.2034  0.9343  0.2928
     5 C(13)  Bbb    -0.0038    -0.515    -0.184    -0.172 -0.6296 -0.1042  0.7699
              Bcc     0.0078     1.053     0.376     0.351  0.7498 -0.3410  0.5670
 
              Baa    -0.0038    -0.510    -0.182    -0.170  0.0812  0.7126  0.6969
     6 C(13)  Bbb    -0.0036    -0.480    -0.171    -0.160  0.6700  0.4786 -0.5674
              Bcc     0.0074     0.989     0.353     0.330  0.7379 -0.5130  0.4386
 
              Baa    -0.0288    -3.866    -1.379    -1.290 -0.2095 -0.4466  0.8699
     7 C(13)  Bbb    -0.0274    -3.678    -1.312    -1.227  0.6222  0.6254  0.4709
              Bcc     0.0562     7.544     2.692     2.516  0.7543 -0.6399 -0.1469
 
              Baa    -0.0116    -1.558    -0.556    -0.520  0.5151  0.1615  0.8418
     8 C(13)  Bbb    -0.0098    -1.317    -0.470    -0.439  0.1615  0.9462 -0.2804
              Bcc     0.0214     2.875     1.026     0.959  0.8418 -0.2804 -0.4613
 
              Baa    -0.0049    -0.656    -0.234    -0.219  0.4165 -0.2177  0.8827
     9 C(13)  Bbb    -0.0047    -0.635    -0.226    -0.212  0.5468  0.8356 -0.0519
              Bcc     0.0096     1.291     0.461     0.431  0.7263 -0.5043 -0.4671
 
              Baa    -0.0054    -0.728    -0.260    -0.243  0.8104  0.2071  0.5480
    10 C(13)  Bbb    -0.0053    -0.708    -0.253    -0.236  0.2619  0.7086 -0.6551
              Bcc     0.0107     1.436     0.512     0.479 -0.5240  0.6745  0.5201
 
              Baa    -0.0137    -1.843    -0.658    -0.615 -0.0801 -0.3198  0.9441
    11 C(13)  Bbb    -0.0122    -1.643    -0.586    -0.548  0.8950  0.3939  0.2094
              Bcc     0.0260     3.486     1.244     1.163 -0.4388  0.8618  0.2546
 
              Baa    -0.0267    -3.585    -1.279    -1.196  0.0168 -0.4180  0.9083
    12 C(13)  Bbb    -0.0252    -3.380    -1.206    -1.128  0.9910  0.1278  0.0405
              Bcc     0.0519     6.965     2.485     2.323 -0.1330  0.8994  0.4164
 
              Baa    -0.0139    -1.865    -0.666    -0.622  0.5718  0.6059 -0.5532
    13 C(13)  Bbb    -0.0120    -1.609    -0.574    -0.537  0.8202 -0.4069  0.4021
              Bcc     0.0259     3.474     1.240     1.159 -0.0185  0.6836  0.7296
 
              Baa    -0.2479    17.937     6.400     5.983  0.8767  0.3432  0.3370
    14 O(17)  Bbb    -0.0006     0.044     0.016     0.015 -0.0113  0.7152 -0.6988
              Bcc     0.2485   -17.980    -6.416    -5.998 -0.4809  0.6088  0.6309
 
              Baa    -0.1004    -1.738    -0.620    -0.580 -0.2027 -0.6098  0.7662
    15 Fe(57) Bbb    -0.0347    -0.601    -0.214    -0.200  0.7968  0.3521  0.4910
              Bcc     0.1351     2.339     0.834     0.780 -0.5692  0.7101  0.4145
 
              Baa    -0.2035   -10.649    -3.800    -3.552 -0.4647 -0.6036  0.6479
    16 Cl(35) Bbb    -0.0842    -4.406    -1.572    -1.470 -0.5284  0.7761  0.3441
              Bcc     0.2876    15.055     5.372     5.022  0.7105  0.1824  0.6796
 
              Baa    -0.0162    -2.176    -0.776    -0.726  0.4528 -0.1695  0.8754
    17 C(13)  Bbb    -0.0131    -1.758    -0.627    -0.587  0.8788 -0.0813 -0.4703
              Bcc     0.0293     3.934     1.404     1.312  0.1509  0.9822  0.1122
 
              Baa    -0.1759    -9.207    -3.285    -3.071  0.3845 -0.1191  0.9154
    18 Cl(35) Bbb    -0.0875    -4.580    -1.634    -1.528 -0.6004  0.7210  0.3460
              Bcc     0.2634    13.787     4.920     4.599  0.7012  0.6826 -0.2057
 
              Baa    -0.1490    -7.798    -2.783    -2.601  0.7384  0.5904  0.3259
    19 Cl(35) Bbb    -0.1132    -5.927    -2.115    -1.977 -0.6660  0.7143  0.2151
              Bcc     0.2622    13.725     4.897     4.578 -0.1058 -0.3759  0.9206
 
              Baa    -0.0258   -13.747    -4.905    -4.585 -0.3147  0.2740  0.9088
    20 H(1)   Bbb    -0.0231   -12.306    -4.391    -4.105  0.0694  0.9615 -0.2659
              Bcc     0.0488    26.052     9.296     8.690  0.9466  0.0207  0.3216
 
              Baa    -0.0059    -3.144    -1.122    -1.049 -0.4264  0.7767  0.4636
    21 H(1)   Bbb    -0.0057    -3.019    -1.077    -1.007  0.4832  0.6289 -0.6091
              Bcc     0.0116     6.163     2.199     2.056  0.7647  0.0357  0.6435
 
              Baa    -0.0026    -1.369    -0.488    -0.457  0.1260  0.9515  0.2807
    22 H(1)   Bbb    -0.0025    -1.335    -0.477    -0.445 -0.6946 -0.1174  0.7097
              Bcc     0.0051     2.704     0.965     0.902  0.7082 -0.2845  0.6461
 
              Baa    -0.0023    -1.244    -0.444    -0.415  0.4444  0.8003  0.4026
    23 H(1)   Bbb    -0.0023    -1.214    -0.433    -0.405 -0.5995 -0.0683  0.7975
              Bcc     0.0046     2.458     0.877     0.820  0.6657 -0.5958  0.4494
 
              Baa    -0.0043    -2.301    -0.821    -0.768  0.7654  0.6055 -0.2183
    24 H(1)   Bbb    -0.0041    -2.203    -0.786    -0.735  0.0675  0.2617  0.9628
              Bcc     0.0084     4.504     1.607     1.502 -0.6401  0.7516 -0.1595
 
              Baa    -0.0118    -6.303    -2.249    -2.102  0.6923  0.3126  0.6504
    25 H(1)   Bbb    -0.0108    -5.763    -2.056    -1.922 -0.0570  0.9222 -0.3826
              Bcc     0.0226    12.066     4.306     4.025  0.7193 -0.2278 -0.6562
 
              Baa    -0.0063    -0.849    -0.303    -0.283  0.1665 -0.5323  0.8301
    26 C(13)  Bbb    -0.0058    -0.777    -0.277    -0.259  0.2457  0.8376  0.4878
              Bcc     0.0121     1.626     0.580     0.543  0.9549 -0.1227 -0.2702
 
              Baa    -0.0031    -1.644    -0.587    -0.548  0.6836  0.2429  0.6883
    27 H(1)   Bbb    -0.0029    -1.566    -0.559    -0.522  0.1444  0.8794 -0.4537
              Bcc     0.0060     3.209     1.145     1.071  0.7155 -0.4095 -0.5660
 
              Baa    -0.0033    -1.755    -0.626    -0.585  0.1079 -0.3638  0.9252
    28 H(1)   Bbb    -0.0033    -1.735    -0.619    -0.579  0.5879  0.7738  0.2357
              Bcc     0.0065     3.490     1.245     1.164  0.8017 -0.5185 -0.2974
 
              Baa    -0.0044    -2.366    -0.844    -0.789  0.6109  0.7125 -0.3451
    29 H(1)   Bbb    -0.0042    -2.216    -0.791    -0.739  0.6800 -0.2490  0.6897
              Bcc     0.0086     4.582     1.635     1.529 -0.4055  0.6559  0.6366
 
              Baa    -0.0030    -1.623    -0.579    -0.541  0.8126  0.2606  0.5213
    30 H(1)   Bbb    -0.0028    -1.515    -0.541    -0.505 -0.2986 -0.5821  0.7563
              Bcc     0.0059     3.138     1.120     1.047 -0.5005  0.7703  0.3952
 
              Baa    -0.0071    -3.776    -1.347    -1.260  0.8499  0.3450  0.3984
    31 H(1)   Bbb    -0.0060    -3.218    -1.148    -1.073 -0.3316 -0.2375  0.9130
              Bcc     0.0131     6.994     2.496     2.333 -0.4096  0.9080  0.0875
 
              Baa    -0.0072    -3.848    -1.373    -1.283  0.3339 -0.2066  0.9197
    32 H(1)   Bbb    -0.0070    -3.719    -1.327    -1.240  0.9304 -0.0839 -0.3567
              Bcc     0.0142     7.566     2.700     2.524  0.1509  0.9748  0.1642
 
              Baa    -0.0150    -8.007    -2.857    -2.671  0.9123  0.0567  0.4055
    33 H(1)   Bbb    -0.0134    -7.166    -2.557    -2.390 -0.4093  0.1471  0.9005
              Bcc     0.0284    15.173     5.414     5.061  0.0086  0.9875 -0.1574
 
              Baa    -0.0200   -10.674    -3.809    -3.560 -0.5693  0.1515  0.8080
    34 H(1)   Bbb    -0.0189   -10.077    -3.596    -3.361  0.7114 -0.4018  0.5766
              Bcc     0.0389    20.751     7.404     6.922  0.4120  0.9031  0.1210
 
              Baa    -0.0064    -3.394    -1.211    -1.132 -0.3805 -0.6012  0.7027
    35 H(1)   Bbb    -0.0060    -3.191    -1.139    -1.064  0.9235 -0.2872  0.2543
              Bcc     0.0123     6.585     2.350     2.196  0.0489  0.7457  0.6645
 
              Baa    -0.0170    -9.097    -3.246    -3.034  0.4260  0.6498 -0.6295
    36 H(1)   Bbb    -0.0128    -6.843    -2.442    -2.283  0.8772 -0.4669  0.1115
              Bcc     0.0299    15.940     5.688     5.317  0.2214  0.5997  0.7690
 
              Baa    -0.0104    -5.526    -1.972    -1.843  0.4801  0.7956 -0.3696
    37 H(1)   Bbb    -0.0097    -5.157    -1.840    -1.720  0.8591 -0.3413  0.3814
              Bcc     0.0200    10.684     3.812     3.564 -0.1773  0.5006  0.8473
 
              Baa    -0.0077     0.561     0.200     0.187  0.3586 -0.2457  0.9006
    38 O(17)  Bbb    -0.0069     0.499     0.178     0.166 -0.0235  0.9621  0.2718
              Bcc     0.0146    -1.060    -0.378    -0.353  0.9332  0.1187 -0.3393
 
              Baa    -0.0049     0.353     0.126     0.118  0.1094  0.9223 -0.3708
    39 O(17)  Bbb    -0.0012     0.086     0.031     0.029  0.2643  0.3326  0.9053
              Bcc     0.0061    -0.439    -0.157    -0.146  0.9582 -0.1970 -0.2073
 
              Baa    -0.0042    -0.565    -0.202    -0.188  0.2214  0.0011  0.9752
    40 C(13)  Bbb    -0.0039    -0.528    -0.189    -0.176 -0.2549  0.9653  0.0567
              Bcc     0.0081     1.093     0.390     0.365  0.9413  0.2611 -0.2140
 
              Baa    -0.0045    -0.598    -0.213    -0.199  0.3918 -0.1250  0.9115
    41 C(13)  Bbb    -0.0038    -0.514    -0.183    -0.171 -0.3518  0.8951  0.2739
              Bcc     0.0083     1.112     0.397     0.371  0.8502  0.4280 -0.3067
 
              Baa    -0.0042    -2.230    -0.796    -0.744 -0.0128  0.1150  0.9933
    42 H(1)   Bbb    -0.0039    -2.103    -0.750    -0.701 -0.2495  0.9616 -0.1146
              Bcc     0.0081     4.333     1.546     1.445  0.9683  0.2493 -0.0164
 
              Baa    -0.0026    -1.398    -0.499    -0.466  0.2733 -0.0430  0.9610
    43 H(1)   Bbb    -0.0025    -1.332    -0.475    -0.444 -0.1757  0.9800  0.0938
              Bcc     0.0051     2.730     0.974     0.911  0.9457  0.1945 -0.2603
 
              Baa    -0.0025    -1.347    -0.481    -0.449  0.4446 -0.3828  0.8098
    44 H(1)   Bbb    -0.0024    -1.300    -0.464    -0.434 -0.3634  0.7493  0.5537
              Bcc     0.0050     2.647     0.945     0.883  0.8187  0.5404 -0.1940
 
              Baa    -0.0033    -1.760    -0.628    -0.587  0.6538 -0.6142  0.4419
    45 H(1)   Bbb    -0.0032    -1.705    -0.608    -0.569  0.0754  0.6339  0.7697
              Bcc     0.0065     3.465     1.236     1.156  0.7529  0.4699 -0.4608
 
              Baa    -0.0065    -3.483    -1.243    -1.162  0.3962 -0.1511  0.9056
    46 H(1)   Bbb    -0.0060    -3.207    -1.144    -1.070 -0.4877  0.8011  0.3470
              Bcc     0.0125     6.690     2.387     2.232  0.7779  0.5791 -0.2438
 

 ---------------------------------------------------------------------------------

 No NMR shielding tensors so no spin-rotation constants.
 Leave Link  601 at Sun Jun 20 08:17:29 2021, MaxMem=  2147483648 cpu:             103.5 elap:               6.7
 (Enter /SFS/product/gaussian/g16.a03/x86_64/avx/g16/l9999.exe)
 1\1\GINC-WPPHPCPX032\SP\UB3LYP\Jul-CC-pVDZ\C17H22Cl3Fe1O3(6)\KWANEU\20
 -Jun-2021\0\\#p ub3lyp jul-cc-pvdz pop=cm5 scrf=(pcm,solvent=water) gu
 ess=read geom=allcheck\\title\\0,6\C,0,1.6332828232,-2.1581557945,1.74
 00115617\C,0,1.1289054689,-1.0403952646,1.0612419514\C,0,1.203031866,0
 .2145445599,1.6863306091\C,0,1.7389850248,0.3411683323,2.9678092125\C,
 0,2.2340036892,-0.7807138378,3.6393362246\C,0,2.186757196,-2.029675588
 6,3.0176528041\C,0,0.5754950561,-1.1633400952,-0.337984757\C,0,1.50565
 27296,-0.6692235476,-1.4972906187\C,0,2.0757760266,-1.9768668816,-2.08
 34342423\C,0,0.9025005864,-2.9764867209,-2.0758908058\C,0,0.0629645665
 ,-2.5913446268,-0.8460313348\C,0,-1.3646441686,-2.0100471897,-0.999350
 2744\C,0,-1.931030916,-1.8352917116,-2.3891393802\O,0,-0.8170713698,-0
 .6013040629,-0.4743645828\Fe,0,-1.9596526652,0.9293128838,0.2506956177
 \Cl,0,-3.7998068787,0.8846954342,-0.9643926294\C,0,-2.3641960737,-2.55
 49295619,-0.002699809\Cl,0,-0.8775124934,2.8192163254,-0.0426308329\Cl
 ,0,-2.406560576,0.4866888095,2.3541477106\H,0,0.8402740712,1.106392505
 7,1.1766321373\H,0,1.7686902881,1.3226833593,3.4423387484\H,0,2.656280
 4432,-0.6804440664,4.6401847662\H,0,2.578112786,-2.9118738293,3.526062
 4349\H,0,1.6159520419,-3.1432984565,1.2755102446\H,0,0.8605914985,-0.1
 66578037,-2.2281946485\C,0,2.6200192118,0.2943326501,-1.1097547583\H,0
 ,2.5021486734,-1.820029607,-3.0829081799\H,0,2.8910098063,-2.322115356
 5,-1.4334757333\H,0,0.3214827288,-2.8975130251,-3.0029262172\H,0,1.254
 8926155,-4.0139673218,-2.0129700342\H,0,0.0812764883,-3.3584853081,-0.
 068020652\H,0,-2.6067132646,-3.5880407518,-0.295831913\H,0,-1.95186069
 82,-2.5706316187,1.0127069831\H,0,-3.2935353984,-1.9727507794,-0.00342
 31886\H,0,-2.1621386348,-2.8289759606,-2.801557842\H,0,-2.8584144056,-
 1.2535971699,-2.3541996646\H,0,-1.2305928316,-1.3351029356,-3.06680521
 8\O,0,2.2793493152,1.5679833621,-1.3711256536\O,0,3.6914157251,-0.0454
 57896,-0.6541279907\C,0,3.2701312789,2.5818278663,-1.0405875149\C,0,2.
 7389860021,3.9179950896,-1.5179042853\H,0,3.428773731,2.5599873046,0.0
 462873461\H,0,4.2166681005,2.3082305687,-1.5255491522\H,0,3.4647036681
 ,4.7058950543,-1.2694867682\H,0,2.5898957437,3.9161302618,-2.606640503
 1\H,0,1.782698124,4.156952636,-1.0346691671\\Version=ES64L-G16RevA.03\
 State=6-A\HF=-3531.459958\S2=8.761213\S2-1=0.\S2A=8.750039\RMSD=6.758e
 -09\Dipole=1.583113,-2.9644314,-1.5224269\Quadrupole=-18.1382062,13.13
 54753,5.0027309,13.2888041,4.7367992,3.4494298\PG=C01 [X(C17H22Cl3Fe1O
 3)]\\@


 JUST WHEN YOU THINK YOU'VE GOT THE WORLD ON A STRING,
 YOU FIND OUT IT'S YOUR LEASH.
 Job cpu time:       0 days  5 hours 35 minutes 22.8 seconds.
 Elapsed time:       0 days  0 hours 21 minutes  1.5 seconds.
 File lengths (MBytes):  RWF=    662 Int=      0 D2E=      0 Chk=     57 Scr=      1
 Normal termination of Gaussian 16 at Sun Jun 20 08:17:30 2021.
