 Entering Gaussian System, Link 0=g16
 Input=prenyl-first_betaine_grid-CC_230_CO_230-b3lyp_d3bj-juldz-gas.gjf
 Output=prenyl-first_betaine_grid-CC_230_CO_230-b3lyp_d3bj-juldz-gas.out
 Initial command:
 /SFS/product/gaussian/g16.a03/x86_64/avx/g16/l1.exe "/scratch/kwaneu.2874302.bmbhpcps002/Gau-69005.inp" -scrdir="/scratch/kwaneu.2874302.bmbhpcps002/"
 Entering Link 1 = /SFS/product/gaussian/g16.a03/x86_64/avx/g16/l1.exe PID=     69006.
  
 Copyright (c) 1988,1990,1992,1993,1995,1998,2003,2009,2016,
            Gaussian, Inc.  All Rights Reserved.
  
 This is part of the Gaussian(R) 16 program.  It is based on
 the Gaussian(R) 09 system (copyright 2009, Gaussian, Inc.),
 the Gaussian(R) 03 system (copyright 2003, Gaussian, Inc.),
 the Gaussian(R) 98 system (copyright 1998, Gaussian, Inc.),
 the Gaussian(R) 94 system (copyright 1995, Gaussian, Inc.),
 the Gaussian 92(TM) system (copyright 1992, Gaussian, Inc.),
 the Gaussian 90(TM) system (copyright 1990, Gaussian, Inc.),
 the Gaussian 88(TM) system (copyright 1988, Gaussian, Inc.),
 the Gaussian 86(TM) system (copyright 1986, Carnegie Mellon
 University), and the Gaussian 82(TM) system (copyright 1983,
 Carnegie Mellon University). Gaussian is a federally registered
 trademark of Gaussian, Inc.
  
 This software contains proprietary and confidential information,
 including trade secrets, belonging to Gaussian, Inc.
  
 This software is provided under written license and may be
 used, copied, transmitted, or stored only in accord with that
 written license.
  
 The following legend is applicable only to US Government
 contracts under FAR:
  
                    RESTRICTED RIGHTS LEGEND
  
 Use, reproduction and disclosure by the US Government is
 subject to restrictions as set forth in subparagraphs (a)
 and (c) of the Commercial Computer Software - Restricted
 Rights clause in FAR 52.227-19.
  
 Gaussian, Inc.
 340 Quinnipiac St., Bldg. 40, Wallingford CT 06492
  
  
 ---------------------------------------------------------------
 Warning -- This program may not be used in any manner that
 competes with the business of Gaussian, Inc. or will provide
 assistance to any competitor of Gaussian, Inc.  The licensee
 of this program is prohibited from giving any competitor of
 Gaussian, Inc. access to this program.  By using this program,
 the user acknowledges that Gaussian, Inc. is engaged in the
 business of creating and licensing software in the field of
 computational chemistry and represents and warrants to the
 licensee that it is not a competitor of Gaussian, Inc. and that
 it will not use this program in any manner prohibited above.
 ---------------------------------------------------------------
  

 Cite this work as:
 Gaussian 16, Revision A.03,
 M. J. Frisch, G. W. Trucks, H. B. Schlegel, G. E. Scuseria, 
 M. A. Robb, J. R. Cheeseman, G. Scalmani, V. Barone, 
 G. A. Petersson, H. Nakatsuji, X. Li, M. Caricato, A. V. Marenich, 
 J. Bloino, B. G. Janesko, R. Gomperts, B. Mennucci, H. P. Hratchian, 
 J. V. Ortiz, A. F. Izmaylov, J. L. Sonnenberg, D. Williams-Young, 
 F. Ding, F. Lipparini, F. Egidi, J. Goings, B. Peng, A. Petrone, 
 T. Henderson, D. Ranasinghe, V. G. Zakrzewski, J. Gao, N. Rega, 
 G. Zheng, W. Liang, M. Hada, M. Ehara, K. Toyota, R. Fukuda, 
 J. Hasegawa, M. Ishida, T. Nakajima, Y. Honda, O. Kitao, H. Nakai, 
 T. Vreven, K. Throssell, J. A. Montgomery, Jr., J. E. Peralta, 
 F. Ogliaro, M. J. Bearpark, J. J. Heyd, E. N. Brothers, K. N. Kudin, 
 V. N. Staroverov, T. A. Keith, R. Kobayashi, J. Normand, 
 K. Raghavachari, A. P. Rendell, J. C. Burant, S. S. Iyengar, 
 J. Tomasi, M. Cossi, J. M. Millam, M. Klene, C. Adamo, R. Cammi, 
 J. W. Ochterski, R. L. Martin, K. Morokuma, O. Farkas, 
 J. B. Foresman, and D. J. Fox, Gaussian, Inc., Wallingford CT, 2016.
 
 ******************************************
 Gaussian 16:  ES64L-G16RevA.03 25-Dec-2016
                20-Jun-2021 
 ******************************************
 %chk=checkpoint.chk
 %nprocshared=16
 Will use up to   16 processors via shared memory.
 %mem=16GB
 -----------------------------------------------------------
 #p opt=modredundant freq=noraman ub3lyp jul-cc-pvdz pop=cm5
 -----------------------------------------------------------
 1/18=120,19=15,26=3,38=1/1,3;
 2/9=110,12=2,17=6,18=5,40=1/2;
 3/5=16,7=50,11=2,25=1,30=1,71=1,74=-5,116=2/1,2,3;
 4//1;
 5/5=2,38=5/2;
 6/7=2,8=2,9=2,10=2,28=1,79=1/1;
 7//1,2,3,16;
 1/18=20,19=15,26=3/3(2);
 2/9=110/2;
 99//99;
 2/9=110/2;
 3/5=16,7=50,11=2,25=1,30=1,71=1,74=-5,116=2/1,2,3;
 4/5=5,16=3,69=1/1;
 5/5=2,38=5/2;
 7//1,2,3,16;
 1/18=20,19=15,26=3/3(-5);
 2/9=110/2;
 6/7=2,8=2,9=2,10=2,19=2,28=1,79=1/1;
 99/9=1/99;
 Leave Link    1 at Sun Jun 20 07:28:55 2021, MaxMem=  2147483648 cpu:               1.4 elap:               0.1
 (Enter /SFS/product/gaussian/g16.a03/x86_64/avx/g16/l101.exe)
 -----
 title
 -----
 Symbolic Z-matrix:
 Charge =  0 Multiplicity = 6
 6                    -3.16103  -0.1577    0.61646 
 6                    -1.8604    0.37265   0.74564 
 6                    -1.45743   0.87736   1.99939 
 6                    -2.33078   0.86829   3.08186 
 6                    -3.62056   0.35345   2.93586 
 6                    -4.02856  -0.16446   1.70347 
 6                    -0.87709   0.37978  -0.36449 
 6                    -1.03224  -0.53249  -1.60455 
 6                    -2.08537  -0.06765  -2.62352 
 6                    -1.86651   1.42827  -2.90679 
 6                    -1.67339   2.14844  -1.60052 
 6                    -0.50788   2.68543  -1.14554 
 6                     0.76653   2.7047   -1.94319 
 8                     0.307     0.8069   -0.09812 
 26                    2.04908   0.17688   0.40944 
 17                    2.96815  -0.72222  -1.37942 
 6                    -0.49118   3.5146    0.10338 
 17                    1.81783  -1.1965    2.11344 
 17                    3.08501   2.02029   1.04856 
 1                    -0.45032   1.25435   2.1196 
 1                    -1.99931   1.25241   4.04183 
 1                    -4.30214   0.34375   3.78191 
 1                    -5.02422  -0.58283   1.58991 
 1                    -3.49107  -0.59498  -0.31591 
 1                    -0.0441   -0.5109   -2.07527 
 6                    -1.2804   -1.99181  -1.17765 
 1                    -1.99356  -0.66926  -3.53401 
 1                    -3.09371  -0.24354  -2.24247 
 1                    -1.00055   1.56101  -3.56228 
 1                    -2.73238   1.83671  -3.44223 
 1                    -2.57314   2.32698  -1.01613 
 1                    -1.42793   3.45341   0.66312 
 1                     0.3485    3.24131   0.75033 
 1                    -0.33534   4.56542  -0.18073 
 1                     0.74487   3.5946   -2.59009 
 1                     1.64136   2.79617  -1.29593 
 1                     0.90053   1.83429  -2.58711 
 8                    -0.17196  -2.52499  -0.65999 
 8                    -2.33629  -2.57237  -1.31616 
 6                    -0.25     -3.91531  -0.22604 
 6                     1.16309  -4.40665   0.01304 
 1                    -0.86003  -3.94546   0.68218 
 1                    -0.76704  -4.48338  -1.00386 
 1                     1.13071  -5.45253   0.33856 
 1                     1.75698  -4.34701  -0.90406 
 1                     1.65807  -3.81394   0.7866 
 
 The following ModRedundant input section has been read:
 B       7      11 F                                                           
 B      12      14 F                                                           
 
 ITRead=  0  0  0  0  0  0  0  0  0  0  0  0  0  0  0  0  0  0  0  0
 ITRead=  0  0  0  0  0  0  0  0  0  0  0  0  0  0  0  0  0  0  0  0
 ITRead=  0  0  0  0  0  0
 MicOpt= -1 -1 -1 -1 -1 -1 -1 -1 -1 -1 -1 -1 -1 -1 -1 -1 -1 -1 -1 -1
 MicOpt= -1 -1 -1 -1 -1 -1 -1 -1 -1 -1 -1 -1 -1 -1 -1 -1 -1 -1 -1 -1
 MicOpt= -1 -1 -1 -1 -1 -1
 NAtoms=     46 NQM=       46 NQMF=       0 NMMI=      0 NMMIF=      0
                NMic=       0 NMicF=      0.
                    Isotopes and Nuclear Properties:
 (Nuclear quadrupole moments (NQMom) in fm**2, nuclear magnetic moments (NMagM)
  in nuclear magnetons)

  Atom         1           2           3           4           5           6           7           8           9          10
 IAtWgt=          12          12          12          12          12          12          12          12          12          12
 AtmWgt=  12.0000000  12.0000000  12.0000000  12.0000000  12.0000000  12.0000000  12.0000000  12.0000000  12.0000000  12.0000000
 NucSpn=           0           0           0           0           0           0           0           0           0           0
 AtZEff=  -0.0000000  -0.0000000  -0.0000000  -0.0000000  -0.0000000  -0.0000000  -0.0000000  -0.0000000  -0.0000000  -0.0000000
 NQMom=    0.0000000   0.0000000   0.0000000   0.0000000   0.0000000   0.0000000   0.0000000   0.0000000   0.0000000   0.0000000
 NMagM=    0.0000000   0.0000000   0.0000000   0.0000000   0.0000000   0.0000000   0.0000000   0.0000000   0.0000000   0.0000000
 AtZNuc=   6.0000000   6.0000000   6.0000000   6.0000000   6.0000000   6.0000000   6.0000000   6.0000000   6.0000000   6.0000000

  Atom        11          12          13          14          15          16          17          18          19          20
 IAtWgt=          12          12          12          16          56          35          12          35          35           1
 AtmWgt=  12.0000000  12.0000000  12.0000000  15.9949146  55.9349393  34.9688527  12.0000000  34.9688527  34.9688527   1.0078250
 NucSpn=           0           0           0           0           0           3           0           3           3           1
 AtZEff=  -0.0000000  -0.0000000  -0.0000000  -0.0000000  -0.0000000  -0.0000000  -0.0000000  -0.0000000  -0.0000000  -0.0000000
 NQMom=    0.0000000   0.0000000   0.0000000   0.0000000   0.0000000  -8.1650000   0.0000000  -8.1650000  -8.1650000   0.0000000
 NMagM=    0.0000000   0.0000000   0.0000000   0.0000000   0.0000000   0.8218740   0.0000000   0.8218740   0.8218740   2.7928460
 AtZNuc=   6.0000000   6.0000000   6.0000000   8.0000000  26.0000000  17.0000000   6.0000000  17.0000000  17.0000000   1.0000000

  Atom        21          22          23          24          25          26          27          28          29          30
 IAtWgt=           1           1           1           1           1          12           1           1           1           1
 AtmWgt=   1.0078250   1.0078250   1.0078250   1.0078250   1.0078250  12.0000000   1.0078250   1.0078250   1.0078250   1.0078250
 NucSpn=           1           1           1           1           1           0           1           1           1           1
 AtZEff=  -0.0000000  -0.0000000  -0.0000000  -0.0000000  -0.0000000  -0.0000000  -0.0000000  -0.0000000  -0.0000000  -0.0000000
 NQMom=    0.0000000   0.0000000   0.0000000   0.0000000   0.0000000   0.0000000   0.0000000   0.0000000   0.0000000   0.0000000
 NMagM=    2.7928460   2.7928460   2.7928460   2.7928460   2.7928460   0.0000000   2.7928460   2.7928460   2.7928460   2.7928460
 AtZNuc=   1.0000000   1.0000000   1.0000000   1.0000000   1.0000000   6.0000000   1.0000000   1.0000000   1.0000000   1.0000000

  Atom        31          32          33          34          35          36          37          38          39          40
 IAtWgt=           1           1           1           1           1           1           1          16          16          12
 AtmWgt=   1.0078250   1.0078250   1.0078250   1.0078250   1.0078250   1.0078250   1.0078250  15.9949146  15.9949146  12.0000000
 NucSpn=           1           1           1           1           1           1           1           0           0           0
 AtZEff=  -0.0000000  -0.0000000  -0.0000000  -0.0000000  -0.0000000  -0.0000000  -0.0000000  -0.0000000  -0.0000000  -0.0000000
 NQMom=    0.0000000   0.0000000   0.0000000   0.0000000   0.0000000   0.0000000   0.0000000   0.0000000   0.0000000   0.0000000
 NMagM=    2.7928460   2.7928460   2.7928460   2.7928460   2.7928460   2.7928460   2.7928460   0.0000000   0.0000000   0.0000000
 AtZNuc=   1.0000000   1.0000000   1.0000000   1.0000000   1.0000000   1.0000000   1.0000000   8.0000000   8.0000000   6.0000000

  Atom        41          42          43          44          45          46
 IAtWgt=          12           1           1           1           1           1
 AtmWgt=  12.0000000   1.0078250   1.0078250   1.0078250   1.0078250   1.0078250
 NucSpn=           0           1           1           1           1           1
 AtZEff=  -0.0000000  -0.0000000  -0.0000000  -0.0000000  -0.0000000  -0.0000000
 NQMom=    0.0000000   0.0000000   0.0000000   0.0000000   0.0000000   0.0000000
 NMagM=    0.0000000   2.7928460   2.7928460   2.7928460   2.7928460   2.7928460
 AtZNuc=   6.0000000   1.0000000   1.0000000   1.0000000   1.0000000   1.0000000
 Leave Link  101 at Sun Jun 20 07:28:55 2021, MaxMem=  2147483648 cpu:               5.4 elap:               0.4
 (Enter /SFS/product/gaussian/g16.a03/x86_64/avx/g16/l103.exe)

 GradGradGradGradGradGradGradGradGradGradGradGradGradGradGradGradGradGrad
 Berny optimization.
 Initialization pass.
                           ----------------------------
                           !    Initial Parameters    !
                           ! (Angstroms and Degrees)  !
 --------------------------                            --------------------------
 ! Name  Definition              Value          Derivative Info.                !
 --------------------------------------------------------------------------------
 ! R1    R(1,2)                  1.4105         estimate D2E/DX2                !
 ! R2    R(1,6)                  1.3908         estimate D2E/DX2                !
 ! R3    R(1,24)                 1.0814         estimate D2E/DX2                !
 ! R4    R(2,3)                  1.4103         estimate D2E/DX2                !
 ! R5    R(2,7)                  1.483          estimate D2E/DX2                !
 ! R6    R(3,4)                  1.3909         estimate D2E/DX2                !
 ! R7    R(3,20)                 1.082          estimate D2E/DX2                !
 ! R8    R(4,5)                  1.3964         estimate D2E/DX2                !
 ! R9    R(4,21)                 1.0858         estimate D2E/DX2                !
 ! R10   R(5,6)                  1.3977         estimate D2E/DX2                !
 ! R11   R(5,22)                 1.0865         estimate D2E/DX2                !
 ! R12   R(6,23)                 1.0859         estimate D2E/DX2                !
 ! R13   R(7,8)                  1.5473         estimate D2E/DX2                !
 ! R14   R(7,11)                 2.3            Frozen                          !
 ! R15   R(7,14)                 1.2866         estimate D2E/DX2                !
 ! R16   R(8,9)                  1.5374         estimate D2E/DX2                !
 ! R17   R(8,25)                 1.0947         estimate D2E/DX2                !
 ! R18   R(8,26)                 1.5406         estimate D2E/DX2                !
 ! R19   R(9,10)                 1.5382         estimate D2E/DX2                !
 ! R20   R(9,27)                 1.0952         estimate D2E/DX2                !
 ! R21   R(9,28)                 1.0922         estimate D2E/DX2                !
 ! R22   R(10,11)                1.5041         estimate D2E/DX2                !
 ! R23   R(10,29)                1.0942         estimate D2E/DX2                !
 ! R24   R(10,30)                1.0969         estimate D2E/DX2                !
 ! R25   R(11,12)                1.3615         estimate D2E/DX2                !
 ! R26   R(11,31)                1.0876         estimate D2E/DX2                !
 ! R27   R(12,13)                1.5036         estimate D2E/DX2                !
 ! R28   R(12,14)                2.3            Frozen                          !
 ! R29   R(12,17)                1.4992         estimate D2E/DX2                !
 ! R30   R(13,35)                1.1004         estimate D2E/DX2                !
 ! R31   R(13,36)                1.0921         estimate D2E/DX2                !
 ! R32   R(13,37)                1.091          estimate D2E/DX2                !
 ! R33   R(14,15)                1.9208         estimate D2E/DX2                !
 ! R34   R(15,16)                2.203          estimate D2E/DX2                !
 ! R35   R(15,18)                2.2007         estimate D2E/DX2                !
 ! R36   R(15,19)                2.209          estimate D2E/DX2                !
 ! R37   R(17,32)                1.093          estimate D2E/DX2                !
 ! R38   R(17,33)                1.0947         estimate D2E/DX2                !
 ! R39   R(17,34)                1.0996         estimate D2E/DX2                !
 ! R40   R(26,38)                1.3345         estimate D2E/DX2                !
 ! R41   R(26,39)                1.2129         estimate D2E/DX2                !
 ! R42   R(38,40)                1.4586         estimate D2E/DX2                !
 ! R43   R(40,41)                1.5151         estimate D2E/DX2                !
 ! R44   R(40,42)                1.0945         estimate D2E/DX2                !
 ! R45   R(40,43)                1.0932         estimate D2E/DX2                !
 ! R46   R(41,44)                1.0958         estimate D2E/DX2                !
 ! R47   R(41,45)                1.0942         estimate D2E/DX2                !
 ! R48   R(41,46)                1.093          estimate D2E/DX2                !
 ! A1    A(2,1,6)              120.3592         estimate D2E/DX2                !
 ! A2    A(2,1,24)             120.8241         estimate D2E/DX2                !
 ! A3    A(6,1,24)             118.786          estimate D2E/DX2                !
 ! A4    A(1,2,3)              118.6489         estimate D2E/DX2                !
 ! A5    A(1,2,7)              123.0            estimate D2E/DX2                !
 ! A6    A(3,2,7)              118.3127         estimate D2E/DX2                !
 ! A7    A(2,3,4)              120.6711         estimate D2E/DX2                !
 ! A8    A(2,3,20)             119.3007         estimate D2E/DX2                !
 ! A9    A(4,3,20)             120.0149         estimate D2E/DX2                !
 ! A10   A(3,4,5)              120.0663         estimate D2E/DX2                !
 ! A11   A(3,4,21)             119.6085         estimate D2E/DX2                !
 ! A12   A(5,4,21)             120.3211         estimate D2E/DX2                !
 ! A13   A(4,5,6)              119.8969         estimate D2E/DX2                !
 ! A14   A(4,5,22)             120.0864         estimate D2E/DX2                !
 ! A15   A(6,5,22)             120.0122         estimate D2E/DX2                !
 ! A16   A(1,6,5)              120.3496         estimate D2E/DX2                !
 ! A17   A(1,6,23)             119.4755         estimate D2E/DX2                !
 ! A18   A(5,6,23)             120.1731         estimate D2E/DX2                !
 ! A19   A(2,7,8)              122.0467         estimate D2E/DX2                !
 ! A20   A(2,7,14)             117.1819         estimate D2E/DX2                !
 ! A21   A(8,7,14)             116.9962         estimate D2E/DX2                !
 ! A22   A(7,8,9)              114.9368         estimate D2E/DX2                !
 ! A23   A(7,8,25)             104.032          estimate D2E/DX2                !
 ! A24   A(7,8,26)             110.6447         estimate D2E/DX2                !
 ! A25   A(9,8,25)             109.1087         estimate D2E/DX2                !
 ! A26   A(9,8,26)             111.0837         estimate D2E/DX2                !
 ! A27   A(25,8,26)            106.4529         estimate D2E/DX2                !
 ! A28   A(8,9,10)             108.5818         estimate D2E/DX2                !
 ! A29   A(8,9,27)             109.1185         estimate D2E/DX2                !
 ! A30   A(8,9,28)             110.6405         estimate D2E/DX2                !
 ! A31   A(10,9,27)            111.6668         estimate D2E/DX2                !
 ! A32   A(10,9,28)            110.6243         estimate D2E/DX2                !
 ! A33   A(27,9,28)            106.1993         estimate D2E/DX2                !
 ! A34   A(9,10,11)            108.9042         estimate D2E/DX2                !
 ! A35   A(9,10,29)            109.9337         estimate D2E/DX2                !
 ! A36   A(9,10,30)            109.8589         estimate D2E/DX2                !
 ! A37   A(11,10,29)           111.1357         estimate D2E/DX2                !
 ! A38   A(11,10,30)           110.3037         estimate D2E/DX2                !
 ! A39   A(29,10,30)           106.6865         estimate D2E/DX2                !
 ! A40   A(10,11,12)           126.0842         estimate D2E/DX2                !
 ! A41   A(10,11,31)           116.0413         estimate D2E/DX2                !
 ! A42   A(12,11,31)           117.6364         estimate D2E/DX2                !
 ! A43   A(11,12,13)           123.596          estimate D2E/DX2                !
 ! A44   A(11,12,17)           120.4011         estimate D2E/DX2                !
 ! A45   A(13,12,17)           115.1766         estimate D2E/DX2                !
 ! A46   A(12,13,35)           107.7913         estimate D2E/DX2                !
 ! A47   A(12,13,36)           111.4461         estimate D2E/DX2                !
 ! A48   A(12,13,37)           114.0166         estimate D2E/DX2                !
 ! A49   A(35,13,36)           107.245          estimate D2E/DX2                !
 ! A50   A(35,13,37)           107.4961         estimate D2E/DX2                !
 ! A51   A(36,13,37)           108.5578         estimate D2E/DX2                !
 ! A52   A(7,14,15)            141.3062         estimate D2E/DX2                !
 ! A53   A(14,15,16)           107.3179         estimate D2E/DX2                !
 ! A54   A(14,15,18)           108.2998         estimate D2E/DX2                !
 ! A55   A(14,15,19)           103.1829         estimate D2E/DX2                !
 ! A56   A(16,15,18)           114.7009         estimate D2E/DX2                !
 ! A57   A(16,15,19)           112.3257         estimate D2E/DX2                !
 ! A58   A(18,15,19)           110.2445         estimate D2E/DX2                !
 ! A59   A(12,17,32)           112.7139         estimate D2E/DX2                !
 ! A60   A(12,17,33)           111.2728         estimate D2E/DX2                !
 ! A61   A(12,17,34)           108.3523         estimate D2E/DX2                !
 ! A62   A(32,17,33)           109.9249         estimate D2E/DX2                !
 ! A63   A(32,17,34)           107.895          estimate D2E/DX2                !
 ! A64   A(33,17,34)           106.4128         estimate D2E/DX2                !
 ! A65   A(8,26,38)            110.6192         estimate D2E/DX2                !
 ! A66   A(8,26,39)            124.1931         estimate D2E/DX2                !
 ! A67   A(38,26,39)           125.179          estimate D2E/DX2                !
 ! A68   A(26,38,40)           116.8604         estimate D2E/DX2                !
 ! A69   A(38,40,41)           107.8293         estimate D2E/DX2                !
 ! A70   A(38,40,42)           107.6355         estimate D2E/DX2                !
 ! A71   A(38,40,43)           107.9963         estimate D2E/DX2                !
 ! A72   A(41,40,42)           112.332          estimate D2E/DX2                !
 ! A73   A(41,40,43)           112.6374         estimate D2E/DX2                !
 ! A74   A(42,40,43)           108.2092         estimate D2E/DX2                !
 ! A75   A(40,41,44)           109.1979         estimate D2E/DX2                !
 ! A76   A(40,41,45)           110.8723         estimate D2E/DX2                !
 ! A77   A(40,41,46)           110.9896         estimate D2E/DX2                !
 ! A78   A(44,41,45)           108.4825         estimate D2E/DX2                !
 ! A79   A(44,41,46)           108.7048         estimate D2E/DX2                !
 ! A80   A(45,41,46)           108.5314         estimate D2E/DX2                !
 ! D1    D(6,1,2,3)              0.7756         estimate D2E/DX2                !
 ! D2    D(6,1,2,7)            178.4803         estimate D2E/DX2                !
 ! D3    D(24,1,2,3)          -177.1868         estimate D2E/DX2                !
 ! D4    D(24,1,2,7)             0.5178         estimate D2E/DX2                !
 ! D5    D(2,1,6,5)             -0.0422         estimate D2E/DX2                !
 ! D6    D(2,1,6,23)          -179.5611         estimate D2E/DX2                !
 ! D7    D(24,1,6,5)           177.9614         estimate D2E/DX2                !
 ! D8    D(24,1,6,23)           -1.5575         estimate D2E/DX2                !
 ! D9    D(1,2,3,4)             -0.8286         estimate D2E/DX2                !
 ! D10   D(1,2,3,20)           177.8399         estimate D2E/DX2                !
 ! D11   D(7,2,3,4)           -178.642          estimate D2E/DX2                !
 ! D12   D(7,2,3,20)             0.0265         estimate D2E/DX2                !
 ! D13   D(1,2,7,8)            -17.8802         estimate D2E/DX2                !
 ! D14   D(1,2,7,14)          -175.3231         estimate D2E/DX2                !
 ! D15   D(3,2,7,8)            159.8317         estimate D2E/DX2                !
 ! D16   D(3,2,7,14)             2.3888         estimate D2E/DX2                !
 ! D17   D(2,3,4,5)              0.1451         estimate D2E/DX2                !
 ! D18   D(2,3,4,21)           179.4119         estimate D2E/DX2                !
 ! D19   D(20,3,4,5)          -178.514          estimate D2E/DX2                !
 ! D20   D(20,3,4,21)            0.7528         estimate D2E/DX2                !
 ! D21   D(3,4,5,6)              0.6041         estimate D2E/DX2                !
 ! D22   D(3,4,5,22)           179.8357         estimate D2E/DX2                !
 ! D23   D(21,4,5,6)          -178.6574         estimate D2E/DX2                !
 ! D24   D(21,4,5,22)            0.5742         estimate D2E/DX2                !
 ! D25   D(4,5,6,1)             -0.6563         estimate D2E/DX2                !
 ! D26   D(4,5,6,23)           178.8592         estimate D2E/DX2                !
 ! D27   D(22,5,6,1)          -179.8885         estimate D2E/DX2                !
 ! D28   D(22,5,6,23)           -0.373          estimate D2E/DX2                !
 ! D29   D(2,7,8,9)             76.432          estimate D2E/DX2                !
 ! D30   D(2,7,8,25)          -164.3373         estimate D2E/DX2                !
 ! D31   D(2,7,8,26)           -50.3751         estimate D2E/DX2                !
 ! D32   D(14,7,8,9)          -126.0857         estimate D2E/DX2                !
 ! D33   D(14,7,8,25)           -6.8549         estimate D2E/DX2                !
 ! D34   D(14,7,8,26)          107.1072         estimate D2E/DX2                !
 ! D35   D(2,7,14,15)           94.686          estimate D2E/DX2                !
 ! D36   D(8,7,14,15)          -63.912          estimate D2E/DX2                !
 ! D37   D(7,8,9,10)            48.0615         estimate D2E/DX2                !
 ! D38   D(7,8,9,27)           169.9852         estimate D2E/DX2                !
 ! D39   D(7,8,9,28)           -73.5216         estimate D2E/DX2                !
 ! D40   D(25,8,9,10)          -68.3026         estimate D2E/DX2                !
 ! D41   D(25,8,9,27)           53.6211         estimate D2E/DX2                !
 ! D42   D(25,8,9,28)          170.1144         estimate D2E/DX2                !
 ! D43   D(26,8,9,10)          174.6441         estimate D2E/DX2                !
 ! D44   D(26,8,9,27)          -63.4323         estimate D2E/DX2                !
 ! D45   D(26,8,9,28)           53.061          estimate D2E/DX2                !
 ! D46   D(7,8,26,38)          -71.1643         estimate D2E/DX2                !
 ! D47   D(7,8,26,39)          109.8547         estimate D2E/DX2                !
 ! D48   D(9,8,26,38)          159.9231         estimate D2E/DX2                !
 ! D49   D(9,8,26,39)          -19.058          estimate D2E/DX2                !
 ! D50   D(25,8,26,38)          41.2581         estimate D2E/DX2                !
 ! D51   D(25,8,26,39)        -137.7229         estimate D2E/DX2                !
 ! D52   D(8,9,10,11)          -46.0776         estimate D2E/DX2                !
 ! D53   D(8,9,10,29)           75.9023         estimate D2E/DX2                !
 ! D54   D(8,9,10,30)         -166.9856         estimate D2E/DX2                !
 ! D55   D(27,9,10,11)        -166.4331         estimate D2E/DX2                !
 ! D56   D(27,9,10,29)         -44.4533         estimate D2E/DX2                !
 ! D57   D(27,9,10,30)          72.6589         estimate D2E/DX2                !
 ! D58   D(28,9,10,11)          75.5155         estimate D2E/DX2                !
 ! D59   D(28,9,10,29)        -162.5047         estimate D2E/DX2                !
 ! D60   D(28,9,10,30)         -45.3925         estimate D2E/DX2                !
 ! D61   D(9,10,11,12)         109.3248         estimate D2E/DX2                !
 ! D62   D(9,10,11,31)         -76.4433         estimate D2E/DX2                !
 ! D63   D(29,10,11,12)        -11.9236         estimate D2E/DX2                !
 ! D64   D(29,10,11,31)        162.3082         estimate D2E/DX2                !
 ! D65   D(30,10,11,12)       -130.0403         estimate D2E/DX2                !
 ! D66   D(30,10,11,31)         44.1916         estimate D2E/DX2                !
 ! D67   D(10,11,12,13)          3.8196         estimate D2E/DX2                !
 ! D68   D(10,11,12,17)        172.9003         estimate D2E/DX2                !
 ! D69   D(31,11,12,13)       -170.3301         estimate D2E/DX2                !
 ! D70   D(31,11,12,17)         -1.2494         estimate D2E/DX2                !
 ! D71   D(11,12,13,35)         85.4136         estimate D2E/DX2                !
 ! D72   D(11,12,13,36)       -157.1627         estimate D2E/DX2                !
 ! D73   D(11,12,13,37)        -33.8383         estimate D2E/DX2                !
 ! D74   D(17,12,13,35)        -84.1857         estimate D2E/DX2                !
 ! D75   D(17,12,13,36)         33.238          estimate D2E/DX2                !
 ! D76   D(17,12,13,37)        156.5624         estimate D2E/DX2                !
 ! D77   D(11,12,17,32)         11.3613         estimate D2E/DX2                !
 ! D78   D(11,12,17,33)        135.3774         estimate D2E/DX2                !
 ! D79   D(11,12,17,34)       -107.9675         estimate D2E/DX2                !
 ! D80   D(13,12,17,32)       -178.6794         estimate D2E/DX2                !
 ! D81   D(13,12,17,33)        -54.6632         estimate D2E/DX2                !
 ! D82   D(13,12,17,34)         61.9919         estimate D2E/DX2                !
 ! D83   D(7,14,15,16)          75.2463         estimate D2E/DX2                !
 ! D84   D(7,14,15,18)         -49.0978         estimate D2E/DX2                !
 ! D85   D(7,14,15,19)        -165.9563         estimate D2E/DX2                !
 ! D86   D(8,26,38,40)        -179.1775         estimate D2E/DX2                !
 ! D87   D(39,26,38,40)         -0.2086         estimate D2E/DX2                !
 ! D88   D(26,38,40,41)        166.8944         estimate D2E/DX2                !
 ! D89   D(26,38,40,42)        -71.7014         estimate D2E/DX2                !
 ! D90   D(26,38,40,43)         44.9163         estimate D2E/DX2                !
 ! D91   D(38,40,41,44)       -179.869          estimate D2E/DX2                !
 ! D92   D(38,40,41,45)        -60.3949         estimate D2E/DX2                !
 ! D93   D(38,40,41,46)         60.3096         estimate D2E/DX2                !
 ! D94   D(42,40,41,44)         61.6954         estimate D2E/DX2                !
 ! D95   D(42,40,41,45)       -178.8305         estimate D2E/DX2                !
 ! D96   D(42,40,41,46)        -58.1259         estimate D2E/DX2                !
 ! D97   D(43,40,41,44)        -60.8067         estimate D2E/DX2                !
 ! D98   D(43,40,41,45)         58.6673         estimate D2E/DX2                !
 ! D99   D(43,40,41,46)        179.3719         estimate D2E/DX2                !
 --------------------------------------------------------------------------------
 Trust Radius=3.00D-01 FncErr=1.00D-07 GrdErr=1.00D-06 EigMax=2.50D+02 EigMin=1.00D-04
 Number of steps in this run=    237 maximum allowed number of steps=    276.
 GradGradGradGradGradGradGradGradGradGradGradGradGradGradGradGradGradGrad

 Leave Link  103 at Sun Jun 20 07:28:55 2021, MaxMem=  2147483648 cpu:               0.2 elap:               0.1
 (Enter /SFS/product/gaussian/g16.a03/x86_64/avx/g16/l202.exe)
                          Input orientation:                          
 ---------------------------------------------------------------------
 Center     Atomic      Atomic             Coordinates (Angstroms)
 Number     Number       Type             X           Y           Z
 ---------------------------------------------------------------------
      1          6           0       -3.161033   -0.157701    0.616464
      2          6           0       -1.860399    0.372650    0.745643
      3          6           0       -1.457426    0.877364    1.999386
      4          6           0       -2.330780    0.868290    3.081863
      5          6           0       -3.620556    0.353445    2.935862
      6          6           0       -4.028558   -0.164456    1.703474
      7          6           0       -0.877088    0.379783   -0.364494
      8          6           0       -1.032240   -0.532493   -1.604548
      9          6           0       -2.085370   -0.067651   -2.623516
     10          6           0       -1.866510    1.428266   -2.906793
     11          6           0       -1.673386    2.148440   -1.600520
     12          6           0       -0.507879    2.685431   -1.145539
     13          6           0        0.766532    2.704698   -1.943188
     14          8           0        0.307001    0.806899   -0.098119
     15         26           0        2.049081    0.176879    0.409441
     16         17           0        2.968150   -0.722216   -1.379424
     17          6           0       -0.491179    3.514596    0.103381
     18         17           0        1.817828   -1.196497    2.113436
     19         17           0        3.085007    2.020295    1.048561
     20          1           0       -0.450324    1.254354    2.119603
     21          1           0       -1.999306    1.252413    4.041831
     22          1           0       -4.302144    0.343752    3.781914
     23          1           0       -5.024224   -0.582826    1.589910
     24          1           0       -3.491066   -0.594977   -0.315907
     25          1           0       -0.044100   -0.510896   -2.075267
     26          6           0       -1.280396   -1.991810   -1.177654
     27          1           0       -1.993564   -0.669258   -3.534014
     28          1           0       -3.093715   -0.243543   -2.242473
     29          1           0       -1.000550    1.561009   -3.562276
     30          1           0       -2.732381    1.836706   -3.442232
     31          1           0       -2.573141    2.326983   -1.016127
     32          1           0       -1.427928    3.453413    0.663121
     33          1           0        0.348502    3.241310    0.750332
     34          1           0       -0.335340    4.565417   -0.180730
     35          1           0        0.744871    3.594595   -2.590093
     36          1           0        1.641355    2.796174   -1.295932
     37          1           0        0.900530    1.834293   -2.587111
     38          8           0       -0.171963   -2.524990   -0.659987
     39          8           0       -2.336288   -2.572372   -1.316161
     40          6           0       -0.249995   -3.915308   -0.226041
     41          6           0        1.163094   -4.406647    0.013041
     42          1           0       -0.860027   -3.945459    0.682178
     43          1           0       -0.767043   -4.483381   -1.003858
     44          1           0        1.130712   -5.452529    0.338563
     45          1           0        1.756983   -4.347015   -0.904058
     46          1           0        1.658072   -3.813942    0.786596
 ---------------------------------------------------------------------
                    Distance matrix (angstroms):
                    1          2          3          4          5
     1  C    0.000000
     2  C    1.410535   0.000000
     3  C    2.426131   1.410317   0.000000
     4  C    2.796457   2.434100   1.390894   0.000000
     5  C    2.419099   2.809908   2.414666   1.396390   0.000000
     6  C    1.390768   2.430398   2.789923   2.418465   1.397665
     7  C    2.543142   1.483022   2.484413   3.772166   4.291813
     8  C    3.099213   2.651137   3.893176   5.060716   5.300905
     9  C    3.415059   3.405247   4.760104   5.786844   5.782802
    10  C    4.074852   3.801927   4.953931   6.032671   6.194234
    11  C    3.527945   2.948370   3.823820   4.898537   5.252832
    12  C    4.269342   3.279457   3.749840   4.949333   5.637797
    13  C    5.492806   4.423689   4.881499   6.181980   6.969940
    14  O    3.669924   2.366037   2.741842   4.132063   4.983610
    15  Fe   5.224949   3.928790   3.913336   5.177168   6.209570
    16  Cl   6.470636   5.387906   5.793163   7.107141   7.949200
    17  C    4.569151   3.486988   3.388726   4.388442   5.273407
    18  Cl   5.301800   4.226397   3.878298   4.734147   5.714431
    19  Cl   6.628981   5.221449   4.779546   5.898490   7.162742
    20  H    3.406064   2.157193   1.082048   2.147348   3.395333
    21  H    3.882161   3.414401   2.146131   1.085801   2.158648
    22  H    3.402009   3.896395   3.399201   2.156731   1.086490
    23  H    2.144717   3.411086   3.875806   3.403866   2.158350
    24  H    1.081410   2.173077   3.415269   3.877145   3.389731
    25  H    4.133453   3.469457   4.530734   5.807499   6.216875
    26  C    3.181134   3.102603   4.284517   5.237076   5.281816
    27  H    4.341790   4.406673   5.770442   6.800559   6.749246
    28  H    2.861018   3.290836   4.682653   5.492431   5.239190
    29  H    5.008345   4.550792   5.622116   6.811311   7.109743
    30  H    4.542512   4.521295   5.670719   6.607793   6.608252
    31  H    3.030615   2.726032   3.526972   4.356609   4.539840
    32  H    4.005743   3.112064   2.902155   3.653535   4.425242
    33  H    4.887538   3.620563   3.226415   4.271512   5.373056
    34  H    5.561286   4.556673   4.428738   5.319308   6.184375
    35  H    6.294269   5.319351   5.770336   7.004531   7.752302
    36  H    5.953618   4.722688   4.913593   6.217691   7.180718
    37  H    5.543214   4.567973   5.245152   6.596347   7.289469
    38  O    4.020936   3.636335   4.505629   5.493294   5.753982
    39  O    3.200919   3.626384   4.864764   5.583977   5.318783
    40  C    4.827377   4.682324   5.420343   6.176949   6.291309
    41  C    6.092269   5.702622   6.223621   7.032054   7.354228
    42  H    4.432387   4.432926   5.035032   5.576180   5.583922
    43  H    5.202705   5.276099   6.183340   6.912219   6.859943
    44  H    6.821401   6.560882   7.037353   7.711055   7.939134
    45  H    6.636959   6.171078   6.786497   7.732838   8.109084
    46  H    6.051514   5.468900   5.760689   6.565248   7.060480
                    6          7          8          9         10
     6  C    0.000000
     7  C    3.808471   0.000000
     8  C    4.478435   1.547273   0.000000
     9  C    4.744280   2.600639   1.537354   0.000000
    10  C    5.335333   2.922594   2.497283   1.538153   0.000000
    11  C    4.670407   2.300000   2.756535   2.475341   1.504093
    12  C    5.351066   2.462186   3.292519   3.500336   2.555065
    13  C    6.672561   3.255609   3.718826   4.035110   3.080702
    14  O    4.794407   1.286643   2.420096   3.586908   3.605398
    15  Fe   6.223241   3.033580   3.748853   5.133450   5.281594
    16  Cl   7.666112   4.126783   4.011209   5.245406   5.507392
    17  C    5.348717   3.192943   4.425912   4.775972   3.912219
    18  Cl   5.950916   3.985896   4.731511   6.240830   6.757694
    19  Cl   7.470265   4.515108   5.523354   6.676561   6.364970
    20  H    3.871685   2.667909   4.171421   5.188280   5.224987
    21  H    3.404893   4.629963   6.000225   6.795353   6.952117
    22  H    2.157090   5.378197   6.361922   6.790646   7.200506
    23  H    1.085947   4.684554   5.113026   5.162870   5.851153
    24  H    2.133576   2.790233   2.776747   2.753019   3.666795
    25  H    5.502255   2.100934   1.094744   2.159589   2.788003
    26  C    4.380926   2.539358   1.540593   2.537890   3.876902
    27  H    5.641569   3.520350   2.160020   1.095156   2.192979
    28  H    4.055944   2.971326   2.177182   1.092196   2.177682
    29  H    6.314601   3.411209   2.866436   2.170400   1.094151
    30  H    5.671245   3.877784   3.446834   2.171519   1.096928
    31  H    3.965065   2.663233   3.301093   2.925046   2.209443
    32  H    4.575433   3.287342   4.602862   4.861286   4.127694
    33  H    5.627289   3.306546   4.657628   5.315619   4.644133
    34  H    6.289816   4.224546   5.338690   5.522239   4.429178
    35  H    7.439812   4.233091   4.600248   4.628545   3.407725
    36  H    7.064678   3.612351   4.280582   4.883897   4.095261
    37  H    6.833742   3.196178   3.209783   3.540383   2.814883
    38  O    5.102097   3.003702   2.366921   3.681723   4.852614
    39  O    4.216638   3.427850   2.438199   2.836506   4.330809
    40  C    5.662990   4.342836   3.735723   4.890905   6.193007
    41  C    6.914261   5.216779   4.737632   6.027507   7.193757
    42  H    5.037720   4.450116   4.111826   5.240847   6.539927
    43  H    6.051466   4.906247   4.005081   4.884665   6.306945
    44  H    7.512973   6.208173   5.714962   6.936426   8.176859
    45  H    7.600362   5.438022   4.777136   6.002763   7.105950
    46  H    6.818884   5.033823   4.870653   6.298962   7.317414
                   11         12         13         14         15
    11  C    0.000000
    12  C    1.361534   0.000000
    13  C    2.525875   1.503575   0.000000
    14  O    2.824690   2.300000   2.686464   0.000000
    15  Fe   4.667307   3.904976   3.683702   1.920777   0.000000
    16  Cl   5.461996   4.873350   4.112018   3.325906   2.202975
    17  C    2.483400   1.499198   2.534998   2.830074   4.205585
    18  Cl   6.096774   5.576665   5.725447   3.344723   2.200736
    19  Cl   5.447601   4.262078   3.846335   3.241068   2.209027
    20  H    4.016788   3.565452   4.482244   2.385801   3.214441
    21  H    5.722343   5.584506   6.751255   4.759908   5.544409
    22  H    6.256026   6.645277   8.002646   6.042630   7.193016
    23  H    5.372781   6.209795   7.538133   5.762182   7.211262
    24  H    3.532779   4.510961   5.626992   4.054380   5.640489
    25  H    3.154683   3.360951   3.318827   2.401868   3.320876
    26  C    4.180302   4.740717   5.180072   3.393817   4.278726
    27  H    3.432249   4.377900   4.640306   4.390560   5.710496
    28  H    2.854999   4.058165   4.866539   4.155304   5.801530
    29  H    2.155521   2.710658   2.655569   3.778724   5.195248
    30  H    2.147220   3.308102   3.904220   4.634807   6.360251
    31  H    1.087636   2.100128   3.486478   3.383580   5.293404
    32  H    2.624362   2.169686   3.488420   3.254766   4.784310
    33  H    3.287689   2.153304   2.778084   2.578362   3.521209
    34  H    3.106115   2.120135   2.789741   3.813907   5.029218
    35  H    2.986400   2.117238   1.100396   3.764693   4.730640
    36  H    3.391142   2.157334   1.092073   2.678147   3.152022
    37  H    2.774364   2.187734   1.090962   2.757335   3.611857
    38  O    4.997982   5.243767   5.465987   3.412710   3.657432
    39  O    4.775601   5.569262   6.153708   4.459829   5.455964
    40  C    6.378423   6.669463   6.914217   4.756663   4.736621
    41  C    7.322456   7.377806   7.386157   5.284535   4.685170
    42  H    6.558038   6.887181   7.332314   4.955373   5.052818
    43  H    6.720008   7.174894   7.409634   5.473664   5.625477
    44  H    8.330530   8.432908   8.478170   6.328478   5.704267
    45  H    7.378579   7.392105   7.196349   5.414316   4.719769
    46  H    7.235118   7.118029   7.123148   4.894924   4.027628
                   16         17         18         19         20
    16  Cl   0.000000
    17  C    5.667120   0.000000
    18  Cl   3.707864   5.618383   0.000000
    19  Cl   3.664715   3.989412   3.617658   0.000000
    20  H    5.275982   3.029111   3.339345   3.772580   0.000000
    21  H    7.613461   4.785740   4.928121   5.949752   2.468666
    22  H    8.979581   6.173274   6.527652   8.053075   4.292900
    23  H    8.527275   6.288651   6.889437   8.533986   4.957456
    24  H    6.547422   5.105263   5.869232   7.207368   4.312522
    25  H    3.098791   4.599019   4.634874   5.094756   4.569252
    26  C    4.438775   5.708277   4.589421   6.333227   4.700905
    27  H    5.409590   5.743904   6.833621   7.350209   6.168084
    28  H    6.141676   5.138077   6.633651   7.357477   5.315912
    29  H    5.072331   4.184854   6.910919   6.177583   5.716689
    30  H    6.580221   4.517707   7.795522   7.351390   6.039944
    31  H    6.335259   2.645428   6.441249   6.030890   3.935694
    32  H    6.397919   1.092955   5.853205   4.750681   2.812989
    33  H    5.206530   1.094667   4.869405   3.011358   2.541854
    34  H    6.348935   1.099650   6.564982   4.437068   4.033347
    35  H    5.004353   2.964628   6.799190   4.603744   5.393186
    36  H    3.761173   2.649888   5.253223   2.860554   4.291644
    37  H    3.502756   3.463960   5.667651   4.245544   4.930952
    38  O    3.691598   6.096001   3.662791   5.846931   4.699686
    39  O    5.618197   6.516955   5.559842   7.488320   5.477697
    40  C    4.677883   7.441113   4.140166   6.926632   5.680456
    41  C    4.332692   8.092643   3.891709   6.787609   6.252012
    42  H    5.412434   7.491560   4.095876   7.161547   5.410370
    43  H    5.314045   8.078967   5.215619   7.832529   6.540483
    44  H    5.357567   9.115655   4.662200   7.756704   7.117166
    45  H    3.851242   8.238573   4.362882   6.791098   6.737215
    46  H    3.995837   7.667694   2.938885   6.011912   5.648882
                   21         22         23         24         25
    21  H    0.000000
    22  H    2.489234   0.000000
    23  H    4.304666   2.486931   0.000000
    24  H    4.962668   4.281495   2.445988   0.000000
    25  H    6.659653   7.291634   6.183877   3.870916   0.000000
    26  C    6.187474   6.259643   4.864247   2.753327   2.127732
    27  H    7.815771   7.738122   5.953736   3.550245   2.439965
    28  H    6.551953   6.172395   4.304548   1.998262   3.065875
    29  H    7.675623   8.143670   6.879753   4.624917   2.723744
    30  H    7.542546   7.541973   6.035655   4.032691   3.821869
    31  H    5.202588   5.472098   4.611532   3.141774   3.946059
    32  H    4.072659   5.259085   5.484843   4.648064   5.012933
    33  H    4.505761   6.262175   6.647939   5.531387   4.713512
    34  H    5.619146   7.018585   7.185068   6.050334   5.426145
    35  H    7.549751   8.754588   8.258676   6.377115   4.212194
    36  H    6.642991   8.192928   8.010972   6.229133   3.792734
    37  H    7.258823   8.357871   7.641510   5.508705   2.579578
    38  O    6.301988   6.709587   5.690209   3.854839   2.464942
    39  O    6.591708   6.193443   4.430411   2.498822   3.174910
    40  C    6.926771   7.114999   6.098883   4.640821   3.879697
    41  C    7.632620   8.163303   7.442515   6.024802   4.582055
    42  H    6.293099   6.312992   5.428795   4.375416   4.479449
    43  H    7.738009   7.661708   6.329736   4.797214   4.177463
    44  H    8.274506   8.658491   7.947522   6.736837   5.623744
    45  H    8.362124   8.981907   8.147009   6.478096   4.396753
    46  H    7.045631   7.860186   7.465822   6.171780   4.690177
                   26         27         28         29         30
    26  C    0.000000
    27  H    2.794671   0.000000
    28  H    2.734667   1.749184   0.000000
    29  H    4.288037   2.441509   3.062618   0.000000
    30  H    4.679114   2.614217   2.428460   1.757742   0.000000
    31  H    4.511015   3.956403   2.895259   3.089115   2.480265
    32  H    5.749841   5.910356   4.988467   4.649497   4.601007
    33  H    5.809990   6.255672   5.740204   4.820990   5.389095
    34  H    6.699568   6.433976   5.914855   4.572070   4.881502
    35  H    6.107750   5.154654   5.439383   2.850808   3.988433
    36  H    5.610295   5.498260   5.705849   3.693455   4.965556
    37  H    4.624075   3.942103   4.515548   2.154005   3.732195
    38  O    1.334498   3.875823   4.030620   5.079884   5.772436
    39  O    1.212907   2.942478   2.618243   4.890201   4.910910
    40  C    2.380575   4.951723   5.063062   6.456303   7.042144
    41  C    3.635909   6.042695   6.367040   7.285408   8.129766
    42  H    2.729914   5.458450   5.219878   6.953871   7.345060
    43  H    2.549836   4.738521   4.992374   6.567700   7.053490
    44  H    4.482068   6.902002   7.186172   8.303526   9.074737
    45  H    3.853248   5.874450   6.493005   7.040942   8.052026
    46  H    3.976561   6.472338   6.671018   7.407500   8.311972
                   31         32         33         34         35
    31  H    0.000000
    32  H    2.323840   0.000000
    33  H    3.534455   1.791172   0.000000
    34  H    3.273565   1.772678   1.757207   0.000000
    35  H    3.885024   3.914638   3.382360   2.813251   0.000000
    36  H    4.249754   3.700047   2.461059   2.877711   1.765223
    37  H    3.844103   4.313615   3.663735   3.844097   1.767173
    38  O    5.425323   6.250549   5.959035   7.108463   6.481914
    39  O    4.914245   6.407243   6.728848   7.499402   7.010558
    40  C    6.707268   7.515064   7.247667   8.481275   7.935814
    41  C    7.769196   8.301599   7.726474   9.098395   8.424434
    42  H    6.720307   7.420659   7.287993   8.570584   8.374716
    43  H    7.045793   8.136847   7.999530   9.096409   8.369930
    44  H    8.722071   9.271881   8.738664  10.137959   9.517161
    45  H    7.956430   8.570087   7.893257   9.183271   8.181458
    46  H    7.672283   7.896397   7.175853   8.667356   8.192825
                   36         37         38         39         40
    36  H    0.000000
    37  H    1.772337   0.000000
    38  O    5.657502   4.885427   0.000000
    39  O    6.681567   5.613466   2.262103   0.000000
    40  C    7.054492   6.321097   1.458555   2.710066   0.000000
    41  C    7.336401   6.766023   2.403326   4.168575   1.515056
    42  H    7.457845   6.869741   2.071852   2.838675   1.094491
    43  H    7.673175   6.723131   2.075491   2.492392   1.093181
    44  H    8.424573   7.855592   3.356270   4.801407   2.142003
    45  H    7.154864   6.463339   2.664616   4.480408   2.161953
    46  H    6.930428   6.622562   2.665151   4.681666   2.162505
                   41         42         43         44         45
    41  C    0.000000
    42  H    2.180242   0.000000
    43  H    2.182980   1.772209   0.000000
    44  H    1.095848   2.520391   2.518495   0.000000
    45  H    1.094226   3.086443   2.529676   1.777212   0.000000
    46  H    1.093019   2.523692   3.087889   1.778710   1.775461
                   46
    46  H    0.000000
 Stoichiometry    C17H22Cl3FeO3(6)
 Framework group  C1[X(C17H22Cl3FeO3)]
 Deg. of freedom   132
 Full point group                 C1      NOp   1
 Largest Abelian subgroup         C1      NOp   1
 Largest concise Abelian subgroup C1      NOp   1
                         Standard orientation:                         
 ---------------------------------------------------------------------
 Center     Atomic      Atomic             Coordinates (Angstroms)
 Number     Number       Type             X           Y           Z
 ---------------------------------------------------------------------
      1          6           0        3.161033    0.157701    0.616464
      2          6           0        1.860399   -0.372650    0.745643
      3          6           0        1.457426   -0.877364    1.999386
      4          6           0        2.330780   -0.868290    3.081863
      5          6           0        3.620556   -0.353446    2.935862
      6          6           0        4.028558    0.164455    1.703474
      7          6           0        0.877088   -0.379783   -0.364494
      8          6           0        1.032240    0.532493   -1.604548
      9          6           0        2.085370    0.067651   -2.623516
     10          6           0        1.866510   -1.428266   -2.906793
     11          6           0        1.673386   -2.148440   -1.600520
     12          6           0        0.507879   -2.685431   -1.145539
     13          6           0       -0.766532   -2.704698   -1.943188
     14          8           0       -0.307001   -0.806899   -0.098119
     15         26           0       -2.049081   -0.176879    0.409441
     16         17           0       -2.968150    0.722217   -1.379424
     17          6           0        0.491178   -3.514596    0.103381
     18         17           0       -1.817828    1.196497    2.113436
     19         17           0       -3.085007   -2.020294    1.048561
     20          1           0        0.450324   -1.254354    2.119603
     21          1           0        1.999306   -1.252413    4.041831
     22          1           0        4.302144   -0.343753    3.781914
     23          1           0        5.024224    0.582825    1.589910
     24          1           0        3.491066    0.594977   -0.315907
     25          1           0        0.044100    0.510896   -2.075267
     26          6           0        1.280396    1.991810   -1.177654
     27          1           0        1.993564    0.669258   -3.534014
     28          1           0        3.093715    0.243543   -2.242473
     29          1           0        1.000550   -1.561009   -3.562276
     30          1           0        2.732381   -1.836706   -3.442232
     31          1           0        2.573141   -2.326983   -1.016127
     32          1           0        1.427927   -3.453413    0.663121
     33          1           0       -0.348502   -3.241310    0.750332
     34          1           0        0.335339   -4.565417   -0.180730
     35          1           0       -0.744872   -3.594595   -2.590093
     36          1           0       -1.641355   -2.796174   -1.295932
     37          1           0       -0.900530   -1.834293   -2.587111
     38          8           0        0.171963    2.524990   -0.659987
     39          8           0        2.336288    2.572372   -1.316161
     40          6           0        0.249996    3.915308   -0.226041
     41          6           0       -1.163093    4.406647    0.013041
     42          1           0        0.860028    3.945459    0.682178
     43          1           0        0.767044    4.483381   -1.003858
     44          1           0       -1.130711    5.452529    0.338563
     45          1           0       -1.756982    4.347015   -0.904058
     46          1           0       -1.658071    3.813942    0.786596
 ---------------------------------------------------------------------
 Rotational constants (GHZ):           0.1978240           0.1666267           0.1446100
 Leave Link  202 at Sun Jun 20 07:28:55 2021, MaxMem=  2147483648 cpu:               0.2 elap:               0.0
 (Enter /SFS/product/gaussian/g16.a03/x86_64/avx/g16/l301.exe)
 Standard basis: Jul-CC-pVDZ (5D, 7F)
 Ernie: Thresh=  0.10000D-02 Tol=  0.10000D-05 Strict=F.
 Ernie:  134 primitive shells out of 958 were deleted.
 There are   766 symmetry adapted cartesian basis functions of A   symmetry.
 There are   710 symmetry adapted basis functions of A   symmetry.
   710 basis functions,  1571 primitive gaussians,   766 cartesian basis functions
   115 alpha electrons      110 beta electrons
       nuclear repulsion energy      3362.1925071269 Hartrees.
 IExCor=  402 DFT=T Ex+Corr=B3LYP ExCW=0 ScaHFX=  0.200000
 ScaDFX=  0.800000  0.720000  1.000000  0.810000 ScalE2=  1.000000  1.000000
 IRadAn=      5 IRanWt=     -1 IRanGd=            0 ICorTp=0 IEmpDi=  4
 NAtoms=   46 NActive=   46 NUniq=   46 SFac= 1.00D+00 NAtFMM=   60 NAOKFM=F Big=F
 Integral buffers will be    131072 words long.
 Raffenetti 2 integral format.
 Two-electron integral symmetry is turned on.
 Leave Link  301 at Sun Jun 20 07:28:55 2021, MaxMem=  2147483648 cpu:               0.9 elap:               0.1
 (Enter /SFS/product/gaussian/g16.a03/x86_64/avx/g16/l302.exe)
 NPDir=0 NMtPBC=     1 NCelOv=     1 NCel=       1 NClECP=     1 NCelD=      1
         NCelK=      1 NCelE2=     1 NClLst=     1 CellRange=     0.0.
 One-electron integrals computed using PRISM.
 One-electron integral symmetry used in STVInt
 NBasis=   710 RedAO= T EigKep=  1.58D-06  NBF=   710
 NBsUse=   710 1.00D-06 EigRej= -1.00D+00 NBFU=   710
 Precomputing XC quadrature grid using
 IXCGrd= 4 IRadAn=           5 IRanWt=          -1 IRanGd=           0 AccXCQ= 0.00D+00.
 Generated NRdTot=       0 NPtTot=           0 NUsed=           0 NTot=          32
 NSgBfM=   764   764   764   764   764 MxSgAt=    46 MxSgA2=    46.
 Leave Link  302 at Sun Jun 20 07:28:57 2021, MaxMem=  2147483648 cpu:              16.9 elap:               1.1
 (Enter /SFS/product/gaussian/g16.a03/x86_64/avx/g16/l303.exe)
 DipDrv:  MaxL=1.
 Leave Link  303 at Sun Jun 20 07:28:57 2021, MaxMem=  2147483648 cpu:               2.3 elap:               0.2
 (Enter /SFS/product/gaussian/g16.a03/x86_64/avx/g16/l401.exe)
 ExpMin= 1.40D-02 ExpMax= 4.32D+06 ExpMxC= 4.91D+03 IAcc=3 IRadAn=         5 AccDes= 0.00D+00
 Harris functional with IExCor=  402 and IRadAn=       5 diagonalized for initial guess.
 HarFok:  IExCor=  402 AccDes= 0.00D+00 IRadAn=         5 IDoV= 1 UseB2=F ITyADJ=14
 ICtDFT=  3500011 ScaDFX=  1.000000  1.000000  1.000000  1.000000
 FoFCou: FMM=F IPFlag=           0 FMFlag=      100000 FMFlg1=           0
         NFxFlg=           0 DoJE=T BraDBF=F KetDBF=T FulRan=T
         wScrn=  0.000000 ICntrl=       500 IOpCl=  0 I1Cent=   200000004 NGrid=           0
         NMat0=    1 NMatS0=      1 NMatT0=    0 NMatD0=    1 NMtDS0=    0 NMtDT0=    0
 Petite list used in FoFCou.
 Harris En= -3531.10105381229    
 JPrj=0 DoOrth=F DoCkMO=F.
 Initial guess <Sx>= 0.0000 <Sy>= 0.0000 <Sz>= 2.5000 <S**2>= 8.7500 S= 2.5000
 Leave Link  401 at Sun Jun 20 07:29:03 2021, MaxMem=  2147483648 cpu:             102.0 elap:               6.4
 (Enter /SFS/product/gaussian/g16.a03/x86_64/avx/g16/l502.exe)
 Integral symmetry usage will be decided dynamically.
 UHF open shell SCF:
 Using DIIS extrapolation, IDIIS=  1040.
 NGot=  2147483648 LenX=  2146290678 LenY=  2145703156
 Requested convergence on RMS density matrix=1.00D-08 within 128 cycles.
 Requested convergence on MAX density matrix=1.00D-06.
 Requested convergence on             energy=1.00D-06.
 No special actions if energy rises.
 Fock matrices will be formed incrementally for  20 cycles.

 Cycle   1  Pass 1  IDiag  1:
 FoFJK:  IHMeth= 1 ICntrl=       0 DoSepK=F KAlg= 0 I1Cent=           0 FoldK=F
 IRaf= 920000000 NMat=       1 IRICut=       1 DoRegI=T DoRafI=F ISym2E= 0 IDoP0=0 IntGTp=1.
 FoFCou: FMM=F IPFlag=           0 FMFlag=      100000 FMFlg1=           0
         NFxFlg=           0 DoJE=F BraDBF=F KetDBF=F FulRan=T
         wScrn=  0.000000 ICntrl=         0 IOpCl=  1 I1Cent=           0 NGrid=           0
         NMat0=    1 NMatS0=      1 NMatT0=    0 NMatD0=    1 NMtDS0=    0 NMtDT0=    0
 Symmetry not used in FoFCou.
 E= -3530.33378044140    
 DIIS: error= 2.08D-02 at cycle   1 NSaved=   1.
 NSaved= 1 IEnMin= 1 EnMin= -3530.33378044140     IErMin= 1 ErrMin= 2.08D-02
 ErrMax= 2.08D-02  0.00D+00 EMaxC= 1.00D-01 BMatC= 4.58D+00 BMatP= 4.58D+00
 IDIUse=3 WtCom= 7.92D-01 WtEn= 2.08D-01
 Coeff-Com:  0.100D+01
 Coeff-En:   0.100D+01
 Coeff:      0.100D+01
 Gap=     0.148 Goal=   None    Shift=    0.000
 Gap=     0.080 Goal=   None    Shift=    0.000
 GapD=    0.080 DampG=0.500 DampE=0.250 DampFc=0.1250 IDamp=-1.
 Damping current iteration by 1.25D-01
 RMSDP=4.40D-02 MaxDP=1.16D+01              OVMax= 9.26D-01

 Cycle   2  Pass 1  IDiag  1:
 RMSU=  2.69D-03    CP:  9.50D-01
 E= -3530.63844407663     Delta-E=       -0.304663635228 Rises=F Damp=T
 DIIS: error= 9.48D-03 at cycle   2 NSaved=   2.
 NSaved= 2 IEnMin= 2 EnMin= -3530.63844407663     IErMin= 2 ErrMin= 9.48D-03
 ErrMax= 9.48D-03  0.00D+00 EMaxC= 1.00D-01 BMatC= 1.23D+00 BMatP= 4.58D+00
 IDIUse=3 WtCom= 9.05D-01 WtEn= 9.48D-02
 Coeff-Com: -0.384D+00 0.138D+01
 Coeff-En:   0.479D-01 0.952D+00
 Coeff:     -0.343D+00 0.134D+01
 Gap=     0.029 Goal=   None    Shift=    0.000
 Gap=     0.001 Goal=   None    Shift=    0.000
 RMSDP=3.58D-02 MaxDP=1.09D+01 DE=-3.05D-01 OVMax= 9.62D-01

 Cycle   3  Pass 1  IDiag  1:
 RMSU=  8.12D-03    CP:  5.88D-01  2.30D+00
 E= -3530.01945007295     Delta-E=        0.618994003671 Rises=F Damp=F
 DIIS: error= 3.16D-02 at cycle   3 NSaved=   3.
 NSaved= 3 IEnMin= 2 EnMin= -3530.63844407663     IErMin= 2 ErrMin= 9.48D-03
 ErrMax= 3.16D-02  0.00D+00 EMaxC= 1.00D-01 BMatC= 6.08D+00 BMatP= 1.23D+00
 IDIUse=2 WtCom= 0.00D+00 WtEn= 1.00D+00
 Coeff-En:   0.000D+00 0.726D+00 0.274D+00
 Coeff:      0.000D+00 0.726D+00 0.274D+00
 Gap=    -0.161 Goal=   None    Shift=    0.000
 Gap=     0.205 Goal=   None    Shift=    0.000
 RMSDP=8.08D-03 MaxDP=1.66D+00 DE= 6.19D-01 OVMax= 7.61D-01

 Cycle   4  Pass 1  IDiag  1:
 RMSU=  5.77D-03    CP:  6.09D-01  3.00D+00  4.89D-01
 E= -3521.48731146500     Delta-E=        8.532138607952 Rises=F Damp=F
 DIIS: error= 1.19D-01 at cycle   4 NSaved=   4.
 NSaved= 4 IEnMin= 2 EnMin= -3530.63844407663     IErMin= 2 ErrMin= 9.48D-03
 ErrMax= 1.19D-01  0.00D+00 EMaxC= 1.00D-01 BMatC= 4.74D+01 BMatP= 1.23D+00
 IDIUse=2 WtCom= 0.00D+00 WtEn= 1.00D+00
 EnCoef did   100 forward-backward iterations
 Coeff-En:   0.367D+00 0.123D-01 0.433D+00 0.187D+00
 Coeff:      0.367D+00 0.123D-01 0.433D+00 0.187D+00
 Gap=     0.095 Goal=   None    Shift=    0.000
 Gap=     0.027 Goal=   None    Shift=    0.000
 RMSDP=5.60D-03 MaxDP=6.64D-01 DE= 8.53D+00 OVMax= 9.64D-01

 Cycle   5  Pass 1  IDiag  1:
 RMSU=  3.60D-03    CP:  6.17D-01  2.34D+00  6.49D-01  5.57D-01
 E= -3530.59232337101     Delta-E=       -9.105011906006 Rises=F Damp=F
 DIIS: error= 3.51D-02 at cycle   5 NSaved=   5.
 NSaved= 5 IEnMin= 2 EnMin= -3530.63844407663     IErMin= 2 ErrMin= 9.48D-03
 ErrMax= 3.51D-02  0.00D+00 EMaxC= 1.00D-01 BMatC= 5.16D+00 BMatP= 1.23D+00
 IDIUse=2 WtCom= 0.00D+00 WtEn= 1.00D+00
 Coeff-En:   0.000D+00 0.000D+00 0.414D+00 0.000D+00 0.586D+00
 Coeff:      0.000D+00 0.000D+00 0.414D+00 0.000D+00 0.586D+00
 Gap=     0.129 Goal=   None    Shift=    0.000
 Gap=     0.111 Goal=   None    Shift=    0.000
 RMSDP=5.08D-03 MaxDP=1.07D+00 DE=-9.11D+00 OVMax= 4.19D-01

 Cycle   6  Pass 1  IDiag  1:
 RMSU=  2.74D-03    CP:  6.50D-01  1.67D+00  6.62D-01  3.14D-01  4.93D-01
 E= -3531.18341266840     Delta-E=       -0.591089297396 Rises=F Damp=F
 DIIS: error= 1.66D-02 at cycle   6 NSaved=   6.
 NSaved= 6 IEnMin= 6 EnMin= -3531.18341266840     IErMin= 2 ErrMin= 9.48D-03
 ErrMax= 1.66D-02  0.00D+00 EMaxC= 1.00D-01 BMatC= 1.19D+00 BMatP= 1.23D+00
 IDIUse=3 WtCom= 8.34D-01 WtEn= 1.66D-01
 Coeff-Com: -0.421D+00 0.742D+00 0.230D+00-0.168D-02 0.141D+00 0.310D+00
 Coeff-En:   0.000D+00 0.000D+00 0.000D+00 0.000D+00 0.289D+00 0.711D+00
 Coeff:     -0.351D+00 0.618D+00 0.192D+00-0.140D-02 0.166D+00 0.376D+00
 Gap=     0.117 Goal=   None    Shift=    0.000
 Gap=     0.182 Goal=   None    Shift=    0.000
 RMSDP=3.73D-03 MaxDP=7.16D-01 DE=-5.91D-01 OVMax= 1.69D-01

 Cycle   7  Pass 1  IDiag  1:
 RMSU=  1.65D-03    CP:  6.27D-01  2.04D+00  7.03D-01  3.80D-01  6.81D-01
                    CP:  2.06D-01
 E= -3531.36834099242     Delta-E=       -0.184928324014 Rises=F Damp=F
 DIIS: error= 4.48D-03 at cycle   7 NSaved=   7.
 NSaved= 7 IEnMin= 7 EnMin= -3531.36834099242     IErMin= 7 ErrMin= 4.48D-03
 ErrMax= 4.48D-03  0.00D+00 EMaxC= 1.00D-01 BMatC= 1.95D-01 BMatP= 1.19D+00
 IDIUse=3 WtCom= 9.55D-01 WtEn= 4.48D-02
 Coeff-Com: -0.195D+00 0.279D+00 0.537D-01 0.647D-02-0.120D-01 0.290D+00
 Coeff-Com:  0.578D+00
 Coeff-En:   0.000D+00 0.000D+00 0.000D+00 0.000D+00 0.000D+00 0.193D+00
 Coeff-En:   0.807D+00
 Coeff:     -0.186D+00 0.266D+00 0.513D-01 0.618D-02-0.114D-01 0.285D+00
 Coeff:      0.588D+00
 Gap=     0.128 Goal=   None    Shift=    0.000
 Gap=     0.141 Goal=   None    Shift=    0.000
 RMSDP=1.23D-03 MaxDP=1.17D-01 DE=-1.85D-01 OVMax= 7.20D-02

 Cycle   8  Pass 1  IDiag  1:
 RMSU=  9.91D-04    CP:  6.28D-01  2.00D+00  7.03D-01  3.92D-01  6.78D-01
                    CP:  4.01D-01  7.16D-01
 E= -3531.40260443440     Delta-E=       -0.034263441981 Rises=F Damp=F
 DIIS: error= 3.37D-03 at cycle   8 NSaved=   8.
 NSaved= 8 IEnMin= 8 EnMin= -3531.40260443440     IErMin= 8 ErrMin= 3.37D-03
 ErrMax= 3.37D-03  0.00D+00 EMaxC= 1.00D-01 BMatC= 7.01D-02 BMatP= 1.95D-01
 IDIUse=3 WtCom= 9.66D-01 WtEn= 3.37D-02
 Coeff-Com: -0.998D-01 0.133D+00 0.954D-02 0.747D-02-0.292D-01 0.135D+00
 Coeff-Com:  0.416D+00 0.428D+00
 Coeff-En:   0.000D+00 0.000D+00 0.000D+00 0.000D+00 0.000D+00 0.000D+00
 Coeff-En:   0.211D+00 0.789D+00
 Coeff:     -0.964D-01 0.129D+00 0.922D-02 0.722D-02-0.282D-01 0.130D+00
 Coeff:      0.409D+00 0.440D+00
 Gap=     0.135 Goal=   None    Shift=    0.000
 Gap=     0.129 Goal=   None    Shift=    0.000
 RMSDP=7.25D-04 MaxDP=8.28D-02 DE=-3.43D-02 OVMax= 4.67D-02

 Cycle   9  Pass 1  IDiag  1:
 RMSU=  4.37D-04    CP:  6.31D-01  1.97D+00  6.91D-01  3.90D-01  6.28D-01
                    CP:  4.60D-01  8.08D-01  6.42D-01
 E= -3531.41304738986     Delta-E=       -0.010442955461 Rises=F Damp=F
 DIIS: error= 2.20D-03 at cycle   9 NSaved=   9.
 NSaved= 9 IEnMin= 9 EnMin= -3531.41304738986     IErMin= 9 ErrMin= 2.20D-03
 ErrMax= 2.20D-03  0.00D+00 EMaxC= 1.00D-01 BMatC= 1.87D-02 BMatP= 7.01D-02
 IDIUse=3 WtCom= 9.78D-01 WtEn= 2.20D-02
 Coeff-Com: -0.137D-01 0.241D-01-0.977D-02 0.131D-02 0.158D-01-0.635D-01
 Coeff-Com: -0.931D-02 0.143D+00 0.912D+00
 Coeff-En:   0.000D+00 0.000D+00 0.000D+00 0.000D+00 0.000D+00 0.000D+00
 Coeff-En:   0.000D+00 0.959D-02 0.990D+00
 Coeff:     -0.134D-01 0.236D-01-0.955D-02 0.128D-02 0.154D-01-0.621D-01
 Coeff:     -0.911D-02 0.140D+00 0.914D+00
 Gap=     0.139 Goal=   None    Shift=    0.000
 Gap=     0.125 Goal=   None    Shift=    0.000
 RMSDP=3.84D-04 MaxDP=7.62D-02 DE=-1.04D-02 OVMax= 1.28D-02

 Cycle  10  Pass 1  IDiag  1:
 RMSU=  2.61D-04    CP:  6.33D-01  1.99D+00  6.79D-01  4.06D-01  6.47D-01
                    CP:  4.65D-01  8.56D-01  7.29D-01  1.15D+00
 E= -3531.41606072951     Delta-E=       -0.003013339653 Rises=F Damp=F
 DIIS: error= 5.31D-04 at cycle  10 NSaved=  10.
 NSaved=10 IEnMin=10 EnMin= -3531.41606072951     IErMin=10 ErrMin= 5.31D-04
 ErrMax= 5.31D-04  0.00D+00 EMaxC= 1.00D-01 BMatC= 2.79D-03 BMatP= 1.87D-02
 IDIUse=3 WtCom= 9.95D-01 WtEn= 5.31D-03
 Coeff-Com:  0.249D-02 0.239D-02-0.751D-02 0.835D-04 0.147D-01-0.635D-01
 Coeff-Com: -0.497D-01 0.319D-01 0.595D+00 0.474D+00
 Coeff-En:   0.000D+00 0.000D+00 0.000D+00 0.000D+00 0.000D+00 0.000D+00
 Coeff-En:   0.000D+00 0.000D+00 0.000D+00 0.100D+01
 Coeff:      0.247D-02 0.238D-02-0.747D-02 0.830D-04 0.146D-01-0.631D-01
 Coeff:     -0.495D-01 0.317D-01 0.592D+00 0.477D+00
 Gap=     0.138 Goal=   None    Shift=    0.000
 Gap=     0.122 Goal=   None    Shift=    0.000
 RMSDP=1.69D-04 MaxDP=1.69D-02 DE=-3.01D-03 OVMax= 1.19D-02

 Cycle  11  Pass 1  IDiag  1:
 RMSU=  1.40D-04    CP:  6.33D-01  1.99D+00  6.80D-01  4.07D-01  6.50D-01
                    CP:  4.54D-01  8.36D-01  7.89D-01  1.18D+00  8.26D-01
 E= -3531.41662408312     Delta-E=       -0.000563353602 Rises=F Damp=F
 DIIS: error= 2.73D-04 at cycle  11 NSaved=  11.
 NSaved=11 IEnMin=11 EnMin= -3531.41662408312     IErMin=11 ErrMin= 2.73D-04
 ErrMax= 2.73D-04  0.00D+00 EMaxC= 1.00D-01 BMatC= 4.82D-04 BMatP= 2.79D-03
 IDIUse=3 WtCom= 9.97D-01 WtEn= 2.73D-03
 Coeff-Com: -0.823D-04 0.372D-02-0.124D-02-0.196D-03 0.360D-02-0.214D-01
 Coeff-Com: -0.121D-01-0.132D-01 0.932D-01 0.270D+00 0.678D+00
 Coeff-En:   0.000D+00 0.000D+00 0.000D+00 0.000D+00 0.000D+00 0.000D+00
 Coeff-En:   0.000D+00 0.000D+00 0.000D+00 0.441D-01 0.956D+00
 Coeff:     -0.821D-04 0.371D-02-0.124D-02-0.195D-03 0.359D-02-0.214D-01
 Coeff:     -0.121D-01-0.132D-01 0.930D-01 0.269D+00 0.679D+00
 Gap=     0.138 Goal=   None    Shift=    0.000
 Gap=     0.122 Goal=   None    Shift=    0.000
 RMSDP=6.97D-05 MaxDP=7.32D-03 DE=-5.63D-04 OVMax= 3.27D-03

 Cycle  12  Pass 1  IDiag  1:
 RMSU=  4.82D-05    CP:  6.33D-01  1.99D+00  6.79D-01  4.07D-01  6.52D-01
                    CP:  4.48D-01  8.53D-01  7.87D-01  1.22D+00  8.81D-01
                    CP:  8.09D-01
 E= -3531.41672255444     Delta-E=       -0.000098471323 Rises=F Damp=F
 DIIS: error= 6.96D-05 at cycle  12 NSaved=  12.
 NSaved=12 IEnMin=12 EnMin= -3531.41672255444     IErMin=12 ErrMin= 6.96D-05
 ErrMax= 6.96D-05  0.00D+00 EMaxC= 1.00D-01 BMatC= 5.77D-05 BMatP= 4.82D-04
 IDIUse=1 WtCom= 1.00D+00 WtEn= 0.00D+00
 Coeff-Com:  0.253D-03 0.366D-03 0.544D-04-0.143D-04-0.125D-03-0.166D-02
 Coeff-Com:  0.381D-02-0.936D-02-0.323D-01 0.925D-01 0.393D+00 0.553D+00
 Coeff:      0.253D-03 0.366D-03 0.544D-04-0.143D-04-0.125D-03-0.166D-02
 Coeff:      0.381D-02-0.936D-02-0.323D-01 0.925D-01 0.393D+00 0.553D+00
 Gap=     0.138 Goal=   None    Shift=    0.000
 Gap=     0.122 Goal=   None    Shift=    0.000
 RMSDP=2.61D-05 MaxDP=2.62D-03 DE=-9.85D-05 OVMax= 1.35D-03

 Cycle  13  Pass 1  IDiag  1:
 RMSU=  2.07D-05    CP:  6.33D-01  1.99D+00  6.79D-01  4.08D-01  6.52D-01
                    CP:  4.49D-01  8.51D-01  7.84D-01  1.22D+00  8.87D-01
                    CP:  8.73D-01  7.64D-01
 E= -3531.41673873103     Delta-E=       -0.000016176591 Rises=F Damp=F
 DIIS: error= 2.54D-05 at cycle  13 NSaved=  13.
 NSaved=13 IEnMin=13 EnMin= -3531.41673873103     IErMin=13 ErrMin= 2.54D-05
 ErrMax= 2.54D-05  0.00D+00 EMaxC= 1.00D-01 BMatC= 4.64D-06 BMatP= 5.77D-05
 IDIUse=1 WtCom= 1.00D+00 WtEn= 0.00D+00
 Coeff-Com:  0.325D-03-0.418D-03 0.853D-04 0.510D-06-0.380D-03 0.920D-03
 Coeff-Com:  0.209D-02-0.267D-02-0.189D-01 0.184D-01 0.781D-01 0.234D+00
 Coeff-Com:  0.688D+00
 Coeff:      0.325D-03-0.418D-03 0.853D-04 0.510D-06-0.380D-03 0.920D-03
 Coeff:      0.209D-02-0.267D-02-0.189D-01 0.184D-01 0.781D-01 0.234D+00
 Coeff:      0.688D+00
 Gap=     0.138 Goal=   None    Shift=    0.000
 Gap=     0.122 Goal=   None    Shift=    0.000
 RMSDP=1.05D-05 MaxDP=7.90D-04 DE=-1.62D-05 OVMax= 6.80D-04

 Cycle  14  Pass 1  IDiag  1:
 RMSU=  8.82D-06    CP:  6.33D-01  1.99D+00  6.79D-01  4.07D-01  6.53D-01
                    CP:  4.48D-01  8.52D-01  7.84D-01  1.22D+00  9.00D-01
                    CP:  8.76D-01  8.36D-01  1.07D+00
 E= -3531.41674065919     Delta-E=       -0.000001928162 Rises=F Damp=F
 DIIS: error= 1.34D-05 at cycle  14 NSaved=  14.
 NSaved=14 IEnMin=14 EnMin= -3531.41674065919     IErMin=14 ErrMin= 1.34D-05
 ErrMax= 1.34D-05  0.00D+00 EMaxC= 1.00D-01 BMatC= 1.38D-06 BMatP= 4.64D-06
 IDIUse=1 WtCom= 1.00D+00 WtEn= 0.00D+00
 Coeff-Com:  0.411D-04-0.177D-03 0.826D-04-0.378D-05-0.180D-03 0.885D-03
 Coeff-Com: -0.184D-03 0.358D-03-0.117D-02-0.122D-01-0.605D-01-0.252D-01
 Coeff-Com:  0.353D+00 0.746D+00
 Coeff:      0.411D-04-0.177D-03 0.826D-04-0.378D-05-0.180D-03 0.885D-03
 Coeff:     -0.184D-03 0.358D-03-0.117D-02-0.122D-01-0.605D-01-0.252D-01
 Coeff:      0.353D+00 0.746D+00
 Gap=     0.138 Goal=   None    Shift=    0.000
 Gap=     0.122 Goal=   None    Shift=    0.000
 RMSDP=7.87D-06 MaxDP=6.46D-04 DE=-1.93D-06 OVMax= 4.73D-04

 Cycle  15  Pass 1  IDiag  1:
 RMSU=  5.41D-06    CP:  6.33D-01  1.99D+00  6.79D-01  4.07D-01  6.53D-01
                    CP:  4.48D-01  8.52D-01  7.84D-01  1.22D+00  9.05D-01
                    CP:  8.77D-01  8.78D-01  1.27D+00  1.30D+00
 E= -3531.41674137470     Delta-E=       -0.000000715509 Rises=F Damp=F
 DIIS: error= 8.69D-06 at cycle  15 NSaved=  15.
 NSaved=15 IEnMin=15 EnMin= -3531.41674137470     IErMin=15 ErrMin= 8.69D-06
 ErrMax= 8.69D-06  0.00D+00 EMaxC= 1.00D-01 BMatC= 5.46D-07 BMatP= 1.38D-06
 IDIUse=1 WtCom= 1.00D+00 WtEn= 0.00D+00
 Coeff-Com: -0.961D-05-0.498D-04 0.162D-04-0.217D-05 0.171D-04 0.119D-03
 Coeff-Com: -0.810D-03 0.129D-02 0.704D-02-0.123D-01-0.569D-01-0.955D-01
 Coeff-Com: -0.383D-01 0.413D+00 0.782D+00
 Coeff:     -0.961D-05-0.498D-04 0.162D-04-0.217D-05 0.171D-04 0.119D-03
 Coeff:     -0.810D-03 0.129D-02 0.704D-02-0.123D-01-0.569D-01-0.955D-01
 Coeff:     -0.383D-01 0.413D+00 0.782D+00
 Gap=     0.138 Goal=   None    Shift=    0.000
 Gap=     0.122 Goal=   None    Shift=    0.000
 RMSDP=5.72D-06 MaxDP=5.49D-04 DE=-7.16D-07 OVMax= 3.25D-04

 Cycle  16  Pass 1  IDiag  1:
 RMSU=  2.92D-06    CP:  6.33D-01  1.99D+00  6.79D-01  4.07D-01  6.53D-01
                    CP:  4.48D-01  8.51D-01  7.84D-01  1.22D+00  9.05D-01
                    CP:  8.78D-01  9.12D-01  1.42D+00  1.64D+00  1.19D+00
 E= -3531.41674166368     Delta-E=       -0.000000288983 Rises=F Damp=F
 DIIS: error= 5.44D-06 at cycle  16 NSaved=  16.
 NSaved=16 IEnMin=16 EnMin= -3531.41674166368     IErMin=16 ErrMin= 5.44D-06
 ErrMax= 5.44D-06  0.00D+00 EMaxC= 1.00D-01 BMatC= 9.59D-08 BMatP= 5.46D-07
 IDIUse=1 WtCom= 1.00D+00 WtEn= 0.00D+00
 Coeff-Com: -0.694D-04 0.118D-03 0.188D-04-0.115D-05 0.189D-04-0.139D-03
 Coeff-Com: -0.380D-03 0.651D-03 0.378D-02-0.394D-02-0.156D-01-0.437D-01
 Coeff-Com: -0.894D-01 0.670D-01 0.396D+00 0.686D+00
 Coeff:     -0.694D-04 0.118D-03 0.188D-04-0.115D-05 0.189D-04-0.139D-03
 Coeff:     -0.380D-03 0.651D-03 0.378D-02-0.394D-02-0.156D-01-0.437D-01
 Coeff:     -0.894D-01 0.670D-01 0.396D+00 0.686D+00
 Gap=     0.138 Goal=   None    Shift=    0.000
 Gap=     0.122 Goal=   None    Shift=    0.000
 RMSDP=2.69D-06 MaxDP=4.00D-04 DE=-2.89D-07 OVMax= 1.75D-04

 Cycle  17  Pass 1  IDiag  1:
 RMSU=  1.29D-06    CP:  6.33D-01  1.99D+00  6.79D-01  4.07D-01  6.53D-01
                    CP:  4.48D-01  8.51D-01  7.84D-01  1.22D+00  9.05D-01
                    CP:  8.80D-01  9.23D-01  1.48D+00  1.78D+00  1.42D+00
                    CP:  1.21D+00
 E= -3531.41674172552     Delta-E=       -0.000000061836 Rises=F Damp=F
 DIIS: error= 3.06D-06 at cycle  17 NSaved=  17.
 NSaved=17 IEnMin=17 EnMin= -3531.41674172552     IErMin=17 ErrMin= 3.06D-06
 ErrMax= 3.06D-06  0.00D+00 EMaxC= 1.00D-01 BMatC= 2.86D-08 BMatP= 9.59D-08
 IDIUse=1 WtCom= 1.00D+00 WtEn= 0.00D+00
 Coeff-Com: -0.123D-04 0.401D-04-0.104D-05-0.408D-06 0.141D-04-0.109D-03
 Coeff-Com: -0.286D-04 0.478D-04 0.102D-03 0.975D-03 0.596D-02 0.168D-02
 Coeff-Com: -0.393D-01-0.712D-01 0.777D-02 0.373D+00 0.721D+00
 Coeff:     -0.123D-04 0.401D-04-0.104D-05-0.408D-06 0.141D-04-0.109D-03
 Coeff:     -0.286D-04 0.478D-04 0.102D-03 0.975D-03 0.596D-02 0.168D-02
 Coeff:     -0.393D-01-0.712D-01 0.777D-02 0.373D+00 0.721D+00
 Gap=     0.138 Goal=   None    Shift=    0.000
 Gap=     0.122 Goal=   None    Shift=    0.000
 RMSDP=1.76D-06 MaxDP=2.18D-04 DE=-6.18D-08 OVMax= 9.07D-05

 Cycle  18  Pass 1  IDiag  1:
 RMSU=  7.60D-07    CP:  6.33D-01  1.99D+00  6.79D-01  4.07D-01  6.53D-01
                    CP:  4.48D-01  8.51D-01  7.84D-01  1.22D+00  9.06D-01
                    CP:  8.79D-01  9.31D-01  1.50D+00  1.87D+00  1.55D+00
                    CP:  1.48D+00  1.42D+00
 E= -3531.41674174848     Delta-E=       -0.000000022957 Rises=F Damp=F
 DIIS: error= 1.48D-06 at cycle  18 NSaved=  18.
 NSaved=18 IEnMin=18 EnMin= -3531.41674174848     IErMin=18 ErrMin= 1.48D-06
 ErrMax= 1.48D-06  0.00D+00 EMaxC= 1.00D-01 BMatC= 1.17D-08 BMatP= 2.86D-08
 IDIUse=1 WtCom= 1.00D+00 WtEn= 0.00D+00
 Coeff-Com:  0.650D-05 0.343D-06-0.504D-05 0.301D-06 0.311D-05-0.201D-04
 Coeff-Com:  0.112D-03-0.229D-03-0.138D-02 0.200D-02 0.923D-02 0.168D-01
 Coeff-Com:  0.653D-02-0.684D-01-0.137D+00-0.158D-01 0.445D+00 0.743D+00
 Coeff:      0.650D-05 0.343D-06-0.504D-05 0.301D-06 0.311D-05-0.201D-04
 Coeff:      0.112D-03-0.229D-03-0.138D-02 0.200D-02 0.923D-02 0.168D-01
 Coeff:      0.653D-02-0.684D-01-0.137D+00-0.158D-01 0.445D+00 0.743D+00
 Gap=     0.138 Goal=   None    Shift=    0.000
 Gap=     0.122 Goal=   None    Shift=    0.000
 RMSDP=1.30D-06 MaxDP=2.28D-04 DE=-2.30D-08 OVMax= 7.06D-05

 Cycle  19  Pass 1  IDiag  1:
 RMSU=  4.30D-07    CP:  6.33D-01  1.99D+00  6.79D-01  4.07D-01  6.52D-01
                    CP:  4.48D-01  8.51D-01  7.84D-01  1.22D+00  9.06D-01
                    CP:  8.80D-01  9.34D-01  1.52D+00  1.93D+00  1.64D+00
                    CP:  1.70D+00  1.83D+00  1.33D+00
 E= -3531.41674175838     Delta-E=       -0.000000009907 Rises=F Damp=F
 DIIS: error= 7.92D-07 at cycle  19 NSaved=  19.
 NSaved=19 IEnMin=19 EnMin= -3531.41674175838     IErMin=19 ErrMin= 7.92D-07
 ErrMax= 7.92D-07  0.00D+00 EMaxC= 1.00D-01 BMatC= 2.64D-09 BMatP= 1.17D-08
 IDIUse=1 WtCom= 1.00D+00 WtEn= 0.00D+00
 Coeff-Com:  0.139D-04-0.258D-04-0.475D-05 0.310D-06-0.200D-05 0.363D-04
 Coeff-Com:  0.727D-04-0.155D-03-0.791D-03 0.593D-03 0.227D-02 0.792D-02
 Coeff-Com:  0.194D-01-0.666D-02-0.707D-01-0.158D+00-0.691D-01 0.347D+00
 Coeff-Com:  0.929D+00
 Coeff:      0.139D-04-0.258D-04-0.475D-05 0.310D-06-0.200D-05 0.363D-04
 Coeff:      0.727D-04-0.155D-03-0.791D-03 0.593D-03 0.227D-02 0.792D-02
 Coeff:      0.194D-01-0.666D-02-0.707D-01-0.158D+00-0.691D-01 0.347D+00
 Coeff:      0.929D+00
 Gap=     0.138 Goal=   None    Shift=    0.000
 Gap=     0.122 Goal=   None    Shift=    0.000
 RMSDP=9.49D-07 MaxDP=1.46D-04 DE=-9.91D-09 OVMax= 5.26D-05

 Cycle  20  Pass 1  IDiag  1:
 RMSU=  2.07D-07    CP:  6.33D-01  1.99D+00  6.79D-01  4.07D-01  6.52D-01
                    CP:  4.48D-01  8.51D-01  7.84D-01  1.22D+00  9.06D-01
                    CP:  8.79D-01  9.37D-01  1.53D+00  1.97D+00  1.71D+00
                    CP:  1.86D+00  2.16D+00  1.69D+00  1.26D+00
 E= -3531.41674176150     Delta-E=       -0.000000003112 Rises=F Damp=F
 DIIS: error= 3.11D-07 at cycle  20 NSaved=  20.
 NSaved=20 IEnMin=20 EnMin= -3531.41674176150     IErMin=20 ErrMin= 3.11D-07
 ErrMax= 3.11D-07  0.00D+00 EMaxC= 1.00D-01 BMatC= 6.85D-10 BMatP= 2.64D-09
 IDIUse=1 WtCom= 1.00D+00 WtEn= 0.00D+00
 Coeff-Com:  0.654D-06-0.482D-05 0.244D-06 0.971D-07-0.343D-05 0.222D-04
 Coeff-Com:  0.197D-04-0.387D-04-0.122D-03-0.848D-04-0.502D-03 0.772D-03
 Coeff-Com:  0.874D-02 0.940D-02-0.105D-01-0.764D-01-0.113D+00 0.257D-01
 Coeff-Com:  0.478D+00 0.678D+00
 Coeff:      0.654D-06-0.482D-05 0.244D-06 0.971D-07-0.343D-05 0.222D-04
 Coeff:      0.197D-04-0.387D-04-0.122D-03-0.848D-04-0.502D-03 0.772D-03
 Coeff:      0.874D-02 0.940D-02-0.105D-01-0.764D-01-0.113D+00 0.257D-01
 Coeff:      0.478D+00 0.678D+00
 Gap=     0.138 Goal=   None    Shift=    0.000
 Gap=     0.122 Goal=   None    Shift=    0.000
 RMSDP=2.72D-07 MaxDP=4.49D-05 DE=-3.11D-09 OVMax= 1.45D-05

 Cycle  21  Pass 1  IDiag  1:
 Restarting incremental Fock formation.
 E= -3531.41674176193     Delta-E=       -0.000000000429 Rises=F Damp=F
 DIIS: error= 1.50D-07 at cycle  21 NSaved=  20.
 NSaved=20 IEnMin=20 EnMin= -3531.41674176193     IErMin=20 ErrMin= 1.50D-07
 ErrMax= 1.50D-07  0.00D+00 EMaxC= 1.00D-01 BMatC= 1.93D-10 BMatP= 6.85D-10
 IDIUse=1 WtCom= 1.00D+00 WtEn= 0.00D+00
 Coeff-Com: -0.687D-06-0.299D-06 0.523D-06-0.108D-05 0.385D-05-0.547D-05
 Coeff-Com:  0.175D-04 0.135D-03-0.161D-03-0.703D-03-0.131D-02 0.222D-03
 Coeff-Com:  0.590D-02 0.883D-02-0.454D-02-0.388D-01-0.595D-01 0.398D-01
 Coeff-Com:  0.326D+00 0.724D+00
 Coeff:     -0.687D-06-0.299D-06 0.523D-06-0.108D-05 0.385D-05-0.547D-05
 Coeff:      0.175D-04 0.135D-03-0.161D-03-0.703D-03-0.131D-02 0.222D-03
 Coeff:      0.590D-02 0.883D-02-0.454D-02-0.388D-01-0.595D-01 0.398D-01
 Coeff:      0.326D+00 0.724D+00
 Gap=     0.138 Goal=   None    Shift=    0.000
 Gap=     0.122 Goal=   None    Shift=    0.000
[...]
    13   Atom       -0.007154      0.004264      0.002889
    14   Atom        0.024599     -0.083087      0.058488
    15   Atom        0.068883      0.016124     -0.085007
    16   Atom       -0.079022     -0.070943      0.149966
    17   Atom        0.001417      0.007609     -0.009027
    18   Atom       -0.128892      0.024263      0.104628
    19   Atom       -0.103654      0.220145     -0.116490
    20   Atom        0.015928     -0.014970     -0.000957
    21   Atom        0.002555     -0.003643      0.001088
    22   Atom        0.002585     -0.001895     -0.000690
    23   Atom        0.003637     -0.001793     -0.001845
    24   Atom        0.007402     -0.003592     -0.003809
    25   Atom        0.003441     -0.014600      0.011160
    26   Atom        0.005984     -0.000003     -0.005982
    27   Atom        0.001362     -0.003146      0.001784
    28   Atom        0.004854     -0.003254     -0.001600
    29   Atom       -0.000158     -0.004627      0.004785
    30   Atom        0.001953     -0.002809      0.000856
    31   Atom        0.008801     -0.004172     -0.004630
    32   Atom        0.003940      0.001755     -0.005695
    33   Atom       -0.001379      0.016404     -0.015026
    34   Atom       -0.001441      0.006798     -0.005357
    35   Atom       -0.004524      0.002990      0.001534
    36   Atom       -0.018482      0.019903     -0.001421
    37   Atom       -0.008833     -0.006449      0.015282
    38   Atom       -0.000471      0.009220     -0.008749
    39   Atom        0.002703      0.000581     -0.003284
    40   Atom       -0.002271      0.007981     -0.005710
    41   Atom       -0.006054      0.011912     -0.005858
    42   Atom       -0.000432      0.005691     -0.005258
    43   Atom       -0.001081      0.004187     -0.003106
    44   Atom       -0.003569      0.007149     -0.003580
    45   Atom       -0.006050      0.010469     -0.004419
    46   Atom       -0.010704      0.019834     -0.009130
 --------------------------------------------------------
                        XY            XZ            YZ
 --------------------------------------------------------
     1   Atom        0.002963      0.001160     -0.001252
     2   Atom       -0.000859      0.008431      0.003166
     3   Atom       -0.003709      0.012643     -0.002213
     4   Atom       -0.002167      0.006176     -0.000397
     5   Atom        0.000867      0.003454     -0.000851
     6   Atom       -0.000262      0.001854      0.000845
     7   Atom        0.024034     -0.015718     -0.007682
     8   Atom        0.009398     -0.018200     -0.010755
     9   Atom        0.000396     -0.007518      0.000965
    10   Atom       -0.002311     -0.007384      0.002146
    11   Atom       -0.022414     -0.018738      0.036737
    12   Atom       -0.019688     -0.013807      0.024917
    13   Atom       -0.009284     -0.009077      0.017938
    14   Atom       -0.206429      0.007313      0.004858
    15   Atom       -0.074631     -0.078774      0.007856
    16   Atom       -0.049613      0.144324     -0.137320
    17   Atom       -0.012956     -0.002043      0.001657
    18   Atom        0.052068      0.054391      0.199351
    19   Atom        0.151354     -0.032924     -0.112611
    20   Atom       -0.014213      0.024760     -0.009140
    21   Atom       -0.001718      0.005796     -0.001398
    22   Atom       -0.000060      0.002170     -0.000067
    23   Atom        0.000680      0.000808      0.000149
    24   Atom        0.001961     -0.001433     -0.000054
    25   Atom        0.007886     -0.023831     -0.011884
    26   Atom        0.010597     -0.006965     -0.004728
    27   Atom        0.001470     -0.005454     -0.001948
    28   Atom        0.001553     -0.004350     -0.000654
    29   Atom       -0.002192     -0.006584      0.002168
    30   Atom       -0.001212     -0.004472      0.000808
    31   Atom       -0.005569     -0.001154      0.002454
    32   Atom       -0.009196      0.000512     -0.000956
    33   Atom       -0.019297      0.000824     -0.003780
    34   Atom       -0.006780     -0.001500      0.001612
    35   Atom       -0.003657     -0.003386      0.009173
    36   Atom       -0.007702     -0.006541      0.028235
    37   Atom       -0.006409     -0.010497      0.015060
    38   Atom        0.016645     -0.006693     -0.008650
    39   Atom        0.005321     -0.002936     -0.001694
    40   Atom        0.007593     -0.001209     -0.002204
    41   Atom        0.003484     -0.000419     -0.002100
    42   Atom        0.007582      0.000318      0.000669
    43   Atom        0.004633     -0.001286     -0.002188
    44   Atom        0.001594      0.000002     -0.000198
    45   Atom        0.001173     -0.000106     -0.004544
    46   Atom        0.001950      0.000269      0.000792
 --------------------------------------------------------


 ---------------------------------------------------------------------------------
              Anisotropic Spin Dipole Couplings in Principal Axis System
 ---------------------------------------------------------------------------------

       Atom             a.u.   MegaHertz   Gauss  10(-4) cm-1        Axes

              Baa    -0.0090    -1.205    -0.430    -0.402 -0.1464  0.9456  0.2906
     1 C(13)  Bbb    -0.0040    -0.530    -0.189    -0.177 -0.0141 -0.2957  0.9552
              Bcc     0.0129     1.735     0.619     0.579  0.9891  0.1357  0.0566
 
              Baa    -0.0157    -2.103    -0.750    -0.701 -0.1733 -0.6706  0.7213
     2 C(13)  Bbb    -0.0091    -1.218    -0.435    -0.406 -0.1530  0.7418  0.6529
              Bcc     0.0247     3.321     1.185     1.108  0.9729 -0.0028  0.2311
 
              Baa    -0.0131    -1.759    -0.628    -0.587  0.0656  0.9881  0.1392
     3 C(13)  Bbb    -0.0096    -1.287    -0.459    -0.429 -0.4533 -0.0947  0.8863
              Bcc     0.0227     3.046     1.087     1.016  0.8890 -0.1213  0.4417
 
              Baa    -0.0055    -0.743    -0.265    -0.248 -0.5026 -0.4848  0.7158
     4 C(13)  Bbb    -0.0038    -0.507    -0.181    -0.169 -0.1289  0.8607  0.4925
              Bcc     0.0093     1.251     0.446     0.417  0.8549 -0.1553  0.4951
 
              Baa    -0.0052    -0.694    -0.248    -0.231 -0.1784  0.9365  0.3020
     5 C(13)  Bbb    -0.0017    -0.227    -0.081    -0.076 -0.3835 -0.3488  0.8551
              Bcc     0.0069     0.921     0.329     0.307  0.9061  0.0368  0.4214
 
              Baa    -0.0040    -0.535    -0.191    -0.179 -0.1989 -0.3632  0.9102
     6 C(13)  Bbb    -0.0014    -0.186    -0.066    -0.062 -0.0658  0.9316  0.3574
              Bcc     0.0054     0.721     0.257     0.241  0.9778 -0.0112  0.2092
 
              Baa    -0.0366    -4.914    -1.753    -1.639 -0.0536  0.6845  0.7270
     7 C(13)  Bbb    -0.0300    -4.019    -1.434    -1.341 -0.3079  0.6813 -0.6641
              Bcc     0.0666     8.933     3.188     2.980  0.9499  0.2595 -0.1743
 
              Baa    -0.0164    -2.203    -0.786    -0.735  0.2929  0.6297  0.7195
     8 C(13)  Bbb    -0.0118    -1.589    -0.567    -0.530 -0.6382  0.6891 -0.3433
              Bcc     0.0283     3.792     1.353     1.265  0.7120  0.3587 -0.6037
 
              Baa    -0.0073    -0.981    -0.350    -0.327  0.6348 -0.1544  0.7571
     9 C(13)  Bbb    -0.0008    -0.108    -0.039    -0.036  0.1267  0.9874  0.0951
              Bcc     0.0081     1.089     0.388     0.363  0.7622 -0.0355 -0.6463
 
              Baa    -0.0058    -0.773    -0.276    -0.258  0.6986  0.0322  0.7147
    10 C(13)  Bbb    -0.0040    -0.539    -0.192    -0.180  0.1463  0.9714 -0.1869
              Bcc     0.0098     1.312     0.468     0.438  0.7003 -0.2351 -0.6740
 
              Baa    -0.0333    -4.466    -1.593    -1.490  0.2808 -0.4579  0.8435
    11 C(13)  Bbb    -0.0246    -3.304    -1.179    -1.102  0.8824  0.4688 -0.0392
              Bcc     0.0579     7.770     2.772     2.592 -0.3775  0.7553  0.5358
 
              Baa    -0.0252    -3.381    -1.207    -1.128  0.2083 -0.4245  0.8811
    12 C(13)  Bbb    -0.0180    -2.419    -0.863    -0.807  0.8776  0.4788  0.0232
              Bcc     0.0432     5.801     2.070     1.935 -0.4317  0.7685  0.4723
 
              Baa    -0.0144    -1.929    -0.688    -0.644  0.0404 -0.6823  0.7300
    13 C(13)  Bbb    -0.0122    -1.631    -0.582    -0.544  0.9322  0.2887  0.2182
              Bcc     0.0265     3.560     1.270     1.188 -0.3596  0.6717  0.6477
 
              Baa    -0.2428    17.570     6.269     5.861  0.6113  0.7909 -0.0276
    14 O(17)  Bbb     0.0587    -4.244    -1.514    -1.416 -0.0009  0.0356  0.9994
              Bcc     0.1842   -13.325    -4.755    -4.445  0.7914 -0.6109  0.0224
 
              Baa    -0.1223    -2.117    -0.755    -0.706  0.4352  0.1847  0.8812
    15 Fe(57) Bbb    -0.0210    -0.363    -0.130    -0.121  0.3828  0.8479 -0.3668
              Bcc     0.1432     2.480     0.885     0.827  0.8149 -0.4969 -0.2984
 
              Baa    -0.1565    -8.189    -2.922    -2.731  0.7141 -0.4486 -0.5374
    16 Cl(35) Bbb    -0.1234    -6.461    -2.305    -2.155  0.5815  0.8075  0.0986
              Bcc     0.2799    14.649     5.227     4.887  0.3897 -0.3829  0.8376
 
              Baa    -0.0097    -1.296    -0.462    -0.432  0.4871  0.2863  0.8251
    17 C(13)  Bbb    -0.0084    -1.130    -0.403    -0.377  0.6168  0.5561 -0.5571
              Bcc     0.0181     2.426     0.866     0.809 -0.6183  0.7802  0.0943
 
              Baa    -0.1468    -7.683    -2.742    -2.563  0.7954 -0.5467  0.2614
    18 Cl(35) Bbb    -0.1347    -7.052    -2.516    -2.352 -0.5787 -0.5572  0.5955
              Bcc     0.2815    14.735     5.258     4.915  0.1800  0.6250  0.7596
 
              Baa    -0.1687    -8.827    -3.150    -2.945  0.7869 -0.4335 -0.4391
    19 Cl(35) Bbb    -0.1431    -7.490    -2.673    -2.498  0.5092  0.0541  0.8590
              Bcc     0.3118    16.317     5.822     5.443  0.3486  0.8995 -0.2633
 
              Baa    -0.0206   -10.986    -3.920    -3.664  0.4474  0.8809 -0.1542
    20 H(1)   Bbb    -0.0183    -9.786    -3.492    -3.264 -0.4400  0.3669  0.8196
              Bcc     0.0389    20.772     7.412     6.929  0.7786 -0.2989  0.5518
 
              Baa    -0.0041    -2.203    -0.786    -0.735  0.5197  0.7695 -0.3712
    21 H(1)   Bbb    -0.0040    -2.109    -0.752    -0.703 -0.4304  0.6111  0.6643
              Bcc     0.0081     4.312     1.539     1.438  0.7381 -0.1855  0.6487
 
              Baa    -0.0019    -1.016    -0.363    -0.339 -0.0954  0.9699  0.2241
    22 H(1)   Bbb    -0.0018    -0.941    -0.336    -0.314 -0.4359 -0.2431  0.8665
              Bcc     0.0037     1.957     0.698     0.653  0.8949 -0.0150  0.4460
 
              Baa    -0.0020    -1.059    -0.378    -0.353 -0.0787 -0.4225  0.9029
    23 H(1)   Bbb    -0.0019    -0.989    -0.353    -0.330 -0.1708  0.8981  0.4053
              Bcc     0.0038     2.049     0.731     0.683  0.9822  0.1223  0.1428
 
              Baa    -0.0041    -2.213    -0.790    -0.738  0.2004 -0.6352  0.7459
    24 H(1)   Bbb    -0.0038    -2.009    -0.717    -0.670 -0.0484  0.7540  0.6551
              Bcc     0.0079     4.222     1.507     1.408  0.9785  0.1674 -0.1204
 
              Baa    -0.0196   -10.448    -3.728    -3.485  0.2414  0.8275  0.5070
    25 H(1)   Bbb    -0.0159    -8.468    -3.022    -2.825  0.7492 -0.4910  0.4446
              Bcc     0.0355    18.916     6.750     6.310 -0.6168 -0.2725  0.7384
 
              Baa    -0.0092    -1.233    -0.440    -0.411  0.4549 -0.0677  0.8880
    26 C(13)  Bbb    -0.0079    -1.057    -0.377    -0.353 -0.4759  0.8243  0.3067
              Bcc     0.0171     2.291     0.817     0.764  0.7527  0.5621 -0.3427
 
              Baa    -0.0041    -2.182    -0.779    -0.728  0.5001  0.5688  0.6530
    27 H(1)   Bbb    -0.0035    -1.862    -0.664    -0.621 -0.5460  0.7924 -0.2721
              Bcc     0.0076     4.044     1.443     1.349 -0.6722 -0.2205  0.7068
 
              Baa    -0.0038    -2.044    -0.729    -0.682  0.4691 -0.3384  0.8157
    28 H(1)   Bbb    -0.0035    -1.857    -0.663    -0.620  0.0216  0.9278  0.3725
              Bcc     0.0073     3.901     1.392     1.301  0.8829  0.1571 -0.4426
 
              Baa    -0.0056    -2.990    -1.067    -0.998  0.5330  0.8300  0.1646
    29 H(1)   Bbb    -0.0044    -2.332    -0.832    -0.778  0.6308 -0.5194  0.5766
              Bcc     0.0100     5.322     1.899     1.775 -0.5640  0.2035  0.8003
 
              Baa    -0.0033    -1.744    -0.622    -0.582  0.5781  0.6445  0.5004
    30 H(1)   Bbb    -0.0029    -1.533    -0.547    -0.512 -0.3403  0.7478 -0.5701
              Bcc     0.0061     3.277     1.169     1.093  0.7416 -0.1593 -0.6516
 
              Baa    -0.0076    -4.033    -1.439    -1.345  0.2282  0.7888 -0.5708
    31 H(1)   Bbb    -0.0035    -1.892    -0.675    -0.631  0.3015  0.5002  0.8118
              Bcc     0.0111     5.925     2.114     1.976  0.9258 -0.3573 -0.1236
 
              Baa    -0.0066    -3.512    -1.253    -1.171  0.5886  0.6963  0.4108
    32 H(1)   Bbb    -0.0056    -2.979    -1.063    -0.994 -0.3123 -0.2728  0.9100
              Bcc     0.0122     6.491     2.316     2.165  0.7457 -0.6639  0.0569
 
              Baa    -0.0161    -8.583    -3.063    -2.863  0.3789  0.3258  0.8662
    33 H(1)   Bbb    -0.0130    -6.921    -2.470    -2.309  0.7549  0.4325 -0.4930
              Bcc     0.0291    15.504     5.532     5.172 -0.5352  0.8407 -0.0821
 
              Baa    -0.0060    -3.198    -1.141    -1.067  0.5482  0.1879  0.8149
    34 H(1)   Bbb    -0.0049    -2.614    -0.933    -0.872  0.6779  0.4708 -0.5646
              Bcc     0.0109     5.813     2.074     1.939 -0.4897  0.8620  0.1307
 
              Baa    -0.0069    -3.703    -1.321    -1.235  0.0054 -0.6775  0.7355
    35 H(1)   Bbb    -0.0060    -3.175    -1.133    -1.059  0.9614  0.2059  0.1826
              Bcc     0.0129     6.877     2.454     2.294 -0.2751  0.7062  0.6524
 
              Baa    -0.0216   -11.534    -4.116    -3.847  0.5582 -0.3932  0.7306
    36 H(1)   Bbb    -0.0195   -10.405    -3.713    -3.471  0.8128  0.4358 -0.3865
              Bcc     0.0411    21.939     7.828     7.318 -0.1664  0.8096  0.5629
 
              Baa    -0.0146    -7.805    -2.785    -2.604  0.4523  0.8502 -0.2693
    37 H(1)   Bbb    -0.0125    -6.690    -2.387    -2.231  0.8315 -0.2927  0.4722
              Bcc     0.0272    14.495     5.172     4.835 -0.3226  0.4375  0.8393
 
              Baa    -0.0130     0.940     0.335     0.314  0.8199 -0.5372  0.1981
    38 O(17)  Bbb    -0.0122     0.885     0.316     0.295  0.0139  0.3646  0.9311
              Bcc     0.0252    -1.826    -0.651    -0.609  0.5724  0.7606 -0.3064
 
              Baa    -0.0046     0.334     0.119     0.111  0.5218 -0.2709  0.8089
    39 O(17)  Bbb    -0.0034     0.249     0.089     0.083 -0.4069  0.7544  0.5151
              Bcc     0.0081    -0.583    -0.208    -0.194  0.7498  0.5979 -0.2834
 
              Baa    -0.0063    -0.847    -0.302    -0.282  0.8838 -0.4497  0.1288
    40 C(13)  Bbb    -0.0061    -0.813    -0.290    -0.271 -0.0507  0.1816  0.9821
              Bcc     0.0124     1.659     0.592     0.554  0.4650  0.8745 -0.1377
 
              Baa    -0.0067    -0.900    -0.321    -0.300  0.9829 -0.1791  0.0423
    41 C(13)  Bbb    -0.0061    -0.819    -0.292    -0.273 -0.0209  0.1198  0.9926
              Bcc     0.0128     1.719     0.613     0.573  0.1829  0.9765 -0.1140
 
              Baa    -0.0056    -2.982    -1.064    -0.995  0.7682 -0.5370  0.3485
    42 H(1)   Bbb    -0.0053    -2.802    -1.000    -0.934 -0.3131  0.1597  0.9362
              Bcc     0.0108     5.783     2.064     1.929  0.5584  0.8283  0.0454
 
              Baa    -0.0038    -2.016    -0.719    -0.672  0.8716 -0.4618  0.1645
    43 H(1)   Bbb    -0.0037    -1.981    -0.707    -0.661 -0.0308  0.2835  0.9585
              Bcc     0.0075     3.997     1.426     1.333  0.4892  0.8405 -0.2329
 
              Baa    -0.0038    -2.030    -0.724    -0.677  0.9803 -0.1451 -0.1341
    44 H(1)   Bbb    -0.0036    -1.910    -0.681    -0.637  0.1353 -0.0019  0.9908
              Bcc     0.0074     3.940     1.406     1.314  0.1440  0.9894 -0.0178
 
              Baa    -0.0062    -3.315    -1.183    -1.106  0.9218 -0.1609 -0.3527
    45 H(1)   Bbb    -0.0056    -2.992    -1.068    -0.998  0.3822  0.2254  0.8962
              Bcc     0.0118     6.307     2.251     2.104  0.0647  0.9609 -0.2693
 
              Baa    -0.0109    -5.792    -2.067    -1.932  0.9901 -0.0596 -0.1269
    46 H(1)   Bbb    -0.0091    -4.868    -1.737    -1.624  0.1249 -0.0355  0.9915
              Bcc     0.0200    10.661     3.804     3.556  0.0636  0.9976  0.0277
 

 ---------------------------------------------------------------------------------

 No NMR shielding tensors so no spin-rotation constants.
 Leave Link  601 at Sun Jun 20 18:12:47 2021, MaxMem=  2147483648 cpu:              76.9 elap:               5.0
 (Enter /SFS/product/gaussian/g16.a03/x86_64/avx/g16/l9999.exe)
 1\1\GINC-KTCHPCPX041\SP\UB3LYP\Jul-CC-pVDZ\C17H22Cl3Fe1O3(6)\KWANEU\20
 -Jun-2021\0\\#p ub3lyp jul-cc-pvdz pop=cm5 scrf=(pcm,solvent=water) gu
 ess=read geom=allcheck\\title\\0,6\C,0,-3.1865008872,-0.0599656058,0.6
 085493612\C,0,-1.8619380694,0.4022095109,0.756891561\C,0,-1.4425420768
 ,0.8573501377,2.024666196\C,0,-2.3225536913,0.8613643858,3.1052007681\
 C,0,-3.6366137377,0.4123010936,2.9410355497\C,0,-4.062857444,-0.052555
 5597,1.6910328598\C,0,-0.8720667595,0.3877449294,-0.3512177004\C,0,-1.
 0196118485,-0.5525594182,-1.5733959029\C,0,-2.0538702423,-0.1063028928
 ,-2.6185596046\C,0,-1.8400300608,1.3869592995,-2.9184928006\C,0,-1.680
 8394004,2.127371432,-1.6199109131\C,0,-0.5314493266,2.6856881097,-1.14
 71839658\C,0,0.7525177463,2.7230479057,-1.9235173479\O,0,0.3050615126,
 0.8218144596,-0.0906676779\Fe,0,2.0888917065,0.2023926254,0.4157323852
 \Cl,0,3.0140794292,-0.6522202309,-1.3999133705\C,0,-0.5487039047,3.519
 0419574,0.0972997106\Cl,0,1.8521977804,-1.2229160631,2.0854776926\Cl,0
 ,3.0924611175,2.0561248126,1.097204693\H,0,-0.4145595314,1.1821687903,
 2.1624935776\H,0,-1.9770063025,1.2056461459,4.080393242\H,0,-4.3253807
 002,0.4131961653,3.7874153783\H,0,-5.0816608212,-0.4188853584,1.560809
 2268\H,0,-3.5362441033,-0.4456339312,-0.3437648112\H,0,-0.0207929271,-
 0.5466391751,-2.0275176327\C,0,-1.2790457997,-1.9986747707,-1.11569815
 17\H,0,-1.9344362304,-0.7189192047,-3.5227473721\H,0,-3.0711202634,-0.
 2910097471,-2.256282704\H,0,-0.9594764319,1.5178270966,-3.5596817926\H
 ,0,-2.7013949731,1.7808104645,-3.4779739538\H,0,-2.5943075105,2.294965
 1217,-1.047428555\H,0,-1.5073990044,3.4697838625,0.6258642585\H,0,0.26
 99826456,3.2400764177,0.7737437714\H,0,-0.369471366,4.56862393,-0.1894
 833679\H,0,0.7326443408,3.6302387391,-2.5518301608\H,0,1.6192764652,2.
 8074121739,-1.2592139748\H,0,0.898540435,1.8649521655,-2.5855831289\O,
 0,-0.1460621094,-2.5698881221,-0.7008066304\O,0,-2.3612689067,-2.54553
 9971,-1.1535288668\C,0,-0.234249499,-3.9511014527,-0.2332805173\C,0,1.
 177426267,-4.4743161642,-0.0725590767\H,0,-0.7885492946,-3.9442117776,
 0.7151990128\H,0,-0.8163395421,-4.5212920444,-0.9684004901\H,0,1.13510
 91499,-5.5115295369,0.2905255459\H,0,1.7117162308,-4.4631983564,-1.032
 2762799\H,0,1.7402569393,-3.8702643492,0.6499199595\\Version=ES64L-G16
 RevA.03\State=6-A\HF=-3531.4394119\S2=8.762205\S2-1=0.\S2A=8.750046\RM
 SD=3.327e-09\Dipole=-4.1550075,1.1259714,-1.0800466\Quadrupole=-12.588
 9942,7.1248199,5.4641744,-8.1517677,-6.7847929,-3.6407944\PG=C01 [X(C1
 7H22Cl3Fe1O3)]\\@


 Everything starts as somebody's daydream.
                           -- Larry Niven
 Job cpu time:       0 days  5 hours  3 minutes 58.4 seconds.
 Elapsed time:       0 days  0 hours 19 minutes  4.7 seconds.
 File lengths (MBytes):  RWF=    661 Int=      0 D2E=      0 Chk=     57 Scr=      1
 Normal termination of Gaussian 16 at Sun Jun 20 18:12:48 2021.
