 Entering Gaussian System, Link 0=g16
 Input=prenyl-first_betaine_grid-CC_200_CO_230-b3lyp_d3bj-juldz-gas.gjf
 Output=prenyl-first_betaine_grid-CC_200_CO_230-b3lyp_d3bj-juldz-gas.out
 Initial command:
 /SFS/product/gaussian/g16.a03/x86_64/avx/g16/l1.exe "/scratch/kwaneu.2874272.bmbhpcps002/Gau-4606.inp" -scrdir="/scratch/kwaneu.2874272.bmbhpcps002/"
 Entering Link 1 = /SFS/product/gaussian/g16.a03/x86_64/avx/g16/l1.exe PID=      4607.
  
 Copyright (c) 1988,1990,1992,1993,1995,1998,2003,2009,2016,
            Gaussian, Inc.  All Rights Reserved.
  
 This is part of the Gaussian(R) 16 program.  It is based on
 the Gaussian(R) 09 system (copyright 2009, Gaussian, Inc.),
 the Gaussian(R) 03 system (copyright 2003, Gaussian, Inc.),
 the Gaussian(R) 98 system (copyright 1998, Gaussian, Inc.),
 the Gaussian(R) 94 system (copyright 1995, Gaussian, Inc.),
 the Gaussian 92(TM) system (copyright 1992, Gaussian, Inc.),
 the Gaussian 90(TM) system (copyright 1990, Gaussian, Inc.),
 the Gaussian 88(TM) system (copyright 1988, Gaussian, Inc.),
 the Gaussian 86(TM) system (copyright 1986, Carnegie Mellon
 University), and the Gaussian 82(TM) system (copyright 1983,
 Carnegie Mellon University). Gaussian is a federally registered
 trademark of Gaussian, Inc.
  
 This software contains proprietary and confidential information,
 including trade secrets, belonging to Gaussian, Inc.
  
 This software is provided under written license and may be
 used, copied, transmitted, or stored only in accord with that
 written license.
  
 The following legend is applicable only to US Government
 contracts under FAR:
  
                    RESTRICTED RIGHTS LEGEND
  
 Use, reproduction and disclosure by the US Government is
 subject to restrictions as set forth in subparagraphs (a)
 and (c) of the Commercial Computer Software - Restricted
 Rights clause in FAR 52.227-19.
  
 Gaussian, Inc.
 340 Quinnipiac St., Bldg. 40, Wallingford CT 06492
  
  
 ---------------------------------------------------------------
 Warning -- This program may not be used in any manner that
 competes with the business of Gaussian, Inc. or will provide
 assistance to any competitor of Gaussian, Inc.  The licensee
 of this program is prohibited from giving any competitor of
 Gaussian, Inc. access to this program.  By using this program,
 the user acknowledges that Gaussian, Inc. is engaged in the
 business of creating and licensing software in the field of
 computational chemistry and represents and warrants to the
 licensee that it is not a competitor of Gaussian, Inc. and that
 it will not use this program in any manner prohibited above.
 ---------------------------------------------------------------
  

 Cite this work as:
 Gaussian 16, Revision A.03,
 M. J. Frisch, G. W. Trucks, H. B. Schlegel, G. E. Scuseria, 
 M. A. Robb, J. R. Cheeseman, G. Scalmani, V. Barone, 
 G. A. Petersson, H. Nakatsuji, X. Li, M. Caricato, A. V. Marenich, 
 J. Bloino, B. G. Janesko, R. Gomperts, B. Mennucci, H. P. Hratchian, 
 J. V. Ortiz, A. F. Izmaylov, J. L. Sonnenberg, D. Williams-Young, 
 F. Ding, F. Lipparini, F. Egidi, J. Goings, B. Peng, A. Petrone, 
 T. Henderson, D. Ranasinghe, V. G. Zakrzewski, J. Gao, N. Rega, 
 G. Zheng, W. Liang, M. Hada, M. Ehara, K. Toyota, R. Fukuda, 
 J. Hasegawa, M. Ishida, T. Nakajima, Y. Honda, O. Kitao, H. Nakai, 
 T. Vreven, K. Throssell, J. A. Montgomery, Jr., J. E. Peralta, 
 F. Ogliaro, M. J. Bearpark, J. J. Heyd, E. N. Brothers, K. N. Kudin, 
 V. N. Staroverov, T. A. Keith, R. Kobayashi, J. Normand, 
 K. Raghavachari, A. P. Rendell, J. C. Burant, S. S. Iyengar, 
 J. Tomasi, M. Cossi, J. M. Millam, M. Klene, C. Adamo, R. Cammi, 
 J. W. Ochterski, R. L. Martin, K. Morokuma, O. Farkas, 
 J. B. Foresman, and D. J. Fox, Gaussian, Inc., Wallingford CT, 2016.
 
 ******************************************
 Gaussian 16:  ES64L-G16RevA.03 25-Dec-2016
                19-Jun-2021 
 ******************************************
 %chk=checkpoint.chk
 %nprocshared=16
 Will use up to   16 processors via shared memory.
 %mem=16GB
 -----------------------------------------------------------
 #p opt=modredundant freq=noraman ub3lyp jul-cc-pvdz pop=cm5
 -----------------------------------------------------------
 1/18=120,19=15,26=3,38=1/1,3;
 2/9=110,12=2,17=6,18=5,40=1/2;
 3/5=16,7=50,11=2,25=1,30=1,71=1,74=-5,116=2/1,2,3;
 4//1;
 5/5=2,38=5/2;
 6/7=2,8=2,9=2,10=2,28=1,79=1/1;
 7//1,2,3,16;
 1/18=20,19=15,26=3/3(2);
 2/9=110/2;
 99//99;
 2/9=110/2;
 3/5=16,7=50,11=2,25=1,30=1,71=1,74=-5,116=2/1,2,3;
 4/5=5,16=3,69=1/1;
 5/5=2,38=5/2;
 7//1,2,3,16;
 1/18=20,19=15,26=3/3(-5);
 2/9=110/2;
 6/7=2,8=2,9=2,10=2,19=2,28=1,79=1/1;
 99/9=1/99;
 Leave Link    1 at Sat Jun 19 21:34:52 2021, MaxMem=  2147483648 cpu:               2.1 elap:               0.2
 (Enter /SFS/product/gaussian/g16.a03/x86_64/avx/g16/l101.exe)
 -----
 title
 -----
 Symbolic Z-matrix:
 Charge =  0 Multiplicity = 6
 6                     3.20314  -0.36348   0.50463 
 6                     1.82506  -0.54946   0.72815 
 6                     1.36392  -0.63653   2.05371 
 6                     2.25292  -0.54194   3.12319 
 6                     3.61596  -0.36339   2.88844 
 6                     4.08648  -0.27092   1.57508 
 6                     0.82272  -0.63163  -0.39034 
 6                     1.02691   0.24122  -1.67419 
 6                     1.91868  -0.44347  -2.71484 
 6                     1.50637  -1.92377  -2.73247 
 6                     1.28917  -2.35182  -1.29773 
 6                     0.09874  -2.85475  -0.79093 
 6                    -1.17655  -2.87739  -1.56635 
 8                    -0.43202  -0.76327   0.0053 
 26                   -2.04837   0.12694   0.38893 
 17                   -2.82426   0.91921  -1.52702 
 6                     0.06489  -3.50992   0.54681 
 17                   -1.76316   1.63758   1.96904 
 17                   -3.31951  -1.52857   1.16368 
 1                     0.3041   -0.74992   2.23955 
 1                     1.87389  -0.59922   4.1393 
 1                     4.30914  -0.28836   3.72169 
 1                     5.1449   -0.11999   1.38355 
 1                     3.59231  -0.27336  -0.50157 
 1                     0.01575   0.35835  -2.07725 
 6                     1.53907   1.64569  -1.32714 
 1                     1.79288   0.02834  -3.69459 
 1                     2.97286  -0.32738  -2.45104 
 1                     0.59579  -2.05191  -3.32462 
 1                     2.27884  -2.54571  -3.19935 
 1                     2.1882   -2.61601  -0.7482 
 1                    -0.10695  -4.58542   0.38826 
 1                     0.99726  -3.39132   1.10269 
 1                    -0.78096  -3.13883   1.13511 
 1                    -1.18667  -3.8179   -2.14084 
 1                    -2.04721  -2.87758  -0.90752 
 1                    -1.26904  -2.05772  -2.2798 
 8                     0.56436   2.38635  -0.79284 
 8                     2.67296   2.02611  -1.53165 
 6                     0.90211   3.75418  -0.4209 
 6                    -0.39318   4.51803  -0.23337 
 1                     1.49418   3.71014   0.49878 
 1                     1.52876   4.17603  -1.21085 
 1                    -0.16544   5.55051   0.05501 
 1                    -0.97145   4.53756  -1.16233 
 1                    -1.0067    4.06226   0.54801 
 
 The following ModRedundant input section has been read:
 B       7      11 F                                                           
 B      12      14 F                                                           
 
 ITRead=  0  0  0  0  0  0  0  0  0  0  0  0  0  0  0  0  0  0  0  0
 ITRead=  0  0  0  0  0  0  0  0  0  0  0  0  0  0  0  0  0  0  0  0
 ITRead=  0  0  0  0  0  0
 MicOpt= -1 -1 -1 -1 -1 -1 -1 -1 -1 -1 -1 -1 -1 -1 -1 -1 -1 -1 -1 -1
 MicOpt= -1 -1 -1 -1 -1 -1 -1 -1 -1 -1 -1 -1 -1 -1 -1 -1 -1 -1 -1 -1
 MicOpt= -1 -1 -1 -1 -1 -1
 NAtoms=     46 NQM=       46 NQMF=       0 NMMI=      0 NMMIF=      0
                NMic=       0 NMicF=      0.
                    Isotopes and Nuclear Properties:
 (Nuclear quadrupole moments (NQMom) in fm**2, nuclear magnetic moments (NMagM)
  in nuclear magnetons)

  Atom         1           2           3           4           5           6           7           8           9          10
 IAtWgt=          12          12          12          12          12          12          12          12          12          12
 AtmWgt=  12.0000000  12.0000000  12.0000000  12.0000000  12.0000000  12.0000000  12.0000000  12.0000000  12.0000000  12.0000000
 NucSpn=           0           0           0           0           0           0           0           0           0           0
 AtZEff=  -0.0000000  -0.0000000  -0.0000000  -0.0000000  -0.0000000  -0.0000000  -0.0000000  -0.0000000  -0.0000000  -0.0000000
 NQMom=    0.0000000   0.0000000   0.0000000   0.0000000   0.0000000   0.0000000   0.0000000   0.0000000   0.0000000   0.0000000
 NMagM=    0.0000000   0.0000000   0.0000000   0.0000000   0.0000000   0.0000000   0.0000000   0.0000000   0.0000000   0.0000000
 AtZNuc=   6.0000000   6.0000000   6.0000000   6.0000000   6.0000000   6.0000000   6.0000000   6.0000000   6.0000000   6.0000000

  Atom        11          12          13          14          15          16          17          18          19          20
 IAtWgt=          12          12          12          16          56          35          12          35          35           1
 AtmWgt=  12.0000000  12.0000000  12.0000000  15.9949146  55.9349393  34.9688527  12.0000000  34.9688527  34.9688527   1.0078250
 NucSpn=           0           0           0           0           0           3           0           3           3           1
 AtZEff=  -0.0000000  -0.0000000  -0.0000000  -0.0000000  -0.0000000  -0.0000000  -0.0000000  -0.0000000  -0.0000000  -0.0000000
 NQMom=    0.0000000   0.0000000   0.0000000   0.0000000   0.0000000  -8.1650000   0.0000000  -8.1650000  -8.1650000   0.0000000
 NMagM=    0.0000000   0.0000000   0.0000000   0.0000000   0.0000000   0.8218740   0.0000000   0.8218740   0.8218740   2.7928460
 AtZNuc=   6.0000000   6.0000000   6.0000000   8.0000000  26.0000000  17.0000000   6.0000000  17.0000000  17.0000000   1.0000000

  Atom        21          22          23          24          25          26          27          28          29          30
 IAtWgt=           1           1           1           1           1          12           1           1           1           1
 AtmWgt=   1.0078250   1.0078250   1.0078250   1.0078250   1.0078250  12.0000000   1.0078250   1.0078250   1.0078250   1.0078250
 NucSpn=           1           1           1           1           1           0           1           1           1           1
 AtZEff=  -0.0000000  -0.0000000  -0.0000000  -0.0000000  -0.0000000  -0.0000000  -0.0000000  -0.0000000  -0.0000000  -0.0000000
 NQMom=    0.0000000   0.0000000   0.0000000   0.0000000   0.0000000   0.0000000   0.0000000   0.0000000   0.0000000   0.0000000
 NMagM=    2.7928460   2.7928460   2.7928460   2.7928460   2.7928460   0.0000000   2.7928460   2.7928460   2.7928460   2.7928460
 AtZNuc=   1.0000000   1.0000000   1.0000000   1.0000000   1.0000000   6.0000000   1.0000000   1.0000000   1.0000000   1.0000000

  Atom        31          32          33          34          35          36          37          38          39          40
 IAtWgt=           1           1           1           1           1           1           1          16          16          12
 AtmWgt=   1.0078250   1.0078250   1.0078250   1.0078250   1.0078250   1.0078250   1.0078250  15.9949146  15.9949146  12.0000000
 NucSpn=           1           1           1           1           1           1           1           0           0           0
 AtZEff=  -0.0000000  -0.0000000  -0.0000000  -0.0000000  -0.0000000  -0.0000000  -0.0000000  -0.0000000  -0.0000000  -0.0000000
 NQMom=    0.0000000   0.0000000   0.0000000   0.0000000   0.0000000   0.0000000   0.0000000   0.0000000   0.0000000   0.0000000
 NMagM=    2.7928460   2.7928460   2.7928460   2.7928460   2.7928460   2.7928460   2.7928460   0.0000000   0.0000000   0.0000000
 AtZNuc=   1.0000000   1.0000000   1.0000000   1.0000000   1.0000000   1.0000000   1.0000000   8.0000000   8.0000000   6.0000000

  Atom        41          42          43          44          45          46
 IAtWgt=          12           1           1           1           1           1
 AtmWgt=  12.0000000   1.0078250   1.0078250   1.0078250   1.0078250   1.0078250
 NucSpn=           0           1           1           1           1           1
 AtZEff=  -0.0000000  -0.0000000  -0.0000000  -0.0000000  -0.0000000  -0.0000000
 NQMom=    0.0000000   0.0000000   0.0000000   0.0000000   0.0000000   0.0000000
 NMagM=    0.0000000   2.7928460   2.7928460   2.7928460   2.7928460   2.7928460
 AtZNuc=   6.0000000   1.0000000   1.0000000   1.0000000   1.0000000   1.0000000
 Leave Link  101 at Sat Jun 19 21:34:53 2021, MaxMem=  2147483648 cpu:               6.2 elap:               0.5
 (Enter /SFS/product/gaussian/g16.a03/x86_64/avx/g16/l103.exe)

 GradGradGradGradGradGradGradGradGradGradGradGradGradGradGradGradGradGrad
 Berny optimization.
 Initialization pass.
                           ----------------------------
                           !    Initial Parameters    !
                           ! (Angstroms and Degrees)  !
 --------------------------                            --------------------------
 ! Name  Definition              Value          Derivative Info.                !
 --------------------------------------------------------------------------------
 ! R1    R(1,2)                  1.4084         estimate D2E/DX2                !
 ! R2    R(1,6)                  1.3909         estimate D2E/DX2                !
 ! R3    R(1,24)                 1.0826         estimate D2E/DX2                !
 ! R4    R(2,3)                  1.4062         estimate D2E/DX2                !
 ! R5    R(2,7)                  1.5041         estimate D2E/DX2                !
 ! R6    R(3,4)                  1.3939         estimate D2E/DX2                !
 ! R7    R(3,20)                 1.0819         estimate D2E/DX2                !
 ! R8    R(4,5)                  1.3946         estimate D2E/DX2                !
 ! R9    R(4,21)                 1.086          estimate D2E/DX2                !
 ! R10   R(5,6)                  1.3982         estimate D2E/DX2                !
 ! R11   R(5,22)                 1.0865         estimate D2E/DX2                !
 ! R12   R(6,23)                 1.0861         estimate D2E/DX2                !
 ! R13   R(7,8)                  1.5658         estimate D2E/DX2                !
 ! R14   R(7,11)                 2.0            Frozen                          !
 ! R15   R(7,14)                 1.3222         estimate D2E/DX2                !
 ! R16   R(8,9)                  1.532          estimate D2E/DX2                !
 ! R17   R(8,25)                 1.0948         estimate D2E/DX2                !
 ! R18   R(8,26)                 1.5347         estimate D2E/DX2                !
 ! R19   R(9,10)                 1.5367         estimate D2E/DX2                !
 ! R20   R(9,27)                 1.0947         estimate D2E/DX2                !
 ! R21   R(9,28)                 1.0929         estimate D2E/DX2                !
 ! R22   R(10,11)                1.5129         estimate D2E/DX2                !
 ! R23   R(10,29)                1.0937         estimate D2E/DX2                !
 ! R24   R(10,30)                1.0961         estimate D2E/DX2                !
 ! R25   R(11,12)                1.3881         estimate D2E/DX2                !
 ! R26   R(11,31)                1.0863         estimate D2E/DX2                !
 ! R27   R(12,13)                1.4927         estimate D2E/DX2                !
 ! R28   R(12,14)                2.3            Frozen                          !
 ! R29   R(12,17)                1.49           estimate D2E/DX2                !
 ! R30   R(13,35)                1.1021         estimate D2E/DX2                !
 ! R31   R(13,36)                1.0918         estimate D2E/DX2                !
 ! R32   R(13,37)                1.0906         estimate D2E/DX2                !
 ! R33   R(14,15)                1.8847         estimate D2E/DX2                !
 ! R34   R(15,16)                2.2137         estimate D2E/DX2                !
 ! R35   R(15,18)                2.2046         estimate D2E/DX2                !
 ! R36   R(15,19)                2.2264         estimate D2E/DX2                !
 ! R37   R(17,32)                1.1006         estimate D2E/DX2                !
 ! R38   R(17,33)                1.092          estimate D2E/DX2                !
 ! R39   R(17,34)                1.0951         estimate D2E/DX2                !
 ! R40   R(26,38)                1.3357         estimate D2E/DX2                !
 ! R41   R(26,39)                1.2134         estimate D2E/DX2                !
 ! R42   R(38,40)                1.4572         estimate D2E/DX2                !
 ! R43   R(40,41)                1.5154         estimate D2E/DX2                !
 ! R44   R(40,42)                1.0947         estimate D2E/DX2                !
 ! R45   R(40,43)                1.093          estimate D2E/DX2                !
 ! R46   R(41,44)                1.0959         estimate D2E/DX2                !
 ! R47   R(41,45)                1.0944         estimate D2E/DX2                !
 ! R48   R(41,46)                1.093          estimate D2E/DX2                !
 ! A1    A(2,1,6)              120.533          estimate D2E/DX2                !
 ! A2    A(2,1,24)             120.679          estimate D2E/DX2                !
 ! A3    A(6,1,24)             118.7802         estimate D2E/DX2                !
 ! A4    A(1,2,3)              118.5974         estimate D2E/DX2                !
 ! A5    A(1,2,7)              122.7677         estimate D2E/DX2                !
 ! A6    A(3,2,7)              118.6236         estimate D2E/DX2                !
 ! A7    A(2,3,4)              120.6572         estimate D2E/DX2                !
 ! A8    A(2,3,20)             119.317          estimate D2E/DX2                !
 ! A9    A(4,3,20)             120.0029         estimate D2E/DX2                !
 ! A10   A(3,4,5)              120.1902         estimate D2E/DX2                !
 ! A11   A(3,4,21)             119.4515         estimate D2E/DX2                !
 ! A12   A(5,4,21)             120.3559         estimate D2E/DX2                !
 ! A13   A(4,5,6)              119.7035         estimate D2E/DX2                !
 ! A14   A(4,5,22)             120.2199         estimate D2E/DX2                !
 ! A15   A(6,5,22)             120.0748         estimate D2E/DX2                !
 ! A16   A(1,6,5)              120.3175         estimate D2E/DX2                !
 ! A17   A(1,6,23)             119.4972         estimate D2E/DX2                !
 ! A18   A(5,6,23)             120.1842         estimate D2E/DX2                !
 ! A19   A(2,7,8)              119.4945         estimate D2E/DX2                !
 ! A20   A(2,7,14)             114.5393         estimate D2E/DX2                !
 ! A21   A(8,7,14)             115.1244         estimate D2E/DX2                !
 ! A22   A(7,8,9)              112.5647         estimate D2E/DX2                !
 ! A23   A(7,8,25)             103.9488         estimate D2E/DX2                !
 ! A24   A(7,8,26)             111.6071         estimate D2E/DX2                !
 ! A25   A(9,8,25)             109.5941         estimate D2E/DX2                !
 ! A26   A(9,8,26)             111.6141         estimate D2E/DX2                !
 ! A27   A(25,8,26)            107.0717         estimate D2E/DX2                !
 ! A28   A(8,9,10)             106.387          estimate D2E/DX2                !
 ! A29   A(8,9,27)             110.3923         estimate D2E/DX2                !
 ! A30   A(8,9,28)             110.4901         estimate D2E/DX2                !
 ! A31   A(10,9,27)            111.9668         estimate D2E/DX2                !
 ! A32   A(10,9,28)            111.3393         estimate D2E/DX2                !
 ! A33   A(27,9,28)            106.3262         estimate D2E/DX2                !
 ! A34   A(9,10,11)            107.4688         estimate D2E/DX2                !
 ! A35   A(9,10,29)            110.0256         estimate D2E/DX2                !
 ! A36   A(9,10,30)            111.2453         estimate D2E/DX2                !
 ! A37   A(11,10,29)           111.1476         estimate D2E/DX2                !
 ! A38   A(11,10,30)           110.1552         estimate D2E/DX2                !
 ! A39   A(29,10,30)           106.8361         estimate D2E/DX2                !
 ! A40   A(10,11,12)           124.8798         estimate D2E/DX2                !
 ! A41   A(10,11,31)           115.4509         estimate D2E/DX2                !
 ! A42   A(12,11,31)           115.9086         estimate D2E/DX2                !
 ! A43   A(11,12,13)           123.2649         estimate D2E/DX2                !
 ! A44   A(11,12,17)           120.437          estimate D2E/DX2                !
 ! A45   A(13,12,17)           116.1252         estimate D2E/DX2                !
 ! A46   A(12,13,35)           106.9517         estimate D2E/DX2                !
 ! A47   A(12,13,36)           111.5816         estimate D2E/DX2                !
 ! A48   A(12,13,37)           113.6337         estimate D2E/DX2                !
 ! A49   A(35,13,36)           107.8822         estimate D2E/DX2                !
 ! A50   A(35,13,37)           107.4329         estimate D2E/DX2                !
 ! A51   A(36,13,37)           109.1011         estimate D2E/DX2                !
 ! A52   A(7,14,15)            145.8658         estimate D2E/DX2                !
 ! A53   A(14,15,16)           107.0648         estimate D2E/DX2                !
 ! A54   A(14,15,18)           111.0138         estimate D2E/DX2                !
 ! A55   A(14,15,19)           102.0791         estimate D2E/DX2                !
 ! A56   A(16,15,18)           114.8623         estimate D2E/DX2                !
 ! A57   A(16,15,19)           111.5424         estimate D2E/DX2                !
 ! A58   A(18,15,19)           109.5104         estimate D2E/DX2                !
 ! A59   A(12,17,32)           107.6915         estimate D2E/DX2                !
 ! A60   A(12,17,33)           112.9489         estimate D2E/DX2                !
 ! A61   A(12,17,34)           110.54           estimate D2E/DX2                !
 ! A62   A(32,17,33)           108.2269         estimate D2E/DX2                !
 ! A63   A(32,17,34)           106.7334         estimate D2E/DX2                !
 ! A64   A(33,17,34)           110.4402         estimate D2E/DX2                !
 ! A65   A(8,26,38)            110.7556         estimate D2E/DX2                !
 ! A66   A(8,26,39)            124.1023         estimate D2E/DX2                !
 ! A67   A(38,26,39)           125.1351         estimate D2E/DX2                !
 ! A68   A(26,38,40)           116.9663         estimate D2E/DX2                !
 ! A69   A(38,40,41)           107.8555         estimate D2E/DX2                !
 ! A70   A(38,40,42)           107.5806         estimate D2E/DX2                !
 ! A71   A(38,40,43)           108.1013         estimate D2E/DX2                !
 ! A72   A(41,40,42)           112.2484         estimate D2E/DX2                !
 ! A73   A(41,40,43)           112.6407         estimate D2E/DX2                !
 ! A74   A(42,40,43)           108.2178         estimate D2E/DX2                !
 ! A75   A(40,41,44)           109.2576         estimate D2E/DX2                !
 ! A76   A(40,41,45)           110.8298         estimate D2E/DX2                !
 ! A77   A(40,41,46)           110.9815         estimate D2E/DX2                !
 ! A78   A(44,41,45)           108.4421         estimate D2E/DX2                !
 ! A79   A(44,41,46)           108.7462         estimate D2E/DX2                !
 ! A80   A(45,41,46)           108.5217         estimate D2E/DX2                !
 ! D1    D(6,1,2,3)              0.1204         estimate D2E/DX2                !
 ! D2    D(6,1,2,7)            178.8786         estimate D2E/DX2                !
 ! D3    D(24,1,2,3)          -178.8484         estimate D2E/DX2                !
 ! D4    D(24,1,2,7)            -0.0902         estimate D2E/DX2                !
 ! D5    D(2,1,6,5)              0.0858         estimate D2E/DX2                !
 ! D6    D(2,1,6,23)          -179.54           estimate D2E/DX2                !
 ! D7    D(24,1,6,5)           179.0739         estimate D2E/DX2                !
 ! D8    D(24,1,6,23)           -0.5518         estimate D2E/DX2                !
 ! D9    D(1,2,3,4)             -0.0608         estimate D2E/DX2                !
 ! D10   D(1,2,3,20)           178.1988         estimate D2E/DX2                !
 ! D11   D(7,2,3,4)           -178.8712         estimate D2E/DX2                !
 ! D12   D(7,2,3,20)            -0.6116         estimate D2E/DX2                !
 ! D13   D(1,2,7,8)            -35.2374         estimate D2E/DX2                !
 ! D14   D(1,2,7,14)          -177.844          estimate D2E/DX2                !
 ! D15   D(3,2,7,8)            143.5205         estimate D2E/DX2                !
 ! D16   D(3,2,7,14)             0.9139         estimate D2E/DX2                !
 ! D17   D(2,3,4,5)             -0.2058         estimate D2E/DX2                !
 ! D18   D(2,3,4,21)           179.2311         estimate D2E/DX2                !
 ! D19   D(20,3,4,5)          -178.4534         estimate D2E/DX2                !
 ! D20   D(20,3,4,21)            0.9834         estimate D2E/DX2                !
 ! D21   D(3,4,5,6)              0.412          estimate D2E/DX2                !
 ! D22   D(3,4,5,22)           179.9234         estimate D2E/DX2                !
 ! D23   D(21,4,5,6)          -179.0197         estimate D2E/DX2                !
 ! D24   D(21,4,5,22)            0.4917         estimate D2E/DX2                !
 ! D25   D(4,5,6,1)             -0.3528         estimate D2E/DX2                !
 ! D26   D(4,5,6,23)           179.2705         estimate D2E/DX2                !
 ! D27   D(22,5,6,1)          -179.8649         estimate D2E/DX2                !
 ! D28   D(22,5,6,23)           -0.2417         estimate D2E/DX2                !
 ! D29   D(2,7,8,9)             86.6268         estimate D2E/DX2                !
 ! D30   D(2,7,8,25)          -154.8575         estimate D2E/DX2                !
 ! D31   D(2,7,8,26)           -39.7875         estimate D2E/DX2                !
 ! D32   D(14,7,8,9)          -130.9744         estimate D2E/DX2                !
 ! D33   D(14,7,8,25)          -12.4587         estimate D2E/DX2                !
 ! D34   D(14,7,8,26)          102.6113         estimate D2E/DX2                !
 ! D35   D(2,7,14,15)           95.6848         estimate D2E/DX2                !
 ! D36   D(8,7,14,15)          -48.5956         estimate D2E/DX2                !
 ! D37   D(7,8,9,10)            40.7849         estimate D2E/DX2                !
 ! D38   D(7,8,9,27)           162.4732         estimate D2E/DX2                !
 ! D39   D(7,8,9,28)           -80.1996         estimate D2E/DX2                !
 ! D40   D(25,8,9,10)          -74.3658         estimate D2E/DX2                !
 ! D41   D(25,8,9,27)           47.3225         estimate D2E/DX2                !
 ! D42   D(25,8,9,28)          164.6497         estimate D2E/DX2                !
 ! D43   D(26,8,9,10)          167.1954         estimate D2E/DX2                !
 ! D44   D(26,8,9,27)          -71.1163         estimate D2E/DX2                !
 ! D45   D(26,8,9,28)           46.2109         estimate D2E/DX2                !
 ! D46   D(7,8,26,38)          -73.6639         estimate D2E/DX2                !
 ! D47   D(7,8,26,39)          107.2554         estimate D2E/DX2                !
 ! D48   D(9,8,26,38)          159.4038         estimate D2E/DX2                !
 ! D49   D(9,8,26,39)          -19.6769         estimate D2E/DX2                !
 ! D50   D(25,8,26,38)          39.4685         estimate D2E/DX2                !
 ! D51   D(25,8,26,39)        -139.6122         estimate D2E/DX2                !
 ! D52   D(8,9,10,11)          -41.4438         estimate D2E/DX2                !
 ! D53   D(8,9,10,29)           79.7044         estimate D2E/DX2                !
 ! D54   D(8,9,10,30)         -162.1019         estimate D2E/DX2                !
 ! D55   D(27,9,10,11)        -162.124          estimate D2E/DX2                !
 ! D56   D(27,9,10,29)         -40.9758         estimate D2E/DX2                !
 ! D57   D(27,9,10,30)          77.2179         estimate D2E/DX2                !
 ! D58   D(28,9,10,11)          78.9944         estimate D2E/DX2                !
 ! D59   D(28,9,10,29)        -159.8573         estimate D2E/DX2                !
 ! D60   D(28,9,10,30)         -41.6636         estimate D2E/DX2                !
 ! D61   D(9,10,11,12)         121.0177         estimate D2E/DX2                !
 ! D62   D(9,10,11,31)         -81.8174         estimate D2E/DX2                !
 ! D63   D(29,10,11,12)          0.5766         estimate D2E/DX2                !
 ! D64   D(29,10,11,31)        157.7415         estimate D2E/DX2                !
 ! D65   D(30,10,11,12)       -117.6387         estimate D2E/DX2                !
 ! D66   D(30,10,11,31)         39.5262         estimate D2E/DX2                !
 ! D67   D(10,11,12,13)         -7.9377         estimate D2E/DX2                !
 ! D68   D(10,11,12,17)        167.0957         estimate D2E/DX2                !
 ! D69   D(31,11,12,13)       -165.0097         estimate D2E/DX2                !
 ! D70   D(31,11,12,17)         10.0237         estimate D2E/DX2                !
 ! D71   D(11,12,13,35)         87.6223         estimate D2E/DX2                !
 ! D72   D(11,12,13,36)       -154.6169         estimate D2E/DX2                !
 ! D73   D(11,12,13,37)        -30.7534         estimate D2E/DX2                !
 ! D74   D(17,12,13,35)        -87.6087         estimate D2E/DX2                !
 ! D75   D(17,12,13,36)         30.152          estimate D2E/DX2                !
 ! D76   D(17,12,13,37)        154.0155         estimate D2E/DX2                !
 ! D77   D(11,12,17,32)       -110.0334         estimate D2E/DX2                !
 ! D78   D(11,12,17,33)          9.4117         estimate D2E/DX2                !
 ! D79   D(11,12,17,34)        133.7196         estimate D2E/DX2                !
 ! D80   D(13,12,17,32)         65.3421         estimate D2E/DX2                !
 ! D81   D(13,12,17,33)       -175.2129         estimate D2E/DX2                !
 ! D82   D(13,12,17,34)        -50.905          estimate D2E/DX2                !
 ! D83   D(7,14,15,16)          67.5442         estimate D2E/DX2                !
 ! D84   D(7,14,15,18)         -58.5457         estimate D2E/DX2                !
 ! D85   D(7,14,15,19)        -175.1662         estimate D2E/DX2                !
 ! D86   D(8,26,38,40)        -179.5371         estimate D2E/DX2                !
 ! D87   D(39,26,38,40)         -0.4679         estimate D2E/DX2                !
 ! D88   D(26,38,40,41)        163.5717         estimate D2E/DX2                !
 ! D89   D(26,38,40,42)        -75.1404         estimate D2E/DX2                !
 ! D90   D(26,38,40,43)         41.5131         estimate D2E/DX2                !
 ! D91   D(38,40,41,44)        179.5725         estimate D2E/DX2                !
 ! D92   D(38,40,41,45)        -60.9916         estimate D2E/DX2                !
 ! D93   D(38,40,41,46)         59.6666         estimate D2E/DX2                !
 ! D94   D(42,40,41,44)         61.2369         estimate D2E/DX2                !
 ! D95   D(42,40,41,45)       -179.3272         estimate D2E/DX2                !
 ! D96   D(42,40,41,46)        -58.669          estimate D2E/DX2                !
 ! D97   D(43,40,41,44)        -61.2159         estimate D2E/DX2                !
 ! D98   D(43,40,41,45)         58.2199         estimate D2E/DX2                !
 ! D99   D(43,40,41,46)        178.8782         estimate D2E/DX2                !
 --------------------------------------------------------------------------------
 Trust Radius=3.00D-01 FncErr=1.00D-07 GrdErr=1.00D-06 EigMax=2.50D+02 EigMin=1.00D-04
 Number of steps in this run=    237 maximum allowed number of steps=    276.
 GradGradGradGradGradGradGradGradGradGradGradGradGradGradGradGradGradGrad

 Leave Link  103 at Sat Jun 19 21:34:53 2021, MaxMem=  2147483648 cpu:               0.4 elap:               0.1
 (Enter /SFS/product/gaussian/g16.a03/x86_64/avx/g16/l202.exe)
                          Input orientation:                          
 ---------------------------------------------------------------------
 Center     Atomic      Atomic             Coordinates (Angstroms)
 Number     Number       Type             X           Y           Z
 ---------------------------------------------------------------------
      1          6           0        3.203144   -0.363481    0.504628
      2          6           0        1.825056   -0.549457    0.728146
      3          6           0        1.363915   -0.636527    2.053706
      4          6           0        2.252921   -0.541938    3.123192
      5          6           0        3.615955   -0.363392    2.888436
      6          6           0        4.086478   -0.270916    1.575083
      7          6           0        0.822720   -0.631632   -0.390336
      8          6           0        1.026909    0.241221   -1.674193
      9          6           0        1.918675   -0.443467   -2.714842
     10          6           0        1.506366   -1.923768   -2.732466
     11          6           0        1.289170   -2.351823   -1.297733
     12          6           0        0.098735   -2.854752   -0.790933
     13          6           0       -1.176546   -2.877390   -1.566348
     14          8           0       -0.432016   -0.763265    0.005301
     15         26           0       -2.048366    0.126937    0.388932
     16         17           0       -2.824256    0.919209   -1.527024
     17          6           0        0.064894   -3.509920    0.546812
     18         17           0       -1.763161    1.637576    1.969044
     19         17           0       -3.319507   -1.528570    1.163676
     20          1           0        0.304096   -0.749915    2.239550
     21          1           0        1.873890   -0.599219    4.139299
     22          1           0        4.309143   -0.288360    3.721687
     23          1           0        5.144896   -0.119987    1.383545
     24          1           0        3.592312   -0.273356   -0.501568
     25          1           0        0.015752    0.358351   -2.077252
     26          6           0        1.539071    1.645687   -1.327144
     27          1           0        1.792884    0.028335   -3.694586
     28          1           0        2.972864   -0.327378   -2.451035
     29          1           0        0.595791   -2.051910   -3.324624
     30          1           0        2.278840   -2.545709   -3.199348
     31          1           0        2.188201   -2.616005   -0.748197
     32          1           0       -0.106950   -4.585423    0.388257
     33          1           0        0.997261   -3.391321    1.102692
     34          1           0       -0.780963   -3.138828    1.135109
     35          1           0       -1.186669   -3.817901   -2.140837
     36          1           0       -2.047206   -2.877575   -0.907518
     37          1           0       -1.269042   -2.057717   -2.279800
     38          8           0        0.564359    2.386346   -0.792838
     39          8           0        2.672958    2.026106   -1.531651
     40          6           0        0.902112    3.754180   -0.420896
     41          6           0       -0.393181    4.518027   -0.233370
     42          1           0        1.494183    3.710143    0.498784
     43          1           0        1.528763    4.176026   -1.210847
     44          1           0       -0.165437    5.550510    0.055006
     45          1           0       -0.971451    4.537555   -1.162333
     46          1           0       -1.006698    4.062263    0.548007
 ---------------------------------------------------------------------
                    Distance matrix (angstroms):
                    1          2          3          4          5
     1  C    0.000000
     2  C    1.408430   0.000000
     3  C    2.420116   1.406180   0.000000
     4  C    2.791352   2.432976   1.393944   0.000000
     5  C    2.419288   2.812258   2.417242   1.394579   0.000000
     6  C    1.390943   2.430826   2.788387   2.414959   1.398156
     7  C    2.557202   1.504138   2.503249   3.794522   4.315607
     8  C    3.138300   2.652064   3.844639   5.013117   5.280748
     9  C    3.467167   3.445891   4.804590   5.848424   5.855245
    10  C    3.973956   3.737129   4.958299   6.062634   6.203199
    11  C    3.296256   2.764034   3.765630   4.873303   5.185730
    12  C    4.185960   3.256097   3.822718   5.030905   5.667051
    13  C    5.458055   4.437746   4.957842   6.261579   7.009519
    14  O    3.691008   2.379620   2.727159   4.120572   4.985823
    15  Fe   5.275628   3.946641   3.872727   5.140490   6.210674
    16  Cl   6.488640   5.372046   5.725619   7.038266   7.913133
    17  C    4.444150   3.448970   3.494935   4.498234   5.290924
    18  Cl   5.550939   4.381580   3.867469   4.712882   5.812404
    19  Cl   6.658585   5.254986   4.849983   5.988748   7.241068
    20  H    3.400554   2.153566   1.081948   2.149883   3.396890
    21  H    3.877283   3.411865   2.147362   1.086011   2.157560
    22  H    3.402697   3.898737   3.402609   2.156513   1.086484
    23  H    2.145270   3.411060   3.874500   3.401167   2.159075
    24  H    1.082592   2.170627   3.409849   3.873627   3.391282
    25  H    4.164927   3.459473   4.457818   5.732370   6.175794
    26  C    3.187677   3.020705   4.082809   5.010067   5.110867
    27  H    4.446994   4.460430   5.802492   6.857036   6.842018
    28  H    2.964840   3.387326   4.793431   5.624621   5.378179
    29  H    4.930746   4.493707   5.614246   6.826451   7.111582
    30  H    4.397260   4.429012   5.663624   6.632517   6.603900
    31  H    2.770116   2.565557   3.528235   4.392448   4.509750
    32  H    5.366103   4.487448   4.531108   5.422050   6.159258
    33  H    3.793602   2.983575   2.937304   3.711884   4.383468
    34  H    4.896240   3.696187   3.421379   4.461027   5.487266
    35  H    6.180773   5.290017   5.849856   7.090325   7.764819
    36  H    5.990075   4.805200   5.042508   6.339788   7.266483
    37  H    5.533889   4.571218   5.266072   6.625265   7.310581
    38  O    4.025935   3.538600   4.228459   5.173140   5.515893
    39  O    3.183968   3.529751   4.653815   5.332808   5.112349
    40  C    4.806919   4.549001   5.061149   5.730783   5.938941
    41  C    6.107971   5.614667   5.906567   6.623565   7.046070
    42  H    4.417578   4.278583   4.618256   5.054047   5.177455
    43  H    5.133569   5.116412   5.817658   6.447285   6.462724
    44  H    6.820908   6.451727   6.679307   7.237413   7.569775
    45  H    6.650275   6.105084   6.524413   7.386714   7.840428
    46  H    6.108344   5.414725   5.474081   6.201239   6.814173
                    6          7          8          9         10
     6  C    0.000000
     7  C    3.826892   0.000000
     8  C    4.492331   1.565840   0.000000
     9  C    4.809636   2.576791   1.531990   0.000000
    10  C    5.286197   2.760898   2.457030   1.536750   0.000000
    11  C    4.517541   2.000000   2.633321   2.458922   1.512899
    12  C    5.308139   2.372108   3.350627   3.581606   2.572490
    13  C    6.660459   3.228544   3.820023   4.101635   3.076889
    14  O    4.808681   1.322202   2.440933   3.609321   3.549572
    15  Fe   6.261114   3.070150   3.704978   5.069141   5.156029
    16  Cl   7.667966   4.122815   3.913157   5.075745   5.318825
    17  C    5.265133   3.120431   4.464235   4.845413   3.917574
    18  Cl   6.165697   4.171661   4.796611   6.310740   6.743677
    19  Cl   7.523268   4.514144   5.484250   6.607488   6.214914
    20  H    3.870061   2.683144   4.101487   5.219844   5.248269
    21  H    3.402724   4.650119   5.934678   6.856057   7.007900
    22  H    2.158192   5.402010   6.337905   6.867845   7.224002
    23  H    1.086147   4.699962   5.141794   5.225889   5.782220
    24  H    2.134639   2.794884   2.867252   2.780032   3.471590
    25  H    5.505119   2.115880   1.094813   2.161145   2.803445
    26  C    4.311099   2.564556   1.534691   2.536606   3.836275
    27  H    5.754958   3.506400   2.171181   1.094677   2.195102
    28  H    4.177673   2.993688   2.171066   1.092879   2.185928
    29  H    6.274071   3.267833   2.858012   2.170010   1.093718
    30  H    5.589046   3.697908   3.414734   2.187210   1.096132
    31  H    3.807956   2.435229   3.220219   2.942832   2.209392
    32  H    6.132566   4.135572   5.369900   5.557714   4.407506
    33  H    4.416259   3.142528   4.572453   4.910439   4.137794
    34  H    5.666611   3.344370   4.752400   5.419884   4.654716
    35  H    7.361742   4.153818   4.646951   4.621628   3.345176
    36  H    7.111966   3.680790   4.445769   4.991945   4.107074
    37  H    6.836254   3.158997   3.305037   3.599528   2.815269
    38  O    5.007336   3.055642   2.364805   3.679146   4.819400
    39  O    4.114140   3.433592   2.432203   2.840365   4.290035
    40  C    5.506861   4.386637   3.731918   4.890381   6.160160
    41  C    6.802339   5.293585   4.731141   6.009892   7.165925
    42  H    4.871062   4.482455   4.119902   5.268782   6.494773
    43  H    5.837688   4.928013   3.993650   4.873782   6.286757
    44  H    7.367389   6.276437   5.709673   6.924113   8.150445
    45  H    7.496498   5.525896   4.765913   5.964369   7.096026
    46  H    6.765484   5.124442   4.865603   6.285348   7.273896
                   11         12         13         14         15
    11  C    0.000000
    12  C    1.388135   0.000000
    13  C    2.535376   1.492690   0.000000
    14  O    2.680279   2.300001   2.737504   0.000000
    15  Fe   4.486450   3.859092   3.689061   1.884733   0.000000
    16  Cl   5.260466   4.829957   4.138920   3.301750   2.213727
    17  C    2.498477   1.489950   2.531148   2.843285   4.209219
    18  Cl   5.991983   5.591524   5.764376   3.375244   2.204569
    19  Cl   5.289252   4.154953   3.723524   3.203924   2.226372
    20  H    4.006102   3.695448   4.604705   2.352426   3.118932
    21  H    5.742372   5.704892   6.859273   4.736460   5.475093
    22  H    6.210692   6.684134   8.047309   6.042818   7.190108
    23  H    5.199708   6.137673   7.501051   5.780598   7.265896
    24  H    3.202869   4.353437   5.536854   4.085602   5.724550
    25  H    3.094234   3.462013   3.486060   2.407394   3.224314
    26  C    4.005422   4.755633   5.281100   3.385800   4.256903
    27  H    3.415228   4.428717   4.667992   4.389302   5.607142
    28  H    2.874597   4.171831   4.950034   4.220994   5.786585
    29  H    2.163102   2.703925   2.629473   3.715561   5.052666
    30  H    2.152482   3.263254   3.836195   4.560222   6.224428
    31  H    1.086296   2.103496   3.472638   3.296353   5.173518
    32  H    3.127408   2.104286   2.807471   3.855025   5.096610
    33  H    2.632073   2.163578   3.480422   3.186499   4.707806
    34  H    3.289916   2.136400   2.742755   2.653588   3.581663
    35  H    2.998331   2.098133   1.102135   3.808702   4.764871
    36  H    3.400013   2.149227   1.091836   2.812896   3.272289
    37  H    2.755976   2.173201   1.090611   2.756430   3.535844
    38  O    4.819805   5.261741   5.597855   3.398505   3.650732
    39  O    4.597374   5.567590   6.234112   4.447884   5.439337
    40  C    6.180771   6.667858   7.043479   4.729572   4.745317
    41  C    7.152483   7.410177   7.555308   5.286825   4.733769
    42  H    6.325894   6.834361   7.402240   4.895421   5.039949
    43  H    6.532822   7.187012   7.562788   5.451630   5.634737
    44  H    8.148169   8.451854   8.641795   6.319596   5.750832
    45  H    7.252053   7.478599   7.428775   5.454636   4.797887
    46  H    7.058206   7.131608   7.256592   4.889837   4.073962
                   16         17         18         19         20
    16  Cl   0.000000
    17  C    5.680244   0.000000
    18  Cl   3.723502   5.644577   0.000000
    19  Cl   3.671071   3.969942   3.618744   0.000000
    20  H    5.172972   3.246569   3.169675   3.859314   0.000000
    21  H    7.515678   4.964938   4.789718   6.057177   2.469010
    22  H    8.938264   6.202574   6.607107   8.141120   4.295365
    23  H    8.547440   6.164267   7.152139   8.583622   4.956097
    24  H    6.606521   4.900727   6.199732   7.219546   4.307343
    25  H    2.946686   4.674575   4.601463   5.018769   4.466114
    26  C    4.427905   5.680246   4.665797   6.315526   4.470501
    27  H    5.177834   5.787457   6.878359   7.222410   6.167344
    28  H    6.001198   5.250900   6.769644   7.355469   5.413174
    29  H    4.873975   4.170811   6.870217   5.978987   5.721915
    30  H    6.390924   4.457014   7.781383   7.170219   6.058556
    31  H    6.182963   2.642833   6.410118   5.930651   3.994844
    32  H    6.430632   1.100626   6.630810   4.501794   4.278711
    33  H    6.332461   1.091960   5.801750   4.701919   2.958031
    34  H    5.265896   1.095115   4.947140   3.006319   2.846761
    35  H    5.049621   2.980725   6.854611   4.550807   5.551820
    36  H    3.924686   2.641193   5.361145   2.780002   4.467616
    37  H    3.442013   3.446450   5.652612   4.042515   4.960810
    38  O    3.764868   6.067131   3.688631   5.851404   4.370269
    39  O    5.607549   6.462940   5.664360   7.470619   5.247834
    40  C    4.811070   7.375943   4.158787   6.945530   5.265213
    41  C    4.531573   8.078765   3.876141   6.861229   5.861121
    42  H    5.526493   7.360332   4.131282   7.145475   4.933426
    43  H    5.445695   8.019105   5.233756   7.854075   6.137584
    44  H    5.569658   9.076691   4.639754   7.828836   6.684912
    45  H    4.081460   8.291987   4.340761   6.908079   6.415385
    46  H    4.181873   7.647631   2.910445   6.081574   5.266551
                   21         22         23         24         25
    21  H    0.000000
    22  H    2.490279   0.000000
    23  H    4.303873   2.488723   0.000000
    24  H    4.959517   4.283685   2.446976   0.000000
    25  H    6.558592   7.244248   6.205968   3.958992   0.000000
    26  C    5.918928   6.074910   4.844318   2.929181   2.130821
    27  H    7.859398   7.837918   6.086493   3.677543   2.425464
    28  H    6.686864   6.315826   4.411886   2.046230   3.058504
    29  H    7.710642   8.157793   6.825946   4.484645   2.775201
    30  H    7.603193   7.557677   5.924636   3.763883   3.848926
    31  H    5.296587   5.467741   4.417745   2.742327   3.915701
    32  H    5.820985   7.005597   6.965099   5.750674   5.525820
    33  H    4.217261   5.239853   5.289932   4.362298   5.013526
    34  H    4.745842   6.381593   6.655143   5.478611   4.815006
    35  H    7.692012   8.776719   8.135389   6.171682   4.346371
    36  H    6.785003   8.278692   8.036143   6.225023   4.011894
    37  H    7.294523   8.382399   7.636327   5.475291   2.743922
    38  O    5.912228   6.446580   5.656825   4.040712   2.462408
    39  O    6.300041   5.969206   4.383442   2.682128   3.184310
    40  C    6.379014   6.716471   6.022159   4.844041   3.880825
    41  C    7.102538   7.801005   7.402424   6.238063   4.568373
    42  H    5.654036   5.856546   5.364737   4.612062   4.478418
    43  H    7.179564   7.210489   6.185711   4.955634   4.196963
    44  H    7.658947   8.219417   7.881573   6.953263   5.615859
    45  H    7.911366   8.661858   8.098388   6.664038   4.390603
    46  H    6.551685   7.566923   7.485416   6.407035   4.653639
                   26         27         28         29         30
    26  C    0.000000
    27  H    2.878373   0.000000
    28  H    2.685494   1.750801   0.000000
    29  H    4.307195   2.428440   3.063926   0.000000
    30  H    4.649753   2.665918   2.441851   1.758461   0.000000
    31  H    4.349548   3.978695   2.958575   3.080901   2.453833
    32  H    6.669237   6.447150   5.973088   4.549507   4.766900
    33  H    5.618640   5.944825   5.091142   4.642879   4.567828
    34  H    5.859764   6.323098   5.903888   4.792292   5.338699
    35  H    6.159752   5.107387   5.438905   2.774390   3.840400
    36  H    5.787691   5.564023   5.838412   3.675535   4.906862
    37  H    4.744286   3.965933   4.584448   2.137590   3.697455
    38  O    1.335710   3.935687   3.989337   5.109701   5.749426
    39  O    1.213360   3.073094   2.544425   4.915241   4.882421
    40  C    2.381752   5.039091   5.006855   6.498935   7.021665
    41  C    3.630465   6.075873   6.302876   7.327891   8.113759
    42  H    2.756448   5.588317   5.214356   6.973293   7.309415
    43  H    2.533031   4.841700   4.889186   6.642716   7.049714
    44  H    4.479211   6.956211   7.118900   8.354529   9.061682
    45  H    3.833117   5.864036   6.394212   7.110049   8.055213
    46  H    3.979569   6.489209   6.640792   7.412716   8.276637
                   31         32         33         34         35
    31  H    0.000000
    32  H    3.230767   0.000000
    33  H    2.333504   1.776395   0.000000
    34  H    3.554732   1.762021   1.796353   0.000000
    35  H    3.843663   2.855031   3.933446   3.370098   0.000000
    36  H    4.246466   2.891431   3.684245   2.417426   1.773644
    37  H    3.822306   3.854644   4.284376   3.615055   1.767581
    38  O    5.259503   7.102901   6.096054   6.004533   6.586037
    39  O    4.732651   7.424705   6.252699   6.761488   7.029953
    40  C    6.506951   8.439308   7.306747   7.264121   8.040996
    41  C    7.604143   9.129137   8.141018   7.787846   8.588117
    42  H    6.485119   8.449394   7.144398   7.244971   8.415819
    43  H    6.839634   9.055147   7.930933   8.021560   8.493605
    44  H    8.536786  10.141579   9.077767   8.777818   9.676351
    45  H    7.831241   9.294107   8.477809   8.015072   8.415309
    46  H    7.515769   8.695835   7.738181   7.228510   8.328220
                   36         37         38         39         40
    36  H    0.000000
    37  H    1.777882   0.000000
    38  O    5.877269   5.032108   0.000000
    39  O    6.834879   5.725094   2.263141   0.000000
    40  C    7.274301   6.476695   1.457185   2.712178   0.000000
    41  C    7.608233   6.942292   2.402905   4.158896   1.515392
    42  H    7.610332   6.973102   2.070096   2.889318   1.094668
    43  H    7.914092   6.915918   2.075515   2.456472   1.093009
    44  H    8.689081   8.034574   3.356095   4.795351   2.143116
    45  H    7.497088   6.695887   2.668883   4.441339   2.161861
    46  H    7.166768   6.746812   2.659846   4.691565   2.162694
                   41         42         43         44         45
    41  C    0.000000
    42  H    2.179649   0.000000
    43  H    2.183185   1.772309   0.000000
    44  H    1.095924   2.517584   2.522281   0.000000
    45  H    1.094418   3.085980   2.526683   1.776978   0.000000
    46  H    1.093011   2.526028   3.087891   1.779227   1.775502
                   46
    46  H    0.000000
 Stoichiometry    C17H22Cl3FeO3(6)
 Framework group  C1[X(C17H22Cl3FeO3)]
 Deg. of freedom   132
 Full point group                 C1      NOp   1
 Largest Abelian subgroup         C1      NOp   1
 Largest concise Abelian subgroup C1      NOp   1
                         Standard orientation:                         
 ---------------------------------------------------------------------
 Center     Atomic      Atomic             Coordinates (Angstroms)
 Number     Number       Type             X           Y           Z
 ---------------------------------------------------------------------
      1          6           0        3.203144   -0.363480    0.504628
      2          6           0        1.825056   -0.549456    0.728146
      3          6           0        1.363915   -0.636527    2.053706
      4          6           0        2.252921   -0.541937    3.123192
      5          6           0        3.615955   -0.363391    2.888436
      6          6           0        4.086478   -0.270915    1.575083
      7          6           0        0.822720   -0.631632   -0.390336
      8          6           0        1.026909    0.241221   -1.674193
      9          6           0        1.918675   -0.443466   -2.714842
     10          6           0        1.506367   -1.923768   -2.732466
     11          6           0        1.289171   -2.351823   -1.297733
     12          6           0        0.098736   -2.854752   -0.790933
     13          6           0       -1.176545   -2.877390   -1.566348
     14          8           0       -0.432016   -0.763265    0.005301
     15         26           0       -2.048366    0.126936    0.388932
     16         17           0       -2.824256    0.919208   -1.527024
     17          6           0        0.064895   -3.509920    0.546812
     18         17           0       -1.763162    1.637575    1.969044
     19         17           0       -3.319507   -1.528571    1.163676
     20          1           0        0.304096   -0.749915    2.239550
     21          1           0        1.873890   -0.599218    4.139299
     22          1           0        4.309143   -0.288359    3.721687
     23          1           0        5.144896   -0.119985    1.383545
     24          1           0        3.592312   -0.273355   -0.501568
     25          1           0        0.015752    0.358351   -2.077252
     26          6           0        1.539070    1.645688   -1.327144
     27          1           0        1.792884    0.028336   -3.694586
     28          1           0        2.972864   -0.327377   -2.451035
     29          1           0        0.595792   -2.051910   -3.324624
     30          1           0        2.278841   -2.545708   -3.199348
     31          1           0        2.188202   -2.616004   -0.748197
     32          1           0       -0.106948   -4.585423    0.388257
     33          1           0        0.997262   -3.391321    1.102692
     34          1           0       -0.780962   -3.138828    1.135109
     35          1           0       -1.186668   -3.817901   -2.140837
     36          1           0       -2.047205   -2.877576   -0.907518
     37          1           0       -1.269041   -2.057717   -2.279800
     38          8           0        0.564358    2.386346   -0.792838
     39          8           0        2.672957    2.026107   -1.531651
     40          6           0        0.902111    3.754180   -0.420896
     41          6           0       -0.393183    4.518027   -0.233370
     42          1           0        1.494182    3.710143    0.498784
     43          1           0        1.528762    4.176027   -1.210847
     44          1           0       -0.165439    5.550510    0.055006
     45          1           0       -0.971453    4.537555   -1.162333
     46          1           0       -1.006699    4.062263    0.548007
 ---------------------------------------------------------------------
 Rotational constants (GHZ):           0.2010717           0.1670149           0.1449288
 Leave Link  202 at Sat Jun 19 21:34:53 2021, MaxMem=  2147483648 cpu:               0.3 elap:               0.1
 (Enter /SFS/product/gaussian/g16.a03/x86_64/avx/g16/l301.exe)
 Standard basis: Jul-CC-pVDZ (5D, 7F)
 Ernie: Thresh=  0.10000D-02 Tol=  0.10000D-05 Strict=F.
 Ernie:  134 primitive shells out of 958 were deleted.
 There are   766 symmetry adapted cartesian basis functions of A   symmetry.
 There are   710 symmetry adapted basis functions of A   symmetry.
   710 basis functions,  1571 primitive gaussians,   766 cartesian basis functions
   115 alpha electrons      110 beta electrons
       nuclear repulsion energy      3369.9318464888 Hartrees.
 IExCor=  402 DFT=T Ex+Corr=B3LYP ExCW=0 ScaHFX=  0.200000
 ScaDFX=  0.800000  0.720000  1.000000  0.810000 ScalE2=  1.000000  1.000000
 IRadAn=      5 IRanWt=     -1 IRanGd=            0 ICorTp=0 IEmpDi=  4
 NAtoms=   46 NActive=   46 NUniq=   46 SFac= 1.00D+00 NAtFMM=   60 NAOKFM=F Big=F
 Integral buffers will be    131072 words long.
 Raffenetti 2 integral format.
 Two-electron integral symmetry is turned on.
 Leave Link  301 at Sat Jun 19 21:34:53 2021, MaxMem=  2147483648 cpu:               1.3 elap:               0.1
 (Enter /SFS/product/gaussian/g16.a03/x86_64/avx/g16/l302.exe)
 NPDir=0 NMtPBC=     1 NCelOv=     1 NCel=       1 NClECP=     1 NCelD=      1
         NCelK=      1 NCelE2=     1 NClLst=     1 CellRange=     0.0.
 One-electron integrals computed using PRISM.
 One-electron integral symmetry used in STVInt
 NBasis=   710 RedAO= T EigKep=  1.78D-06  NBF=   710
 NBsUse=   710 1.00D-06 EigRej= -1.00D+00 NBFU=   710
 Precomputing XC quadrature grid using
 IXCGrd= 4 IRadAn=           5 IRanWt=          -1 IRanGd=           0 AccXCQ= 0.00D+00.
 Generated NRdTot=       0 NPtTot=           0 NUsed=           0 NTot=          32
 NSgBfM=   764   764   764   764   764 MxSgAt=    46 MxSgA2=    46.
 Leave Link  302 at Sat Jun 19 21:34:55 2021, MaxMem=  2147483648 cpu:              19.9 elap:               1.3
 (Enter /SFS/product/gaussian/g16.a03/x86_64/avx/g16/l303.exe)
 DipDrv:  MaxL=1.
 Leave Link  303 at Sat Jun 19 21:34:55 2021, MaxMem=  2147483648 cpu:               2.7 elap:               0.2
 (Enter /SFS/product/gaussian/g16.a03/x86_64/avx/g16/l401.exe)
 ExpMin= 1.40D-02 ExpMax= 4.32D+06 ExpMxC= 4.91D+03 IAcc=3 IRadAn=         5 AccDes= 0.00D+00
 Harris functional with IExCor=  402 and IRadAn=       5 diagonalized for initial guess.
 HarFok:  IExCor=  402 AccDes= 0.00D+00 IRadAn=         5 IDoV= 1 UseB2=F ITyADJ=14
 ICtDFT=  3500011 ScaDFX=  1.000000  1.000000  1.000000  1.000000
 FoFCou: FMM=F IPFlag=           0 FMFlag=      100000 FMFlg1=           0
         NFxFlg=           0 DoJE=T BraDBF=F KetDBF=T FulRan=T
         wScrn=  0.000000 ICntrl=       500 IOpCl=  0 I1Cent=   200000004 NGrid=           0
         NMat0=    1 NMatS0=      1 NMatT0=    0 NMatD0=    1 NMtDS0=    0 NMtDT0=    0
 Petite list used in FoFCou.
 Harris En= -3531.08722109383    
 JPrj=0 DoOrth=F DoCkMO=F.
 Initial guess <Sx>= 0.0000 <Sy>= 0.0000 <Sz>= 2.5000 <S**2>= 8.7500 S= 2.5000
 Leave Link  401 at Sat Jun 19 21:35:03 2021, MaxMem=  2147483648 cpu:             125.7 elap:               7.9
 (Enter /SFS/product/gaussian/g16.a03/x86_64/avx/g16/l502.exe)
 Integral symmetry usage will be decided dynamically.
 UHF open shell SCF:
 Using DIIS extrapolation, IDIIS=  1040.
 NGot=  2147483648 LenX=  2146290678 LenY=  2145703156
 Requested convergence on RMS density matrix=1.00D-08 within 128 cycles.
 Requested convergence on MAX density matrix=1.00D-06.
 Requested convergence on             energy=1.00D-06.
 No special actions if energy rises.
 Fock matrices will be formed incrementally for  20 cycles.

 Cycle   1  Pass 1  IDiag  1:
 FoFJK:  IHMeth= 1 ICntrl=       0 DoSepK=F KAlg= 0 I1Cent=           0 FoldK=F
 IRaf= 920000000 NMat=       1 IRICut=       1 DoRegI=T DoRafI=F ISym2E= 0 IDoP0=0 IntGTp=1.
 FoFCou: FMM=F IPFlag=           0 FMFlag=      100000 FMFlg1=           0
         NFxFlg=           0 DoJE=F BraDBF=F KetDBF=F FulRan=T
         wScrn=  0.000000 ICntrl=         0 IOpCl=  1 I1Cent=           0 NGrid=           0
         NMat0=    1 NMatS0=      1 NMatT0=    0 NMatD0=    1 NMtDS0=    0 NMtDT0=    0
 Symmetry not used in FoFCou.
 E= -3530.30791212616    
 DIIS: error= 1.79D-02 at cycle   1 NSaved=   1.
 NSaved= 1 IEnMin= 1 EnMin= -3530.30791212616     IErMin= 1 ErrMin= 1.79D-02
 ErrMax= 1.79D-02  0.00D+00 EMaxC= 1.00D-01 BMatC= 4.64D+00 BMatP= 4.64D+00
 IDIUse=3 WtCom= 8.21D-01 WtEn= 1.79D-01
 Coeff-Com:  0.100D+01
 Coeff-En:   0.100D+01
 Coeff:      0.100D+01
 Gap=     0.107 Goal=   None    Shift=    0.000
 Gap=    -0.196 Goal=   None    Shift=    0.000
 GapD=   -0.196 DampG=0.250 DampE=0.250 DampFc=0.1250 IDamp=-1.
 Damping current iteration by 1.25D-01
 RMSDP=3.42D-02 MaxDP=8.39D+00              OVMax= 8.00D-01

 Cycle   2  Pass 1  IDiag  1:
 RMSU=  2.70D-03    CP:  9.55D-01
 E= -3530.62206654305     Delta-E=       -0.314154416894 Rises=F Damp=T
 DIIS: error= 8.88D-03 at cycle   2 NSaved=   2.
 NSaved= 2 IEnMin= 2 EnMin= -3530.62206654305     IErMin= 2 ErrMin= 8.88D-03
 ErrMax= 8.88D-03  0.00D+00 EMaxC= 1.00D-01 BMatC= 1.24D+00 BMatP= 4.64D+00
 IDIUse=3 WtCom= 9.11D-01 WtEn= 8.88D-02
 Coeff-Com: -0.397D+00 0.140D+01
 Coeff-En:   0.349D-01 0.965D+00
 Coeff:     -0.359D+00 0.136D+01
 Gap=    -0.162 Goal=   None    Shift=    0.000
 Gap=    -0.070 Goal=   None    Shift=    0.000
 RMSDP=2.70D-02 MaxDP=8.54D+00 DE=-3.14D-01 OVMax= 9.31D-01

 Cycle   3  Pass 1  IDiag  1:
 RMSU=  8.34D-03    CP:  6.11D-01  2.14D+00
 E= -3529.98764966960     Delta-E=        0.634416873449 Rises=F Damp=F
 DIIS: error= 3.16D-02 at cycle   3 NSaved=   3.
 NSaved= 3 IEnMin= 2 EnMin= -3530.62206654305     IErMin= 2 ErrMin= 8.88D-03
 ErrMax= 3.16D-02  0.00D+00 EMaxC= 1.00D-01 BMatC= 6.09D+00 BMatP= 1.24D+00
 IDIUse=2 WtCom= 0.00D+00 WtEn= 1.00D+00
 Coeff-En:   0.000D+00 0.731D+00 0.269D+00
 Coeff:      0.000D+00 0.731D+00 0.269D+00
 Gap=    -0.170 Goal=   None    Shift=    0.000
 Gap=     0.207 Goal=   None    Shift=    0.000
 RMSDP=8.00D-03 MaxDP=1.24D+00 DE= 6.34D-01 OVMax= 8.03D-01

 Cycle   4  Pass 1  IDiag  1:
 RMSU=  5.58D-03    CP:  6.31D-01  3.00D+00  4.89D-01
 E= -3521.55977482236     Delta-E=        8.427874847241 Rises=F Damp=F
 DIIS: error= 9.73D-02 at cycle   4 NSaved=   4.
 NSaved= 4 IEnMin= 2 EnMin= -3530.62206654305     IErMin= 2 ErrMin= 8.88D-03
 ErrMax= 9.73D-02  0.00D+00 EMaxC= 1.00D-01 BMatC= 4.78D+01 BMatP= 1.24D+00
 IDIUse=2 WtCom= 0.00D+00 WtEn= 1.00D+00
 EnCoef did   100 forward-backward iterations
 Coeff-En:   0.369D+00 0.955D-02 0.431D+00 0.191D+00
 Coeff:      0.369D+00 0.955D-02 0.431D+00 0.191D+00
 Gap=     0.122 Goal=   None    Shift=    0.000
 Gap=     0.041 Goal=   None    Shift=    0.000
 RMSDP=5.69D-03 MaxDP=7.00D-01 DE= 8.43D+00 OVMax= 9.29D-01

 Cycle   5  Pass 1  IDiag  1:
 RMSU=  3.43D-03    CP:  6.39D-01  2.16D+00  6.39D-01  5.44D-01
 E= -3530.70043255950     Delta-E=       -9.140657737137 Rises=F Damp=F
 DIIS: error= 4.60D-02 at cycle   5 NSaved=   5.
 NSaved= 5 IEnMin= 5 EnMin= -3530.70043255950     IErMin= 2 ErrMin= 8.88D-03
 ErrMax= 4.60D-02  0.00D+00 EMaxC= 1.00D-01 BMatC= 4.39D+00 BMatP= 1.24D+00
 IDIUse=2 WtCom= 0.00D+00 WtEn= 1.00D+00
 Coeff-En:   0.000D+00 0.000D+00 0.385D+00 0.000D+00 0.615D+00
 Coeff:      0.000D+00 0.000D+00 0.385D+00 0.000D+00 0.615D+00
 Gap=     0.116 Goal=   None    Shift=    0.000
 Gap=     0.124 Goal=   None    Shift=    0.000
 RMSDP=4.56D-03 MaxDP=8.75D-01 DE=-9.14D+00 OVMax= 3.65D-01

 Cycle   6  Pass 1  IDiag  1:
 RMSU=  3.01D-03    CP:  6.70D-01  1.57D+00  6.48D-01  3.23D-01  5.38D-01
 E= -3531.17330035465     Delta-E=       -0.472867795157 Rises=F Damp=F
 DIIS: error= 1.29D-02 at cycle   6 NSaved=   6.
 NSaved= 6 IEnMin= 6 EnMin= -3531.17330035465     IErMin= 2 ErrMin= 8.88D-03
 ErrMax= 1.29D-02  0.00D+00 EMaxC= 1.00D-01 BMatC= 1.17D+00 BMatP= 1.24D+00
 IDIUse=3 WtCom= 8.71D-01 WtEn= 1.29D-01
 Coeff-Com: -0.347D+00 0.643D+00 0.227D+00-0.585D-03 0.183D+00 0.295D+00
 Coeff-En:   0.000D+00 0.000D+00 0.000D+00 0.000D+00 0.310D+00 0.690D+00
 Coeff:     -0.302D+00 0.560D+00 0.197D+00-0.510D-03 0.200D+00 0.346D+00
 Gap=     0.113 Goal=   None    Shift=    0.000
 Gap=     0.200 Goal=   None    Shift=    0.000
 RMSDP=3.65D-03 MaxDP=8.64D-01 DE=-4.73D-01 OVMax= 1.74D-01

 Cycle   7  Pass 1  IDiag  1:
 RMSU=  1.47D-03    CP:  6.45D-01  1.91D+00  6.79D-01  4.09D-01  7.35D-01
                    CP:  1.74D-01
 E= -3531.35909277796     Delta-E=       -0.185792423309 Rises=F Damp=F
 DIIS: error= 6.53D-03 at cycle   7 NSaved=   7.
 NSaved= 7 IEnMin= 7 EnMin= -3531.35909277796     IErMin= 7 ErrMin= 6.53D-03
 ErrMax= 6.53D-03  0.00D+00 EMaxC= 1.00D-01 BMatC= 2.09D-01 BMatP= 1.17D+00
 IDIUse=3 WtCom= 9.35D-01 WtEn= 6.53D-02
 Coeff-Com: -0.126D+00 0.181D+00 0.350D-01 0.782D-02-0.366D-01 0.279D+00
 Coeff-Com:  0.660D+00
 Coeff-En:   0.000D+00 0.000D+00 0.000D+00 0.000D+00 0.000D+00 0.220D+00
 Coeff-En:   0.780D+00
 Coeff:     -0.118D+00 0.169D+00 0.327D-01 0.731D-02-0.342D-01 0.275D+00
 Coeff:      0.668D+00
 Gap=     0.121 Goal=   None    Shift=    0.000
 Gap=     0.151 Goal=   None    Shift=    0.000
 RMSDP=1.31D-03 MaxDP=2.00D-01 DE=-1.86D-01 OVMax= 8.31D-02

 Cycle   8  Pass 1  IDiag  1:
 RMSU=  8.86D-04    CP:  6.49D-01  1.85D+00  6.84D-01  4.05D-01  7.00D-01
                    CP:  4.37D-01  7.02D-01
 E= -3531.39738653158     Delta-E=       -0.038293753621 Rises=F Damp=F
 DIIS: error= 2.53D-03 at cycle   8 NSaved=   8.
 NSaved= 8 IEnMin= 8 EnMin= -3531.39738653158     IErMin= 8 ErrMin= 2.53D-03
 ErrMax= 2.53D-03  0.00D+00 EMaxC= 1.00D-01 BMatC= 5.95D-02 BMatP= 2.09D-01
 IDIUse=3 WtCom= 9.75D-01 WtEn= 2.53D-02
 Coeff-Com: -0.690D-01 0.938D-01 0.219D-02 0.741D-02-0.460D-01 0.124D+00
 Coeff-Com:  0.459D+00 0.429D+00
 Coeff-En:   0.000D+00 0.000D+00 0.000D+00 0.000D+00 0.000D+00 0.000D+00
 Coeff-En:   0.191D+00 0.809D+00
 Coeff:     -0.672D-01 0.914D-01 0.214D-02 0.723D-02-0.449D-01 0.121D+00
 Coeff:      0.452D+00 0.439D+00
 Gap=     0.132 Goal=   None    Shift=    0.000
 Gap=     0.139 Goal=   None    Shift=    0.000
 RMSDP=5.02D-04 MaxDP=4.47D-02 DE=-3.83D-02 OVMax= 2.32D-02

 Cycle   9  Pass 1  IDiag  1:
 RMSU=  3.43D-04    CP:  6.50D-01  1.82D+00  6.75D-01  4.07D-01  6.75D-01
                    CP:  4.57D-01  8.36D-01  7.09D-01
 E= -3531.40557317912     Delta-E=       -0.008186647537 Rises=F Damp=F
 DIIS: error= 1.75D-03 at cycle   9 NSaved=   9.
 NSaved= 9 IEnMin= 9 EnMin= -3531.40557317912     IErMin= 9 ErrMin= 1.75D-03
 ErrMax= 1.75D-03  0.00D+00 EMaxC= 1.00D-01 BMatC= 1.81D-02 BMatP= 5.95D-02
 IDIUse=3 WtCom= 9.83D-01 WtEn= 1.75D-02
 Coeff-Com: -0.308D-01 0.468D-01-0.509D-02 0.177D-02 0.102D-01-0.496D-01
 Coeff-Com:  0.201D-01 0.178D+00 0.829D+00
 Coeff-En:   0.000D+00 0.000D+00 0.000D+00 0.000D+00 0.000D+00 0.000D+00
 Coeff-En:   0.000D+00 0.000D+00 0.100D+01
 Coeff:     -0.302D-01 0.460D-01-0.500D-02 0.174D-02 0.999D-02-0.487D-01
 Coeff:      0.198D-01 0.175D+00 0.832D+00
 Gap=     0.140 Goal=   None    Shift=    0.000
 Gap=     0.140 Goal=   None    Shift=    0.000
 RMSDP=3.20D-04 MaxDP=4.18D-02 DE=-8.19D-03 OVMax= 1.87D-02

 Cycle  10  Pass 1  IDiag  1:
 RMSU=  2.53D-04    CP:  6.51D-01  1.83D+00  6.64D-01  4.20D-01  6.96D-01
                    CP:  4.42D-01  8.91D-01  7.58D-01  1.11D+00
 E= -3531.40840955806     Delta-E=       -0.002836378942 Rises=F Damp=F
 DIIS: error= 5.43D-04 at cycle  10 NSaved=  10.
 NSaved=10 IEnMin=10 EnMin= -3531.40840955806     IErMin=10 ErrMin= 5.43D-04
 ErrMax= 5.43D-04  0.00D+00 EMaxC= 1.00D-01 BMatC= 3.25D-03 BMatP= 1.81D-02
 IDIUse=3 WtCom= 9.95D-01 WtEn= 5.43D-03
 Coeff-Com: -0.275D-02 0.502D-02-0.621D-02 0.101D-03 0.233D-01-0.610D-01
 Coeff-Com: -0.841D-01 0.156D-01 0.575D+00 0.535D+00
 Coeff-En:   0.000D+00 0.000D+00 0.000D+00 0.000D+00 0.000D+00 0.000D+00
 Coeff-En:   0.000D+00 0.000D+00 0.000D+00 0.100D+01
 Coeff:     -0.273D-02 0.499D-02-0.617D-02 0.101D-03 0.232D-01-0.607D-01
 Coeff:     -0.837D-01 0.155D-01 0.572D+00 0.538D+00
 Gap=     0.140 Goal=   None    Shift=    0.000
 Gap=     0.138 Goal=   None    Shift=    0.000
 RMSDP=1.67D-04 MaxDP=1.47D-02 DE=-2.84D-03 OVMax= 9.69D-03

 Cycle  11  Pass 1  IDiag  1:
 RMSU=  1.22D-04    CP:  6.51D-01  1.84D+00  6.63D-01  4.23D-01  6.95D-01
                    CP:  4.46D-01  8.54D-01  8.36D-01  1.20D+00  8.49D-01
 E= -3531.40903070819     Delta-E=       -0.000621150124 Rises=F Damp=F
 DIIS: error= 1.61D-04 at cycle  11 NSaved=  11.
 NSaved=11 IEnMin=11 EnMin= -3531.40903070819     IErMin=11 ErrMin= 1.61D-04
 ErrMax= 1.61D-04  0.00D+00 EMaxC= 1.00D-01 BMatC= 3.12D-04 BMatP= 3.25D-03
 IDIUse=3 WtCom= 9.98D-01 WtEn= 1.61D-03
 Coeff-Com:  0.184D-02-0.121D-02-0.234D-02-0.150D-03 0.724D-02-0.200D-01
 Coeff-Com: -0.242D-01-0.133D-01 0.113D+00 0.273D+00 0.665D+00
 Coeff-En:   0.000D+00 0.000D+00 0.000D+00 0.000D+00 0.000D+00 0.000D+00
 Coeff-En:   0.000D+00 0.000D+00 0.000D+00 0.000D+00 0.100D+01
 Coeff:      0.184D-02-0.120D-02-0.233D-02-0.150D-03 0.723D-02-0.200D-01
 Coeff:     -0.242D-01-0.133D-01 0.113D+00 0.273D+00 0.666D+00
 Gap=     0.140 Goal=   None    Shift=    0.000
 Gap=     0.137 Goal=   None    Shift=    0.000
 RMSDP=6.05D-05 MaxDP=9.26D-03 DE=-6.21D-04 OVMax= 3.19D-03

 Cycle  12  Pass 1  IDiag  1:
 RMSU=  4.48D-05    CP:  6.51D-01  1.84D+00  6.62D-01  4.23D-01  6.96D-01
                    CP:  4.44D-01  8.68D-01  8.25D-01  1.25D+00  9.00D-01
                    CP:  8.35D-01
 E= -3531.40909815997     Delta-E=       -0.000067451786 Rises=F Damp=F
 DIIS: error= 1.06D-04 at cycle  12 NSaved=  12.
 NSaved=12 IEnMin=12 EnMin= -3531.40909815997     IErMin=12 ErrMin= 1.06D-04
 ErrMax= 1.06D-04  0.00D+00 EMaxC= 1.00D-01 BMatC= 6.04D-05 BMatP= 3.12D-04
 IDIUse=3 WtCom= 9.99D-01 WtEn= 1.06D-03
 Coeff-Com:  0.150D-02-0.123D-02-0.546D-03-0.147D-04-0.126D-03-0.119D-02
 Coeff-Com:  0.590D-02-0.349D-02-0.194D-01 0.764D-01 0.389D+00 0.553D+00
 Coeff-En:   0.000D+00 0.000D+00 0.000D+00 0.000D+00 0.000D+00 0.000D+00
 Coeff-En:   0.000D+00 0.000D+00 0.000D+00 0.000D+00 0.117D+00 0.883D+00
 Coeff:      0.150D-02-0.123D-02-0.545D-03-0.147D-04-0.126D-03-0.119D-02
 Coeff:      0.589D-02-0.348D-02-0.193D-01 0.763D-01 0.389D+00 0.554D+00
 Gap=     0.140 Goal=   None    Shift=    0.000
 Gap=     0.137 Goal=   None    Shift=    0.000
 RMSDP=2.86D-05 MaxDP=3.87D-03 DE=-6.75D-05 OVMax= 2.47D-03

 Cycle  13  Pass 1  IDiag  1:
 RMSU=  2.14D-05    CP:  6.51D-01  1.84D+00  6.62D-01  4.23D-01  6.97D-01
                    CP:  4.41D-01  8.69D-01  8.21D-01  1.23D+00  9.10D-01
                    CP:  9.14D-01  7.87D-01
 E= -3531.40911533575     Delta-E=       -0.000017175781 Rises=F Damp=F
 DIIS: error= 2.95D-05 at cycle  13 NSaved=  13.
 NSaved=13 IEnMin=13 EnMin= -3531.40911533575     IErMin=13 ErrMin= 2.95D-05
 ErrMax= 2.95D-05  0.00D+00 EMaxC= 1.00D-01 BMatC= 5.74D-06 BMatP= 6.04D-05
 IDIUse=1 WtCom= 1.00D+00 WtEn= 0.00D+00
 Coeff-Com:  0.941D-03-0.971D-03-0.208D-03-0.604D-05-0.448D-03 0.524D-03
 Coeff-Com:  0.402D-02-0.399D-03-0.160D-01 0.163D-01 0.122D+00 0.281D+00
 Coeff-Com:  0.593D+00
 Coeff:      0.941D-03-0.971D-03-0.208D-03-0.604D-05-0.448D-03 0.524D-03
 Coeff:      0.402D-02-0.399D-03-0.160D-01 0.163D-01 0.122D+00 0.281D+00
 Coeff:      0.593D+00
 Gap=     0.140 Goal=   None    Shift=    0.000
 Gap=     0.137 Goal=   None    Shift=    0.000
 RMSDP=1.11D-05 MaxDP=1.78D-03 DE=-1.72D-05 OVMax= 1.09D-03

 Cycle  14  Pass 1  IDiag  1:
 RMSU=  9.89D-06    CP:  6.51D-01  1.84D+00  6.62D-01  4.23D-01  6.98D-01
                    CP:  4.42D-01  8.70D-01  8.23D-01  1.24D+00  9.14D-01
                    CP:  9.16D-01  8.50D-01  1.00D+00
 E= -3531.40911754463     Delta-E=       -0.000002208880 Rises=F Damp=F
 DIIS: error= 1.38D-05 at cycle  14 NSaved=  14.
 NSaved=14 IEnMin=14 EnMin= -3531.40911754463     IErMin=14 ErrMin= 1.38D-05
 ErrMax= 1.38D-05  0.00D+00 EMaxC= 1.00D-01 BMatC= 1.33D-06 BMatP= 5.74D-06
 IDIUse=1 WtCom= 1.00D+00 WtEn= 0.00D+00
 Coeff-Com: -0.176D-03 0.205D-03 0.159D-03-0.896D-05-0.155D-03 0.508D-03
 Coeff-Com: -0.628D-03 0.105D-02 0.698D-03-0.211D-01-0.931D-01-0.674D-01
 Coeff-Com:  0.304D+00 0.876D+00
 Coeff:     -0.176D-03 0.205D-03 0.159D-03-0.896D-05-0.155D-03 0.508D-03
 Coeff:     -0.628D-03 0.105D-02 0.698D-03-0.211D-01-0.931D-01-0.674D-01
 Coeff:      0.304D+00 0.876D+00
 Gap=     0.140 Goal=   None    Shift=    0.000
 Gap=     0.137 Goal=   None    Shift=    0.000
 RMSDP=9.99D-06 MaxDP=9.92D-04 DE=-2.21D-06 OVMax= 1.22D-03

 Cycle  15  Pass 1  IDiag  1:
 RMSU=  5.88D-06    CP:  6.51D-01  1.84D+00  6.62D-01  4.23D-01  6.98D-01
                    CP:  4.41D-01  8.70D-01  8.24D-01  1.24D+00  9.18D-01
                    CP:  9.22D-01  9.29D-01  1.26D+00  1.27D+00
 E= -3531.40911856722     Delta-E=       -0.000001022591 Rises=F Damp=F
 DIIS: error= 6.40D-06 at cycle  15 NSaved=  15.
 NSaved=15 IEnMin=15 EnMin= -3531.40911856722     IErMin=15 ErrMin= 6.40D-06
 ErrMax= 6.40D-06  0.00D+00 EMaxC= 1.00D-01 BMatC= 5.10D-07 BMatP= 1.33D-06
 IDIUse=1 WtCom= 1.00D+00 WtEn= 0.00D+00
 Coeff-Com: -0.206D-03 0.182D-03 0.124D-03-0.506D-05 0.116D-04 0.131D-03
 Coeff-Com: -0.136D-02 0.687D-03 0.435D-02-0.135D-01-0.708D-01-0.948D-01
 Coeff-Com:  0.294D-01 0.443D+00 0.703D+00
 Coeff:     -0.206D-03 0.182D-03 0.124D-03-0.506D-05 0.116D-04 0.131D-03
 Coeff:     -0.136D-02 0.687D-03 0.435D-02-0.135D-01-0.708D-01-0.948D-01
 Coeff:      0.294D-01 0.443D+00 0.703D+00
 Gap=     0.140 Goal=   None    Shift=    0.000
 Gap=     0.137 Goal=   None    Shift=    0.000
 RMSDP=4.71D-06 MaxDP=5.15D-04 DE=-1.02D-06 OVMax= 4.88D-04

 Cycle  16  Pass 1  IDiag  1:
 RMSU=  2.59D-06    CP:  6.51D-01  1.84D+00  6.62D-01  4.23D-01  6.98D-01
                    CP:  4.41D-01  8.70D-01  8.25D-01  1.24D+00  9.19D-01
                    CP:  9.27D-01  9.70D-01  1.36D+00  1.49D+00  1.13D+00
 E= -3531.40911882364     Delta-E=       -0.000000256412 Rises=F Damp=F
 DIIS: error= 3.10D-06 at cycle  16 NSaved=  16.
 NSaved=16 IEnMin=16 EnMin= -3531.40911882364     IErMin=16 ErrMin= 3.10D-06
 ErrMax= 3.10D-06  0.00D+00 EMaxC= 1.00D-01 BMatC= 1.56D-07 BMatP= 5.10D-07
 IDIUse=1 WtCom= 1.00D+00 WtEn= 0.00D+00
 Coeff-Com: -0.159D-03 0.204D-03 0.669D-04-0.115D-05 0.146D-04-0.111D-03
 Coeff-Com: -0.753D-03 0.135D-03 0.270D-02-0.149D-02-0.137D-01-0.379D-01
 Coeff-Com: -0.713D-01 0.128D-01 0.409D+00 0.700D+00
 Coeff:     -0.159D-03 0.204D-03 0.669D-04-0.115D-05 0.146D-04-0.111D-03
 Coeff:     -0.753D-03 0.135D-03 0.270D-02-0.149D-02-0.137D-01-0.379D-01
 Coeff:     -0.713D-01 0.128D-01 0.409D+00 0.700D+00
 Gap=     0.140 Goal=   None    Shift=    0.000
 Gap=     0.137 Goal=   None    Shift=    0.000
 RMSDP=2.61D-06 MaxDP=3.16D-04 DE=-2.56D-07 OVMax= 2.88D-04

 Cycle  17  Pass 1  IDiag  1:
 RMSU=  1.02D-06    CP:  6.51D-01  1.84D+00  6.62D-01  4.23D-01  6.98D-01
                    CP:  4.41D-01  8.70D-01  8.25D-01  1.24D+00  9.19D-01
                    CP:  9.31D-01  9.84D-01  1.42D+00  1.62D+00  1.31D+00
                    CP:  1.14D+00
 E= -3531.40911890416     Delta-E=       -0.000000080520 Rises=F Damp=F
 DIIS: error= 1.25D-06 at cycle  17 NSaved=  17.
 NSaved=17 IEnMin=17 EnMin= -3531.40911890416     IErMin=17 ErrMin= 1.25D-06
 ErrMax= 1.25D-06  0.00D+00 EMaxC= 1.00D-01 BMatC= 2.34D-08 BMatP= 1.56D-07
 IDIUse=1 WtCom= 1.00D+00 WtEn= 0.00D+00
 Coeff-Com: -0.211D-04 0.445D-04 0.614D-05-0.146D-06 0.108D-05-0.775D-04
 Coeff-Com: -0.861D-04-0.842D-04 0.135D-03 0.243D-02 0.976D-02 0.382D-02
 Coeff-Com: -0.446D-01-0.976D-01 0.386D-01 0.361D+00 0.726D+00
 Coeff:     -0.211D-04 0.445D-04 0.614D-05-0.146D-06 0.108D-05-0.775D-04
 Coeff:     -0.861D-04-0.842D-04 0.135D-03 0.243D-02 0.976D-02 0.382D-02
 Coeff:     -0.446D-01-0.976D-01 0.386D-01 0.361D+00 0.726D+00
 Gap=     0.140 Goal=   None    Shift=    0.000
 Gap=     0.137 Goal=   None    Shift=    0.000
 RMSDP=1.35D-06 MaxDP=1.25D-04 DE=-8.05D-08 OVMax= 1.44D-04

 Cycle  18  Pass 1  IDiag  1:
 RMSU=  5.82D-07    CP:  6.51D-01  1.84D+00  6.62D-01  4.23D-01  6.98D-01
                    CP:  4.41D-01  8.70D-01  8.25D-01  1.24D+00  9.20D-01
                    CP:  9.32D-01  9.95D-01  1.44D+00  1.67D+00  1.42D+00
                    CP:  1.31D+00  1.18D+00
 E= -3531.40911892082     Delta-E=       -0.000000016668 Rises=F Damp=F
 DIIS: error= 8.18D-07 at cycle  18 NSaved=  18.
 NSaved=18 IEnMin=18 EnMin= -3531.40911892082     IErMin=18 ErrMin= 8.18D-07
 ErrMax= 8.18D-07  0.00D+00 EMaxC= 1.00D-01 BMatC= 8.91D-09 BMatP= 2.34D-08
 IDIUse=1 WtCom= 1.00D+00 WtEn= 0.00D+00
 Coeff-Com:  0.200D-04-0.158D-04-0.115D-04-0.729D-07 0.726D-05-0.240D-04
 Coeff-Com:  0.772D-04-0.129D-03-0.591D-03 0.140D-02 0.749D-02 0.104D-01
 Coeff-Com: -0.553D-02-0.491D-01-0.798D-01 0.148D-01 0.400D+00 0.701D+00
 Coeff:      0.200D-04-0.158D-04-0.115D-04-0.729D-07 0.726D-05-0.240D-04
 Coeff:      0.772D-04-0.129D-03-0.591D-03 0.140D-02 0.749D-02 0.104D-01
 Coeff:     -0.553D-02-0.491D-01-0.798D-01 0.148D-01 0.400D+00 0.701D+00
 Gap=     0.140 Goal=   None    Shift=    0.000
 Gap=     0.137 Goal=   None    Shift=    0.000
 RMSDP=6.57D-07 MaxDP=5.70D-05 DE=-1.67D-08 OVMax= 7.59D-05

 Cycle  19  Pass 1  IDiag  1:
 RMSU=  3.08D-07    CP:  6.51D-01  1.84D+00  6.62D-01  4.23D-01  6.98D-01
                    CP:  4.41D-01  8.70D-01  8.25D-01  1.24D+00  9.21D-01
                    CP:  9.33D-01  9.97D-01  1.45D+00  1.70D+00  1.45D+00
                    CP:  1.41D+00  1.35D+00  1.11D+00
 E= -3531.40911892546     Delta-E=       -0.000000004635 Rises=F Damp=F
 DIIS: error= 3.65D-07 at cycle  19 NSaved=  19.
 NSaved=19 IEnMin=19 EnMin= -3531.40911892546     IErMin=19 ErrMin= 3.65D-07
 ErrMax= 3.65D-07  0.00D+00 EMaxC= 1.00D-01 BMatC= 1.17D-09 BMatP= 8.91D-09
 IDIUse=1 WtCom= 1.00D+00 WtEn= 0.00D+00
 Coeff-Com:  0.140D-04-0.174D-04-0.690D-05-0.884D-07 0.211D-05 0.117D-04
 Coeff-Com:  0.777D-04-0.431D-04-0.337D-03-0.685D-04 0.955D-03 0.373D-02
 Coeff-Com:  0.992D-02 0.255D-02-0.438D-01-0.926D-01-0.124D-01 0.272D+00
 Coeff-Com:  0.860D+00
 Coeff:      0.140D-04-0.174D-04-0.690D-05-0.884D-07 0.211D-05 0.117D-04
 Coeff:      0.777D-04-0.431D-04-0.337D-03-0.685D-04 0.955D-03 0.373D-02
 Coeff:      0.992D-02 0.255D-02-0.438D-01-0.926D-01-0.124D-01 0.272D+00
 Coeff:      0.860D+00
 Gap=     0.140 Goal=   None    Shift=    0.000
 Gap=     0.137 Goal=   None    Shift=    0.000
 RMSDP=3.51D-07 MaxDP=3.13D-05 DE=-4.63D-09 OVMax= 4.11D-05

 Cycle  20  Pass 1  IDiag  1:
 RMSU=  1.43D-07    CP:  6.51D-01  1.84D+00  6.62D-01  4.23D-01  6.98D-01
                    CP:  4.41D-01  8.70D-01  8.25D-01  1.24D+00  9.21D-01
                    CP:  9.33D-01  9.99D-01  1.46D+00  1.71D+00  1.47D+00
                    CP:  1.46D+00  1.48D+00  1.30D+00  1.15D+00
 E= -3531.40911892649     Delta-E=       -0.000000001035 Rises=F Damp=F
 DIIS: error= 1.71D-07 at cycle  20 NSaved=  20.
 NSaved=20 IEnMin=20 EnMin= -3531.40911892649     IErMin=20 ErrMin= 1.71D-07
 ErrMax= 1.71D-07  0.00D+00 EMaxC= 1.00D-01 BMatC= 2.96D-10 BMatP= 1.17D-09
 IDIUse=1 WtCom= 1.00D+00 WtEn= 0.00D+00
 Coeff-Com:  0.329D-05-0.597D-05-0.146D-05 0.553D-07-0.138D-05 0.111D-04
 Coeff-Com:  0.321D-04 0.133D-05-0.552D-04-0.231D-03-0.590D-03 0.123D-03
 Coeff-Com:  0.574D-02 0.815D-02-0.752D-02-0.488D-01-0.690D-01 0.112D-01
 Coeff-Com:  0.411D+00 0.690D+00
 Coeff:      0.329D-05-0.597D-05-0.146D-05 0.553D-07-0.138D-05 0.111D-04
 Coeff:      0.321D-04 0.133D-05-0.552D-04-0.231D-03-0.590D-03 0.123D-03
 Coeff:      0.574D-02 0.815D-02-0.752D-02-0.488D-01-0.690D-01 0.112D-01
 Coeff:      0.411D+00 0.690D+00
 Gap=     0.140 Goal=   None    Shift=    0.000
 Gap=     0.137 Goal=   None    Shift=    0.000
 RMSDP=1.20D-07 MaxDP=9.49D-06 DE=-1.04D-09 OVMax= 1.22D-05

 Cycle  21  Pass 1  IDiag  1:
 Restarting incremental Fock formation.
 E= -3531.40911892662     Delta-E=       -0.000000000131 Rises=F Damp=F
 DIIS: error= 1.15D-07 at cycle  21 NSaved=  20.
 NSaved=20 IEnMin=20 EnMin= -3531.40911892662     IErMin=20 ErrMin= 1.15D-07
 ErrMax= 1.15D-07  0.00D+00 EMaxC= 1.00D-01 BMatC= 7.54D-11 BMatP= 2.96D-10
 IDIUse=1 WtCom= 1.00D+00 WtEn= 0.00D+00
 Coeff-Com: -0.106D-05 0.208D-06 0.489D-06-0.137D-05 0.418D-05 0.412D-05
 Coeff-Com:  0.915D-05 0.373D-04-0.100D-03-0.461D-03-0.577D-03 0.140D-02
 Coeff-Com:  0.403D-02 0.373D-02-0.104D-01-0.356D-01-0.449D-01 0.563D-01
 Coeff-Com:  0.385D+00 0.641D+00
 Coeff:     -0.106D-05 0.208D-06 0.489D-06-0.137D-05 0.418D-05 0.412D-05
 Coeff:      0.915D-05 0.373D-04-0.100D-03-0.461D-03-0.577D-03 0.140D-02
 Coeff:      0.403D-02 0.373D-02-0.104D-01-0.356D-01-0.449D-01 0.563D-01
[...]
    12   Atom       -0.008051      0.021447     -0.013396
    13   Atom       -0.010471      0.013078     -0.002607
    14   Atom       -0.134593      0.086294      0.048299
    15   Atom        0.062038      0.049191     -0.111229
    16   Atom       -0.098505     -0.084801      0.183306
    17   Atom       -0.002390      0.011902     -0.009512
    18   Atom       -0.152497      0.070489      0.082008
    19   Atom       -0.045132      0.128734     -0.083603
    20   Atom        0.013688     -0.017569      0.003881
    21   Atom        0.002310     -0.003959      0.001649
    22   Atom        0.002598     -0.001897     -0.000702
    23   Atom        0.003725     -0.001868     -0.001858
    24   Atom        0.007593     -0.003876     -0.003717
    25   Atom        0.005036     -0.019518      0.014481
    26   Atom        0.009537     -0.004387     -0.005150
    27   Atom        0.001348     -0.004000      0.002652
    28   Atom        0.004832     -0.003706     -0.001126
    29   Atom       -0.001512     -0.003108      0.004620
    30   Atom        0.001163     -0.001809      0.000646
    31   Atom        0.007170     -0.001489     -0.005680
    32   Atom       -0.003043      0.008513     -0.005470
    33   Atom        0.001450      0.004328     -0.005778
    34   Atom       -0.007356      0.020157     -0.012801
    35   Atom       -0.005563      0.006706     -0.001143
    36   Atom       -0.018059      0.028173     -0.010113
    37   Atom       -0.012458      0.001751      0.010707
    38   Atom        0.005979      0.002030     -0.008009
    39   Atom        0.003949     -0.003379     -0.000570
    40   Atom        0.001055      0.004396     -0.005451
    41   Atom       -0.003935      0.009378     -0.005442
    42   Atom        0.002741      0.002497     -0.005238
    43   Atom        0.000853      0.002017     -0.002870
    44   Atom       -0.002419      0.005890     -0.003471
    45   Atom       -0.004951      0.008853     -0.003902
    46   Atom       -0.008260      0.017168     -0.008907
 --------------------------------------------------------
                        XY            XZ            YZ
 --------------------------------------------------------
     1   Atom       -0.001216      0.000526      0.000063
     2   Atom       -0.003937      0.011044      0.001107
     3   Atom       -0.005260      0.013738     -0.001591
     4   Atom       -0.001906      0.006642     -0.000863
     5   Atom       -0.000312      0.003216     -0.000267
     6   Atom       -0.000719      0.002127      0.000003
     7   Atom        0.000906     -0.026222     -0.006812
     8   Atom        0.004519     -0.021500     -0.009190
     9   Atom       -0.000345     -0.008151      0.001056
    10   Atom       -0.004188     -0.007069      0.004316
    11   Atom       -0.020348     -0.012742      0.030315
    12   Atom       -0.019375     -0.008875      0.018290
    13   Atom       -0.006713     -0.004345      0.017810
    14   Atom       -0.214141      0.098535      0.045858
    15   Atom       -0.088648     -0.054865     -0.008902
    16   Atom       -0.031658      0.148823     -0.144935
    17   Atom       -0.011959      0.000066     -0.001398
    18   Atom        0.051523      0.034772      0.199469
    19   Atom        0.232279     -0.072943     -0.143068
    20   Atom       -0.012584      0.028735     -0.008413
    21   Atom       -0.001263      0.006150     -0.001039
    22   Atom       -0.000336      0.002163     -0.000151
    23   Atom       -0.000215      0.000723     -0.000004
    24   Atom       -0.000595     -0.001739      0.000212
    25   Atom        0.002739     -0.027652     -0.006611
    26   Atom        0.008263     -0.008641     -0.003665
    27   Atom       -0.000025     -0.006047     -0.000386
    28   Atom       -0.000342     -0.004941      0.000174
    29   Atom       -0.003773     -0.006213      0.005088
    30   Atom       -0.002696     -0.004143      0.002240
    31   Atom       -0.007987     -0.000991      0.002430
    32   Atom       -0.005474     -0.000360     -0.000206
    33   Atom       -0.009610      0.001892     -0.002636
    34   Atom       -0.014126      0.002303     -0.008898
    35   Atom       -0.002490     -0.001589      0.008768
    36   Atom       -0.000122     -0.001223      0.021065
    37   Atom       -0.006105     -0.006116      0.020902
    38   Atom        0.017132     -0.009475     -0.008109
    39   Atom        0.004397     -0.003177     -0.000676
    40   Atom        0.008737     -0.002135     -0.002431
    41   Atom        0.006558     -0.001317     -0.002758
    42   Atom        0.007948     -0.000034      0.000176
    43   Atom        0.005158     -0.002022     -0.002218
    44   Atom        0.003530     -0.000258     -0.000672
    45   Atom        0.004059     -0.001216     -0.005009
    46   Atom        0.007877     -0.000253     -0.000532
 --------------------------------------------------------


 ---------------------------------------------------------------------------------
              Anisotropic Spin Dipole Couplings in Principal Axis System
 ---------------------------------------------------------------------------------

       Atom             a.u.   MegaHertz   Gauss  10(-4) cm-1        Axes

              Baa    -0.0085    -1.136    -0.405    -0.379  0.0573  0.9981 -0.0238
     1 C(13)  Bbb    -0.0046    -0.611    -0.218    -0.204 -0.0283  0.0254  0.9993
              Bcc     0.0130     1.747     0.623     0.583  0.9980 -0.0566  0.0297
 
              Baa    -0.0159    -2.138    -0.763    -0.713 -0.2668 -0.6115  0.7449
     2 C(13)  Bbb    -0.0115    -1.542    -0.550    -0.514 -0.1025  0.7865  0.6090
              Bcc     0.0274     3.680     1.313     1.227  0.9583 -0.0862  0.2725
 
              Baa    -0.0140    -1.880    -0.671    -0.627  0.2461  0.9556 -0.1621
     3 C(13)  Bbb    -0.0097    -1.297    -0.463    -0.433 -0.4219  0.2562  0.8697
              Bcc     0.0237     3.177     1.134     1.060  0.8726 -0.1456  0.4662
 
              Baa    -0.0056    -0.747    -0.267    -0.249 -0.5488 -0.1766  0.8171
     4 C(13)  Bbb    -0.0039    -0.525    -0.187    -0.175  0.0344  0.9718  0.2331
              Bcc     0.0095     1.272     0.454     0.424  0.8353 -0.1561  0.5273
 
              Baa    -0.0053    -0.716    -0.256    -0.239  0.0163  0.9990  0.0418
     5 C(13)  Bbb    -0.0017    -0.222    -0.079    -0.074 -0.4090 -0.0315  0.9120
              Bcc     0.0070     0.938     0.335     0.313  0.9124 -0.0320  0.4081
 
              Baa    -0.0037    -0.500    -0.178    -0.167 -0.2425 -0.0936  0.9656
     6 C(13)  Bbb    -0.0019    -0.252    -0.090    -0.084  0.0684  0.9912  0.1132
              Bcc     0.0056     0.752     0.268     0.251  0.9678 -0.0935  0.2339
 
              Baa    -0.0471    -6.322    -2.256    -2.109  0.0842  0.9083  0.4097
     7 C(13)  Bbb    -0.0303    -4.066    -1.451    -1.356  0.2317 -0.4177  0.8785
              Bcc     0.0774    10.388     3.707     3.465  0.9691  0.0210 -0.2456
 
              Baa    -0.0189    -2.536    -0.905    -0.846  0.3650  0.6946  0.6199
     8 C(13)  Bbb    -0.0114    -1.526    -0.544    -0.509 -0.5943  0.6864 -0.4192
              Bcc     0.0303     4.062     1.449     1.355  0.7167  0.2154 -0.6633
 
              Baa    -0.0068    -0.908    -0.324    -0.303  0.6402 -0.1566  0.7521
     9 C(13)  Bbb    -0.0031    -0.415    -0.148    -0.138  0.1578  0.9849  0.0708
              Bcc     0.0099     1.323     0.472     0.441  0.7518 -0.0733 -0.6553
 
              Baa    -0.0058    -0.776    -0.277    -0.259  0.7039 -0.0357  0.7094
    10 C(13)  Bbb    -0.0052    -0.703    -0.251    -0.234  0.3103  0.9138 -0.2619
              Bcc     0.0110     1.479     0.528     0.493 -0.6390  0.4045  0.6543
 
              Baa    -0.0301    -4.045    -1.443    -1.349  0.2064 -0.3960  0.8947
    11 C(13)  Bbb    -0.0222    -2.982    -1.064    -0.995  0.9176  0.3958 -0.0365
              Bcc     0.0524     7.027     2.507     2.344 -0.3397  0.8285  0.4451
 
              Baa    -0.0213    -2.858    -1.020    -0.953  0.1220 -0.3432  0.9313
    12 C(13)  Bbb    -0.0176    -2.368    -0.845    -0.790  0.9026  0.4287  0.0398
              Bcc     0.0389     5.226     1.865     1.743 -0.4129  0.8357  0.3621
 
              Baa    -0.0142    -1.909    -0.681    -0.637 -0.0132 -0.5486  0.8360
    13 C(13)  Bbb    -0.0122    -1.638    -0.584    -0.546  0.9772  0.1700  0.1270
              Bcc     0.0264     3.546     1.265     1.183 -0.2118  0.8186  0.5338
 
              Baa    -0.2987    21.616     7.713     7.210  0.8189  0.4909 -0.2974
    14 O(17)  Bbb     0.0809    -5.856    -2.090    -1.953  0.2094  0.2269  0.9511
              Bcc     0.2178   -15.760    -5.624    -5.257 -0.5344  0.8412 -0.0831
 
              Baa    -0.1344    -2.327    -0.831    -0.776  0.3510  0.2136  0.9117
    15 Fe(57) Bbb    -0.0147    -0.255    -0.091    -0.085  0.5643  0.7287 -0.3880
              Bcc     0.1492     2.582     0.921     0.861  0.7473 -0.6506 -0.1352
 
              Baa    -0.1800    -9.421    -3.362    -3.143  0.6990 -0.5181 -0.4930
    16 Cl(35) Bbb    -0.1224    -6.405    -2.285    -2.136  0.6237  0.7789  0.0657
              Bcc     0.3024    15.826     5.647     5.279  0.3500 -0.3534  0.8676
 
              Baa    -0.0100    -1.346    -0.480    -0.449  0.4987  0.3232  0.8043
    17 C(13)  Bbb    -0.0087    -1.169    -0.417    -0.390  0.7135  0.3738 -0.5926
              Bcc     0.0187     2.515     0.897     0.839 -0.4921  0.8694 -0.0442
 
              Baa    -0.1648    -8.625    -3.078    -2.877  0.9478 -0.2997  0.1086
    18 Cl(35) Bbb    -0.1195    -6.253    -2.231    -2.086 -0.2873 -0.6555  0.6985
              Bcc     0.2843    14.879     5.309     4.963  0.1381  0.6932  0.7074
 
              Baa    -0.2122   -11.105    -3.962    -3.704  0.7413 -0.6165 -0.2654
    19 Cl(35) Bbb    -0.1364    -7.136    -2.546    -2.380  0.4200  0.1176  0.8999
              Bcc     0.3485    18.241     6.509     6.085  0.5235  0.7785 -0.3461
 
              Baa    -0.0226   -12.051    -4.300    -4.020  0.5309  0.7814 -0.3279
    20 H(1)   Bbb    -0.0192   -10.226    -3.649    -3.411 -0.4038  0.5735  0.7128
              Bcc     0.0418    22.277     7.949     7.431  0.7451 -0.2460  0.6200
 
              Baa    -0.0043    -2.289    -0.817    -0.764  0.5579  0.6931 -0.4565
    21 H(1)   Bbb    -0.0041    -2.168    -0.774    -0.723 -0.4121  0.7088  0.5726
              Bcc     0.0084     4.458     1.591     1.487  0.7204 -0.1314  0.6810
 
              Baa    -0.0019    -1.026    -0.366    -0.342  0.0998  0.9935 -0.0543
    22 H(1)   Bbb    -0.0018    -0.945    -0.337    -0.315 -0.4360  0.0927  0.8952
              Bcc     0.0037     1.970     0.703     0.657  0.8944 -0.0657  0.4424
 
              Baa    -0.0020    -1.044    -0.372    -0.348 -0.1316 -0.2722  0.9532
    23 H(1)   Bbb    -0.0019    -0.997    -0.356    -0.333  0.0015  0.9615  0.2748
              Bcc     0.0038     2.041     0.728     0.681  0.9913 -0.0376  0.1262
 
              Baa    -0.0041    -2.171    -0.775    -0.724  0.0879 -0.6003  0.7949
    24 H(1)   Bbb    -0.0038    -2.037    -0.727    -0.679  0.1312  0.7981  0.5881
              Bcc     0.0079     4.208     1.502     1.404  0.9874 -0.0526 -0.1489
 
              Baa    -0.0217   -11.571    -4.129    -3.860  0.3479  0.8386  0.4192
    25 H(1)   Bbb    -0.0169    -9.031    -3.222    -3.012  0.6879 -0.5321  0.4936
              Bcc     0.0386    20.602     7.351     6.872 -0.6370 -0.1167  0.7620
 
              Baa    -0.0092    -1.230    -0.439    -0.410  0.4596 -0.1199  0.8800
    26 C(13)  Bbb    -0.0081    -1.092    -0.390    -0.364 -0.2923  0.9152  0.2774
              Bcc     0.0173     2.321     0.828     0.774  0.8386  0.3847 -0.3856
 
              Baa    -0.0043    -2.307    -0.823    -0.769  0.5512  0.6571  0.5143
    27 H(1)   Bbb    -0.0038    -2.009    -0.717    -0.670 -0.5005  0.7535 -0.4263
              Bcc     0.0081     4.316     1.540     1.440 -0.6676 -0.0224  0.7442
 
              Baa    -0.0039    -2.091    -0.746    -0.697  0.4925  0.0835  0.8663
    28 H(1)   Bbb    -0.0037    -1.983    -0.708    -0.662 -0.0118  0.9959 -0.0893
              Bcc     0.0076     4.074     1.454     1.359  0.8702 -0.0338 -0.4915
 
              Baa    -0.0062    -3.290    -1.174    -1.098  0.6162  0.7874 -0.0164
    29 H(1)   Bbb    -0.0051    -2.717    -0.969    -0.906  0.6135 -0.4668  0.6370
              Bcc     0.0113     6.007     2.144     2.004 -0.4939  0.4026  0.7707
 
              Baa    -0.0035    -1.846    -0.659    -0.616  0.6680  0.6796  0.3032
    30 H(1)   Bbb    -0.0031    -1.636    -0.584    -0.546  0.3074 -0.6231  0.7192
              Bcc     0.0065     3.482     1.242     1.161  0.6777 -0.3872 -0.6251
 
              Baa    -0.0077    -4.090    -1.459    -1.364  0.3184  0.6741 -0.6665
    31 H(1)   Bbb    -0.0045    -2.405    -0.858    -0.802  0.4235  0.5279  0.7362
              Bcc     0.0122     6.495     2.317     2.166  0.8481 -0.5167 -0.1174
 
              Baa    -0.0058    -3.082    -1.100    -1.028  0.5538  0.2237  0.8020
    32 H(1)   Bbb    -0.0049    -2.624    -0.936    -0.875  0.7459  0.2948 -0.5972
              Bcc     0.0107     5.706     2.036     1.903 -0.3701  0.9290 -0.0036
 
              Baa    -0.0070    -3.712    -1.324    -1.238  0.6465  0.6456  0.4066
    33 H(1)   Bbb    -0.0062    -3.309    -1.181    -1.104 -0.4129 -0.1520  0.8980
              Bcc     0.0132     7.021     2.505     2.342 -0.6415  0.7484 -0.1683
 
              Baa    -0.0156    -8.311    -2.966    -2.772  0.3897  0.3646  0.8457
    34 H(1)   Bbb    -0.0126    -6.703    -2.392    -2.236  0.8420  0.2309 -0.4876
              Bcc     0.0281    15.014     5.357     5.008 -0.3731  0.9021 -0.2170
 
              Baa    -0.0068    -3.642    -1.299    -1.215 -0.0254 -0.5469  0.8368
    35 H(1)   Bbb    -0.0060    -3.220    -1.149    -1.074  0.9871  0.1189  0.1076
              Bcc     0.0129     6.862     2.449     2.289 -0.1583  0.8287  0.5368
 
              Baa    -0.0200   -10.682    -3.811    -3.563  0.4801 -0.3503  0.8042
    36 H(1)   Bbb    -0.0175    -9.327    -3.328    -3.111  0.8772  0.2031 -0.4351
              Bcc     0.0375    20.008     7.140     6.674 -0.0109  0.9143  0.4048
 
              Baa    -0.0157    -8.368    -2.986    -2.791  0.5081  0.7286 -0.4593
    37 H(1)   Bbb    -0.0137    -7.303    -2.606    -2.436  0.8375 -0.2932  0.4612
              Bcc     0.0294    15.672     5.592     5.227 -0.2013  0.6190  0.7591
 
              Baa    -0.0133     0.964     0.344     0.321  0.7112 -0.6387  0.2936
    38 O(17)  Bbb    -0.0125     0.906     0.323     0.302  0.0380  0.4519  0.8913
              Bcc     0.0258    -1.870    -0.667    -0.624  0.7020  0.6227 -0.3456
 
              Baa    -0.0056     0.403     0.144     0.134 -0.4604  0.8703 -0.1749
    39 O(17)  Bbb    -0.0017     0.124     0.044     0.041  0.2611  0.3211  0.9103
              Bcc     0.0073    -0.527    -0.188    -0.176  0.8484  0.3735 -0.3751
 
              Baa    -0.0062    -0.835    -0.298    -0.278  0.7336 -0.4979  0.4624
    40 C(13)  Bbb    -0.0060    -0.804    -0.287    -0.268 -0.2606  0.4223  0.8682
              Bcc     0.0122     1.639     0.585     0.547  0.6276  0.7574 -0.1801
 
              Baa    -0.0067    -0.894    -0.319    -0.298  0.9138 -0.3338  0.2312
    41 C(13)  Bbb    -0.0059    -0.794    -0.283    -0.265 -0.1550  0.2393  0.9585
              Bcc     0.0126     1.688     0.602     0.563  0.3753  0.9118 -0.1669
 
              Baa    -0.0054    -2.903    -1.036    -0.968  0.5615 -0.5754  0.5947
    42 H(1)   Bbb    -0.0051    -2.736    -0.976    -0.913 -0.4209  0.4202  0.8039
              Bcc     0.0106     5.639     2.012     1.881  0.7124  0.7017  0.0063
 
              Baa    -0.0038    -2.015    -0.719    -0.672  0.7070 -0.4083  0.5774
    43 H(1)   Bbb    -0.0037    -1.983    -0.708    -0.662 -0.2997  0.5665  0.7676
              Bcc     0.0075     3.999     1.427     1.334  0.6406  0.7158 -0.2782
 
              Baa    -0.0037    -1.983    -0.708    -0.661  0.9385 -0.3410  0.0546
    44 H(1)   Bbb    -0.0035    -1.877    -0.670    -0.626 -0.0283  0.0817  0.9963
              Bcc     0.0072     3.860     1.377     1.288  0.3442  0.9365 -0.0671
 
              Baa    -0.0061    -3.251    -1.160    -1.084  0.9082 -0.3320 -0.2549
    45 H(1)   Bbb    -0.0056    -2.972    -1.061    -0.991  0.3380  0.2225  0.9145
              Bcc     0.0117     6.223     2.221     2.076  0.2469  0.9167 -0.3143
 
              Baa    -0.0105    -5.607    -2.001    -1.870  0.9603 -0.2721  0.0615
    46 H(1)   Bbb    -0.0089    -4.756    -1.697    -1.586 -0.0536  0.0365  0.9979
              Bcc     0.0194    10.363     3.698     3.457  0.2738  0.9616 -0.0205
 

 ---------------------------------------------------------------------------------

 No NMR shielding tensors so no spin-rotation constants.
 Leave Link  601 at Sun Jun 20 11:30:06 2021, MaxMem=  2147483648 cpu:             100.6 elap:               6.5
 (Enter /SFS/product/gaussian/g16.a03/x86_64/avx/g16/l9999.exe)
 1\1\GINC-KTCHPCPX092\SP\UB3LYP\Jul-CC-pVDZ\C17H22Cl3Fe1O3(6)\KWANEU\20
 -Jun-2021\0\\#p ub3lyp jul-cc-pvdz pop=cm5 scrf=(pcm,solvent=water) gu
 ess=read geom=allcheck\\title\\0,6\C,0,3.2023013678,-0.4333755189,0.50
 92571063\C,0,1.8179494909,-0.5670307205,0.7356218124\C,0,1.353384202,-
 0.6025832097,2.0628147123\C,0,2.2468016893,-0.5117562569,3.1325707376\
 C,0,3.6175386145,-0.3882477227,2.8953278352\C,0,4.0913590469,-0.345562
 3884,1.5779392087\C,0,0.8147851841,-0.6366919708,-0.3859995089\C,0,1.0
 235594329,0.2592271937,-1.6552005198\C,0,1.9041462642,-0.4159252653,-2
 .7106253455\C,0,1.4769343042,-1.8909435871,-2.7492747015\C,0,1.2901368
 718,-2.3408679958,-1.318643711\C,0,0.1164588011,-2.8635201589,-0.79132
 43519\C,0,-1.1681966306,-2.9074632038,-1.5434915767\O,0,-0.4371363306,
 -0.7777323665,0.0043049445\Fe,0,-2.0991772538,0.1003857973,0.369375533
 1\Cl,0,-2.8634846631,0.8578727959,-1.5732461398\C,0,0.118543139,-3.525
 0618783,0.5418317971\Cl,0,-1.8280347114,1.6483092421,1.92623009\Cl,0,-
 3.3557423279,-1.5627310672,1.168146218\H,0,0.2857199495,-0.670852846,2
 .2539874476\H,0,1.8643993057,-0.5288002614,4.1537703266\H,0,4.31577295
 34,-0.3163885945,3.7307183195\H,0,5.1586464291,-0.2352815729,1.3825280
 287\H,0,3.596109174,-0.382722056,-0.5025905279\H,0,0.0078356679,0.3914
 980554,-2.0493003043\C,0,1.5444738378,1.6526096981,-1.2857277878\H,0,1
 .7766488465,0.0749833618,-3.6844269813\H,0,2.9634184569,-0.3140998089,
 -2.4470088434\H,0,0.5496412078,-1.999569931,-3.3245369981\H,0,2.236482
 1515,-2.5118205614,-3.2452510925\H,0,2.2043244269,-2.5949441005,-0.783
 5795385\H,0,-0.0780294915,-4.5988481287,0.3786254805\H,0,1.0727882884,
 -3.4239518181,1.0688628426\H,0,-0.7076169769,-3.1467290322,1.159123483
 5\H,0,-1.1786209976,-3.8683020685,-2.0903873222\H,0,-2.0300950452,-2.8
 971680299,-0.8679376107\H,0,-1.2743612374,-2.107372144,-2.2808987718\O
 ,0,0.5567518879,2.4208897039,-0.8174789604\O,0,2.6957122914,2.01065635
 16,-1.4271274507\C,0,0.9070619433,3.7839292746,-0.4290616742\C,0,-0.38
 04631969,4.5635656135,-0.2628704296\H,0,1.4822267984,3.7233468194,0.50
 52215937\H,0,1.5579356603,4.2026444197,-1.2068545744\H,0,-0.1392772002
 ,5.5909422906,0.0468697247\H,0,-0.9367267929,4.6074854577,-1.209207516
 5\H,0,-1.0220198294,4.1055681898,0.5000979968\\Version=ES64L-G16RevA.0
 3\State=6-A\HF=-3531.4357855\S2=8.761345\S2-1=0.\S2A=8.75004\RMSD=3.54
 1e-09\Dipole=4.0421882,-2.9095158,-1.3523037\Quadrupole=-18.9405727,15
 .6737997,3.2667731,-4.3055347,7.132218,6.1375706\PG=C01 [X(C17H22Cl3Fe
 1O3)]\\@


 I LOVE MANKIND - IT'S PEOPLE I CAN'T STAND.
     -- LINUS OF PEANUTS
 Job cpu time:       0 days  6 hours 23 minutes 57.8 seconds.
 Elapsed time:       0 days  0 hours 24 minutes  3.0 seconds.
 File lengths (MBytes):  RWF=    660 Int=      0 D2E=      0 Chk=     57 Scr=      1
 Normal termination of Gaussian 16 at Sun Jun 20 11:30:07 2021.
