 Entering Gaussian System, Link 0=g16
 Input=prenyl-first_betaine_grid-CC_200_CO_200-b3lyp_d3bj-juldz-gas.gjf
 Output=prenyl-first_betaine_grid-CC_200_CO_200-b3lyp_d3bj-juldz-gas.out
 Initial command:
 /SFS/product/gaussian/g16.a03/x86_64/avx/g16/l1.exe "/scratch/kwaneu.2874269.bmbhpcps002/Gau-42720.inp" -scrdir="/scratch/kwaneu.2874269.bmbhpcps002/"
 Entering Link 1 = /SFS/product/gaussian/g16.a03/x86_64/avx/g16/l1.exe PID=     42721.
  
 Copyright (c) 1988,1990,1992,1993,1995,1998,2003,2009,2016,
            Gaussian, Inc.  All Rights Reserved.
  
 This is part of the Gaussian(R) 16 program.  It is based on
 the Gaussian(R) 09 system (copyright 2009, Gaussian, Inc.),
 the Gaussian(R) 03 system (copyright 2003, Gaussian, Inc.),
 the Gaussian(R) 98 system (copyright 1998, Gaussian, Inc.),
 the Gaussian(R) 94 system (copyright 1995, Gaussian, Inc.),
 the Gaussian 92(TM) system (copyright 1992, Gaussian, Inc.),
 the Gaussian 90(TM) system (copyright 1990, Gaussian, Inc.),
 the Gaussian 88(TM) system (copyright 1988, Gaussian, Inc.),
 the Gaussian 86(TM) system (copyright 1986, Carnegie Mellon
 University), and the Gaussian 82(TM) system (copyright 1983,
 Carnegie Mellon University). Gaussian is a federally registered
 trademark of Gaussian, Inc.
  
 This software contains proprietary and confidential information,
 including trade secrets, belonging to Gaussian, Inc.
  
 This software is provided under written license and may be
 used, copied, transmitted, or stored only in accord with that
 written license.
  
 The following legend is applicable only to US Government
 contracts under FAR:
  
                    RESTRICTED RIGHTS LEGEND
  
 Use, reproduction and disclosure by the US Government is
 subject to restrictions as set forth in subparagraphs (a)
 and (c) of the Commercial Computer Software - Restricted
 Rights clause in FAR 52.227-19.
  
 Gaussian, Inc.
 340 Quinnipiac St., Bldg. 40, Wallingford CT 06492
  
  
 ---------------------------------------------------------------
 Warning -- This program may not be used in any manner that
 competes with the business of Gaussian, Inc. or will provide
 assistance to any competitor of Gaussian, Inc.  The licensee
 of this program is prohibited from giving any competitor of
 Gaussian, Inc. access to this program.  By using this program,
 the user acknowledges that Gaussian, Inc. is engaged in the
 business of creating and licensing software in the field of
 computational chemistry and represents and warrants to the
 licensee that it is not a competitor of Gaussian, Inc. and that
 it will not use this program in any manner prohibited above.
 ---------------------------------------------------------------
  

 Cite this work as:
 Gaussian 16, Revision A.03,
 M. J. Frisch, G. W. Trucks, H. B. Schlegel, G. E. Scuseria, 
 M. A. Robb, J. R. Cheeseman, G. Scalmani, V. Barone, 
 G. A. Petersson, H. Nakatsuji, X. Li, M. Caricato, A. V. Marenich, 
 J. Bloino, B. G. Janesko, R. Gomperts, B. Mennucci, H. P. Hratchian, 
 J. V. Ortiz, A. F. Izmaylov, J. L. Sonnenberg, D. Williams-Young, 
 F. Ding, F. Lipparini, F. Egidi, J. Goings, B. Peng, A. Petrone, 
 T. Henderson, D. Ranasinghe, V. G. Zakrzewski, J. Gao, N. Rega, 
 G. Zheng, W. Liang, M. Hada, M. Ehara, K. Toyota, R. Fukuda, 
 J. Hasegawa, M. Ishida, T. Nakajima, Y. Honda, O. Kitao, H. Nakai, 
 T. Vreven, K. Throssell, J. A. Montgomery, Jr., J. E. Peralta, 
 F. Ogliaro, M. J. Bearpark, J. J. Heyd, E. N. Brothers, K. N. Kudin, 
 V. N. Staroverov, T. A. Keith, R. Kobayashi, J. Normand, 
 K. Raghavachari, A. P. Rendell, J. C. Burant, S. S. Iyengar, 
 J. Tomasi, M. Cossi, J. M. Millam, M. Klene, C. Adamo, R. Cammi, 
 J. W. Ochterski, R. L. Martin, K. Morokuma, O. Farkas, 
 J. B. Foresman, and D. J. Fox, Gaussian, Inc., Wallingford CT, 2016.
 
 ******************************************
 Gaussian 16:  ES64L-G16RevA.03 25-Dec-2016
                19-Jun-2021 
 ******************************************
 %chk=checkpoint.chk
 %nprocshared=16
 Will use up to   16 processors via shared memory.
 %mem=16GB
 -----------------------------------------------------------
 #p opt=modredundant freq=noraman ub3lyp jul-cc-pvdz pop=cm5
 -----------------------------------------------------------
 1/18=120,19=15,26=3,38=1/1,3;
 2/9=110,12=2,17=6,18=5,40=1/2;
 3/5=16,7=50,11=2,25=1,30=1,71=1,74=-5,116=2/1,2,3;
 4//1;
 5/5=2,38=5/2;
 6/7=2,8=2,9=2,10=2,28=1,79=1/1;
 7//1,2,3,16;
 1/18=20,19=15,26=3/3(2);
 2/9=110/2;
 99//99;
 2/9=110/2;
 3/5=16,7=50,11=2,25=1,30=1,71=1,74=-5,116=2/1,2,3;
 4/5=5,16=3,69=1/1;
 5/5=2,38=5/2;
 7//1,2,3,16;
 1/18=20,19=15,26=3/3(-5);
 2/9=110/2;
 6/7=2,8=2,9=2,10=2,19=2,28=1,79=1/1;
 99/9=1/99;
 Leave Link    1 at Sat Jun 19 21:34:51 2021, MaxMem=  2147483648 cpu:               2.1 elap:               0.2
 (Enter /SFS/product/gaussian/g16.a03/x86_64/avx/g16/l101.exe)
 -----
 title
 -----
 Symbolic Z-matrix:
 Charge =  0 Multiplicity = 6
 6                     3.08136  -0.84703   0.56003 
 6                     1.68421  -0.868     0.75612 
 6                     1.19235  -0.96279   2.07212 
 6                     2.06652  -1.02759   3.15573 
 6                     3.44522  -1.01219   2.94734 
 6                     3.94743  -0.91995   1.64532 
 6                     0.73202  -0.8254   -0.38307 
 6                     1.06983  -0.03664  -1.67488 
 6                     1.75454  -0.96067  -2.69711 
 6                     0.96971  -2.28845  -2.69889 
 6                     0.62179  -2.61824  -1.2626 
 6                    -0.73823  -2.64655  -0.75231 
 6                    -1.92692  -2.44723  -1.63552 
 8                    -0.61855  -0.79726  -0.00011 
 26                   -1.92963   0.53413   0.42068 
 17                   -2.47416   1.4985   -1.49625 
 6                    -0.97386  -3.3739    0.53029 
 17                   -1.23464   1.91344   1.9847 
 17                   -3.59475  -0.72191   1.19117 
 1                     0.12399  -0.957     2.24154 
 1                     1.66467  -1.08295   4.16317 
 1                     4.12674  -1.0647    3.79184 
 1                     5.02     -0.89839   1.47479 
 1                     3.49699  -0.75467  -0.43565 
 1                     0.10024   0.28413  -2.07105 
 6                     1.88357   1.23713  -1.42761 
 1                     1.77691  -0.49245  -3.68652 
 1                     2.79659  -1.12904  -2.41074 
 1                     0.06973  -2.18291  -3.31284 
 1                     1.56545  -3.08959  -3.15072 
 1                     1.31905  -3.25639  -0.72468 
 1                    -1.11762  -4.43407   0.26765 
 1                    -0.11047  -3.31453   1.19745 
 1                    -1.87368  -3.02041   1.03815 
 1                    -2.07365  -3.39128  -2.18427 
 1                    -2.82731  -2.24579  -1.05234 
 1                    -1.78913  -1.6537   -2.37073 
 8                     1.12755   2.17481  -0.84675 
 8                     3.0499    1.37746  -1.73356 
 6                     1.76835   3.4496   -0.55651 
 6                     0.67964   4.45618  -0.24321 
 1                     2.44758   3.29639   0.28835 
 1                     2.36649   3.73539  -1.42582 
 1                     1.13734   5.42559  -0.01562 
 1                     0.00855   4.58187  -1.09848 
 1                     0.08608   4.13677   0.6173 
 
 The following ModRedundant input section has been read:
 B       7      11 F                                                           
 B      12      14 F                                                           
 
 ITRead=  0  0  0  0  0  0  0  0  0  0  0  0  0  0  0  0  0  0  0  0
 ITRead=  0  0  0  0  0  0  0  0  0  0  0  0  0  0  0  0  0  0  0  0
 ITRead=  0  0  0  0  0  0
 MicOpt= -1 -1 -1 -1 -1 -1 -1 -1 -1 -1 -1 -1 -1 -1 -1 -1 -1 -1 -1 -1
 MicOpt= -1 -1 -1 -1 -1 -1 -1 -1 -1 -1 -1 -1 -1 -1 -1 -1 -1 -1 -1 -1
 MicOpt= -1 -1 -1 -1 -1 -1
 NAtoms=     46 NQM=       46 NQMF=       0 NMMI=      0 NMMIF=      0
                NMic=       0 NMicF=      0.
                    Isotopes and Nuclear Properties:
 (Nuclear quadrupole moments (NQMom) in fm**2, nuclear magnetic moments (NMagM)
  in nuclear magnetons)

  Atom         1           2           3           4           5           6           7           8           9          10
 IAtWgt=          12          12          12          12          12          12          12          12          12          12
 AtmWgt=  12.0000000  12.0000000  12.0000000  12.0000000  12.0000000  12.0000000  12.0000000  12.0000000  12.0000000  12.0000000
 NucSpn=           0           0           0           0           0           0           0           0           0           0
 AtZEff=  -0.0000000  -0.0000000  -0.0000000  -0.0000000  -0.0000000  -0.0000000  -0.0000000  -0.0000000  -0.0000000  -0.0000000
 NQMom=    0.0000000   0.0000000   0.0000000   0.0000000   0.0000000   0.0000000   0.0000000   0.0000000   0.0000000   0.0000000
 NMagM=    0.0000000   0.0000000   0.0000000   0.0000000   0.0000000   0.0000000   0.0000000   0.0000000   0.0000000   0.0000000
 AtZNuc=   6.0000000   6.0000000   6.0000000   6.0000000   6.0000000   6.0000000   6.0000000   6.0000000   6.0000000   6.0000000

  Atom        11          12          13          14          15          16          17          18          19          20
 IAtWgt=          12          12          12          16          56          35          12          35          35           1
 AtmWgt=  12.0000000  12.0000000  12.0000000  15.9949146  55.9349393  34.9688527  12.0000000  34.9688527  34.9688527   1.0078250
 NucSpn=           0           0           0           0           0           3           0           3           3           1
 AtZEff=  -0.0000000  -0.0000000  -0.0000000  -0.0000000  -0.0000000  -0.0000000  -0.0000000  -0.0000000  -0.0000000  -0.0000000
 NQMom=    0.0000000   0.0000000   0.0000000   0.0000000   0.0000000  -8.1650000   0.0000000  -8.1650000  -8.1650000   0.0000000
 NMagM=    0.0000000   0.0000000   0.0000000   0.0000000   0.0000000   0.8218740   0.0000000   0.8218740   0.8218740   2.7928460
 AtZNuc=   6.0000000   6.0000000   6.0000000   8.0000000  26.0000000  17.0000000   6.0000000  17.0000000  17.0000000   1.0000000

  Atom        21          22          23          24          25          26          27          28          29          30
 IAtWgt=           1           1           1           1           1          12           1           1           1           1
 AtmWgt=   1.0078250   1.0078250   1.0078250   1.0078250   1.0078250  12.0000000   1.0078250   1.0078250   1.0078250   1.0078250
 NucSpn=           1           1           1           1           1           0           1           1           1           1
 AtZEff=  -0.0000000  -0.0000000  -0.0000000  -0.0000000  -0.0000000  -0.0000000  -0.0000000  -0.0000000  -0.0000000  -0.0000000
 NQMom=    0.0000000   0.0000000   0.0000000   0.0000000   0.0000000   0.0000000   0.0000000   0.0000000   0.0000000   0.0000000
 NMagM=    2.7928460   2.7928460   2.7928460   2.7928460   2.7928460   0.0000000   2.7928460   2.7928460   2.7928460   2.7928460
 AtZNuc=   1.0000000   1.0000000   1.0000000   1.0000000   1.0000000   6.0000000   1.0000000   1.0000000   1.0000000   1.0000000

  Atom        31          32          33          34          35          36          37          38          39          40
 IAtWgt=           1           1           1           1           1           1           1          16          16          12
 AtmWgt=   1.0078250   1.0078250   1.0078250   1.0078250   1.0078250   1.0078250   1.0078250  15.9949146  15.9949146  12.0000000
 NucSpn=           1           1           1           1           1           1           1           0           0           0
 AtZEff=  -0.0000000  -0.0000000  -0.0000000  -0.0000000  -0.0000000  -0.0000000  -0.0000000  -0.0000000  -0.0000000  -0.0000000
 NQMom=    0.0000000   0.0000000   0.0000000   0.0000000   0.0000000   0.0000000   0.0000000   0.0000000   0.0000000   0.0000000
 NMagM=    2.7928460   2.7928460   2.7928460   2.7928460   2.7928460   2.7928460   2.7928460   0.0000000   0.0000000   0.0000000
 AtZNuc=   1.0000000   1.0000000   1.0000000   1.0000000   1.0000000   1.0000000   1.0000000   8.0000000   8.0000000   6.0000000

  Atom        41          42          43          44          45          46
 IAtWgt=          12           1           1           1           1           1
 AtmWgt=  12.0000000   1.0078250   1.0078250   1.0078250   1.0078250   1.0078250
 NucSpn=           0           1           1           1           1           1
 AtZEff=  -0.0000000  -0.0000000  -0.0000000  -0.0000000  -0.0000000  -0.0000000
 NQMom=    0.0000000   0.0000000   0.0000000   0.0000000   0.0000000   0.0000000
 NMagM=    0.0000000   2.7928460   2.7928460   2.7928460   2.7928460   2.7928460
 AtZNuc=   6.0000000   1.0000000   1.0000000   1.0000000   1.0000000   1.0000000
 Leave Link  101 at Sat Jun 19 21:34:51 2021, MaxMem=  2147483648 cpu:               6.2 elap:               0.5
 (Enter /SFS/product/gaussian/g16.a03/x86_64/avx/g16/l103.exe)

 GradGradGradGradGradGradGradGradGradGradGradGradGradGradGradGradGradGrad
 Berny optimization.
 Initialization pass.
                           ----------------------------
                           !    Initial Parameters    !
                           ! (Angstroms and Degrees)  !
 --------------------------                            --------------------------
 ! Name  Definition              Value          Derivative Info.                !
 --------------------------------------------------------------------------------
 ! R1    R(1,2)                  1.411          estimate D2E/DX2                !
 ! R2    R(1,6)                  1.3904         estimate D2E/DX2                !
 ! R3    R(1,24)                 1.0829         estimate D2E/DX2                !
 ! R4    R(2,3)                  1.4081         estimate D2E/DX2                !
 ! R5    R(2,7)                  1.4853         estimate D2E/DX2                !
 ! R6    R(3,4)                  1.3938         estimate D2E/DX2                !
 ! R7    R(3,20)                 1.0817         estimate D2E/DX2                !
 ! R8    R(4,5)                  1.3944         estimate D2E/DX2                !
 ! R9    R(4,21)                 1.086          estimate D2E/DX2                !
 ! R10   R(5,6)                  1.3986         estimate D2E/DX2                !
 ! R11   R(5,22)                 1.0865         estimate D2E/DX2                !
 ! R12   R(6,23)                 1.0863         estimate D2E/DX2                !
 ! R13   R(7,8)                  1.5508         estimate D2E/DX2                !
 ! R14   R(7,11)                 2.0            Frozen                          !
 ! R15   R(7,14)                 1.4041         estimate D2E/DX2                !
 ! R16   R(8,9)                  1.5387         estimate D2E/DX2                !
 ! R17   R(8,25)                 1.0954         estimate D2E/DX2                !
 ! R18   R(8,26)                 1.5316         estimate D2E/DX2                !
 ! R19   R(9,10)                 1.5424         estimate D2E/DX2                !
 ! R20   R(9,27)                 1.0948         estimate D2E/DX2                !
 ! R21   R(9,28)                 1.0937         estimate D2E/DX2                !
 ! R22   R(10,11)                1.5142         estimate D2E/DX2                !
 ! R23   R(10,29)                1.0945         estimate D2E/DX2                !
 ! R24   R(10,30)                1.0959         estimate D2E/DX2                !
 ! R25   R(11,12)                1.4529         estimate D2E/DX2                !
 ! R26   R(11,31)                1.0875         estimate D2E/DX2                !
 ! R27   R(12,13)                1.4943         estimate D2E/DX2                !
 ! R28   R(12,14)                2.0            Frozen                          !
 ! R29   R(12,17)                1.4932         estimate D2E/DX2                !
 ! R30   R(13,35)                1.1018         estimate D2E/DX2                !
 ! R31   R(13,36)                1.0915         estimate D2E/DX2                !
 ! R32   R(13,37)                1.0905         estimate D2E/DX2                !
 ! R33   R(14,15)                1.9154         estimate D2E/DX2                !
 ! R34   R(15,16)                2.2139         estimate D2E/DX2                !
 ! R35   R(15,18)                2.1981         estimate D2E/DX2                !
 ! R36   R(15,19)                2.2235         estimate D2E/DX2                !
 ! R37   R(17,32)                1.1016         estimate D2E/DX2                !
 ! R38   R(17,33)                1.0927         estimate D2E/DX2                !
 ! R39   R(17,34)                1.092          estimate D2E/DX2                !
 ! R40   R(26,38)                1.3372         estimate D2E/DX2                !
 ! R41   R(26,39)                1.2139         estimate D2E/DX2                !
 ! R42   R(38,40)                1.456          estimate D2E/DX2                !
 ! R43   R(40,41)                1.5155         estimate D2E/DX2                !
 ! R44   R(40,42)                1.0948         estimate D2E/DX2                !
 ! R45   R(40,43)                1.0932         estimate D2E/DX2                !
 ! R46   R(41,44)                1.0959         estimate D2E/DX2                !
 ! R47   R(41,45)                1.0944         estimate D2E/DX2                !
 ! R48   R(41,46)                1.0931         estimate D2E/DX2                !
 ! A1    A(2,1,6)              120.499          estimate D2E/DX2                !
 ! A2    A(2,1,24)             120.6037         estimate D2E/DX2                !
 ! A3    A(6,1,24)             118.8868         estimate D2E/DX2                !
 ! A4    A(1,2,3)              118.4737         estimate D2E/DX2                !
 ! A5    A(1,2,7)              121.8542         estimate D2E/DX2                !
 ! A6    A(3,2,7)              119.656          estimate D2E/DX2                !
 ! A7    A(2,3,4)              120.7077         estimate D2E/DX2                !
 ! A8    A(2,3,20)             119.4063         estimate D2E/DX2                !
 ! A9    A(4,3,20)             119.8636         estimate D2E/DX2                !
 ! A10   A(3,4,5)              120.2264         estimate D2E/DX2                !
 ! A11   A(3,4,21)             119.4389         estimate D2E/DX2                !
 ! A12   A(5,4,21)             120.3332         estimate D2E/DX2                !
 ! A13   A(4,5,6)              119.6629         estimate D2E/DX2                !
 ! A14   A(4,5,22)             120.2324         estimate D2E/DX2                !
 ! A15   A(6,5,22)             120.1034         estimate D2E/DX2                !
 ! A16   A(1,6,5)              120.4275         estimate D2E/DX2                !
 ! A17   A(1,6,23)             119.4371         estimate D2E/DX2                !
 ! A18   A(5,6,23)             120.1342         estimate D2E/DX2                !
 ! A19   A(2,7,8)              120.9177         estimate D2E/DX2                !
 ! A20   A(2,7,14)             114.0801         estimate D2E/DX2                !
 ! A21   A(8,7,14)             115.2473         estimate D2E/DX2                !
 ! A22   A(7,8,9)              110.1753         estimate D2E/DX2                !
 ! A23   A(7,8,25)             104.9148         estimate D2E/DX2                !
 ! A24   A(7,8,26)             113.8436         estimate D2E/DX2                !
 ! A25   A(9,8,25)             109.2361         estimate D2E/DX2                !
 ! A26   A(9,8,26)             111.7317         estimate D2E/DX2                !
 ! A27   A(25,8,26)            106.5662         estimate D2E/DX2                !
 ! A28   A(8,9,10)             106.936          estimate D2E/DX2                !
 ! A29   A(8,9,27)             110.6492         estimate D2E/DX2                !
 ! A30   A(8,9,28)             110.0275         estimate D2E/DX2                !
 ! A31   A(10,9,27)            112.1795         estimate D2E/DX2                !
 ! A32   A(10,9,28)            110.645          estimate D2E/DX2                !
 ! A33   A(27,9,28)            106.4388         estimate D2E/DX2                !
 ! A34   A(9,10,11)            107.657          estimate D2E/DX2                !
 ! A35   A(9,10,29)            109.6352         estimate D2E/DX2                !
 ! A36   A(9,10,30)            110.6831         estimate D2E/DX2                !
 ! A37   A(11,10,29)           111.3545         estimate D2E/DX2                !
 ! A38   A(11,10,30)           110.9032         estimate D2E/DX2                !
 ! A39   A(29,10,30)           106.6314         estimate D2E/DX2                !
 ! A40   A(10,11,12)           123.538          estimate D2E/DX2                !
 ! A41   A(10,11,31)           116.7219         estimate D2E/DX2                !
 ! A42   A(12,11,31)           114.5192         estimate D2E/DX2                !
 ! A43   A(11,12,13)           122.3081         estimate D2E/DX2                !
 ! A44   A(11,12,17)           117.3164         estimate D2E/DX2                !
 ! A45   A(13,12,17)           116.5608         estimate D2E/DX2                !
 ! A46   A(12,13,35)           106.6206         estimate D2E/DX2                !
 ! A47   A(12,13,36)           111.4099         estimate D2E/DX2                !
 ! A48   A(12,13,37)           113.2683         estimate D2E/DX2                !
 ! A49   A(35,13,36)           108.3239         estimate D2E/DX2                !
 ! A50   A(35,13,37)           107.731          estimate D2E/DX2                !
 ! A51   A(36,13,37)           109.2783         estimate D2E/DX2                !
 ! A52   A(7,14,15)            137.0767         estimate D2E/DX2                !
 ! A53   A(14,15,16)           106.3159         estimate D2E/DX2                !
 ! A54   A(14,15,18)           112.0908         estimate D2E/DX2                !
 ! A55   A(14,15,19)           101.3076         estimate D2E/DX2                !
 ! A56   A(16,15,18)           114.8678         estimate D2E/DX2                !
 ! A57   A(16,15,19)           111.2181         estimate D2E/DX2                !
 ! A58   A(18,15,19)           110.1628         estimate D2E/DX2                !
 ! A59   A(12,17,32)           106.5341         estimate D2E/DX2                !
 ! A60   A(12,17,33)           111.9182         estimate D2E/DX2                !
 ! A61   A(12,17,34)           111.8283         estimate D2E/DX2                !
 ! A62   A(32,17,33)           107.5141         estimate D2E/DX2                !
 ! A63   A(32,17,34)           108.3523         estimate D2E/DX2                !
 ! A64   A(33,17,34)           110.4579         estimate D2E/DX2                !
 ! A65   A(8,26,38)            110.6656         estimate D2E/DX2                !
 ! A66   A(8,26,39)            124.4657         estimate D2E/DX2                !
 ! A67   A(38,26,39)           124.8629         estimate D2E/DX2                !
 ! A68   A(26,38,40)           116.8526         estimate D2E/DX2                !
 ! A69   A(38,40,41)           107.8527         estimate D2E/DX2                !
 ! A70   A(38,40,42)           107.7189         estimate D2E/DX2                !
 ! A71   A(38,40,43)           108.1298         estimate D2E/DX2                !
 ! A72   A(41,40,42)           112.279          estimate D2E/DX2                !
 ! A73   A(41,40,43)           112.57           estimate D2E/DX2                !
 ! A74   A(42,40,43)           108.106          estimate D2E/DX2                !
 ! A75   A(40,41,44)           109.2946         estimate D2E/DX2                !
 ! A76   A(40,41,45)           110.8091         estimate D2E/DX2                !
 ! A77   A(40,41,46)           111.0242         estimate D2E/DX2                !
 ! A78   A(44,41,45)           108.4704         estimate D2E/DX2                !
 ! A79   A(44,41,46)           108.7702         estimate D2E/DX2                !
 ! A80   A(45,41,46)           108.4102         estimate D2E/DX2                !
 ! D1    D(6,1,2,3)              0.0631         estimate D2E/DX2                !
 ! D2    D(6,1,2,7)           -178.4722         estimate D2E/DX2                !
 ! D3    D(24,1,2,3)          -178.7477         estimate D2E/DX2                !
 ! D4    D(24,1,2,7)             2.7169         estimate D2E/DX2                !
 ! D5    D(2,1,6,5)             -0.1409         estimate D2E/DX2                !
 ! D6    D(2,1,6,23)          -179.7561         estimate D2E/DX2                !
 ! D7    D(24,1,6,5)           178.6901         estimate D2E/DX2                !
 ! D8    D(24,1,6,23)           -0.9251         estimate D2E/DX2                !
 ! D9    D(1,2,3,4)              0.3168         estimate D2E/DX2                !
 ! D10   D(1,2,3,20)           178.5929         estimate D2E/DX2                !
 ! D11   D(7,2,3,4)            178.8853         estimate D2E/DX2                !
 ! D12   D(7,2,3,20)            -2.8386         estimate D2E/DX2                !
 ! D13   D(1,2,7,8)            -33.1384         estimate D2E/DX2                !
 ! D14   D(1,2,7,14)          -177.4515         estimate D2E/DX2                !
 ! D15   D(3,2,7,8)            148.3431         estimate D2E/DX2                !
 ! D16   D(3,2,7,14)             4.03           estimate D2E/DX2                !
 ! D17   D(2,3,4,5)             -0.6214         estimate D2E/DX2                !
 ! D18   D(2,3,4,21)           178.9447         estimate D2E/DX2                !
 ! D19   D(20,3,4,5)          -178.8897         estimate D2E/DX2                !
 ! D20   D(20,3,4,21)            0.6764         estimate D2E/DX2                !
 ! D21   D(3,4,5,6)              0.5385         estimate D2E/DX2                !
 ! D22   D(3,4,5,22)          -179.8773         estimate D2E/DX2                !
 ! D23   D(21,4,5,6)          -179.0237         estimate D2E/DX2                !
 ! D24   D(21,4,5,22)            0.5605         estimate D2E/DX2                !
 ! D25   D(4,5,6,1)             -0.1594         estimate D2E/DX2                !
 ! D26   D(4,5,6,23)           179.4532         estimate D2E/DX2                !
 ! D27   D(22,5,6,1)          -179.7441         estimate D2E/DX2                !
 ! D28   D(22,5,6,23)           -0.1316         estimate D2E/DX2                !
 ! D29   D(2,7,8,9)             92.1224         estimate D2E/DX2                !
 ! D30   D(2,7,8,25)          -150.4192         estimate D2E/DX2                !
 ! D31   D(2,7,8,26)           -34.2952         estimate D2E/DX2                !
 ! D32   D(14,7,8,9)          -123.9522         estimate D2E/DX2                !
 ! D33   D(14,7,8,25)           -6.4938         estimate D2E/DX2                !
 ! D34   D(14,7,8,26)          109.6302         estimate D2E/DX2                !
 ! D35   D(2,7,14,15)           89.2149         estimate D2E/DX2                !
 ! D36   D(8,7,14,15)          -57.19           estimate D2E/DX2                !
 ! D37   D(7,8,9,10)            43.7913         estimate D2E/DX2                !
 ! D38   D(7,8,9,27)           166.235          estimate D2E/DX2                !
 ! D39   D(7,8,9,28)           -76.426          estimate D2E/DX2                !
 ! D40   D(25,8,9,10)          -70.9572         estimate D2E/DX2                !
 ! D41   D(25,8,9,27)           51.4865         estimate D2E/DX2                !
 ! D42   D(25,8,9,28)          168.8255         estimate D2E/DX2                !
 ! D43   D(26,8,9,10)          171.3861         estimate D2E/DX2                !
 ! D44   D(26,8,9,27)          -66.1702         estimate D2E/DX2                !
 ! D45   D(26,8,9,28)           51.1688         estimate D2E/DX2                !
 ! D46   D(7,8,26,38)          -71.5386         estimate D2E/DX2                !
 ! D47   D(7,8,26,39)          109.3016         estimate D2E/DX2                !
 ! D48   D(9,8,26,38)          162.864          estimate D2E/DX2                !
 ! D49   D(9,8,26,39)          -16.2959         estimate D2E/DX2                !
 ! D50   D(25,8,26,38)          43.6156         estimate D2E/DX2                !
 ! D51   D(25,8,26,39)        -135.5442         estimate D2E/DX2                !
 ! D52   D(8,9,10,11)          -40.8065         estimate D2E/DX2                !
 ! D53   D(8,9,10,29)           80.4788         estimate D2E/DX2                !
 ! D54   D(8,9,10,30)         -162.1655         estimate D2E/DX2                !
 ! D55   D(27,9,10,11)        -162.2884         estimate D2E/DX2                !
 ! D56   D(27,9,10,29)         -41.0031         estimate D2E/DX2                !
 ! D57   D(27,9,10,30)          76.3527         estimate D2E/DX2                !
 ! D58   D(28,9,10,11)          79.0146         estimate D2E/DX2                !
 ! D59   D(28,9,10,29)        -159.7001         estimate D2E/DX2                !
 ! D60   D(28,9,10,30)         -42.3443         estimate D2E/DX2                !
 ! D61   D(9,10,11,12)         114.1624         estimate D2E/DX2                !
 ! D62   D(9,10,11,31)         -92.8246         estimate D2E/DX2                !
 ! D63   D(29,10,11,12)         -6.0424         estimate D2E/DX2                !
 ! D64   D(29,10,11,31)        146.9706         estimate D2E/DX2                !
 ! D65   D(30,10,11,12)       -124.6161         estimate D2E/DX2                !
 ! D66   D(30,10,11,31)         28.3969         estimate D2E/DX2                !
 ! D67   D(10,11,12,13)          4.5867         estimate D2E/DX2                !
 ! D68   D(10,11,12,17)        161.8179         estimate D2E/DX2                !
 ! D69   D(31,11,12,13)       -148.9581         estimate D2E/DX2                !
 ! D70   D(31,11,12,17)          8.2731         estimate D2E/DX2                !
 ! D71   D(11,12,13,35)         76.6899         estimate D2E/DX2                !
 ! D72   D(11,12,13,36)       -165.311          estimate D2E/DX2                !
 ! D73   D(11,12,13,37)        -41.6257         estimate D2E/DX2                !
 ! D74   D(17,12,13,35)        -80.7019         estimate D2E/DX2                !
 ! D75   D(17,12,13,36)         37.2972         estimate D2E/DX2                !
 ! D76   D(17,12,13,37)        160.9826         estimate D2E/DX2                !
 ! D77   D(11,12,17,32)        -85.0543         estimate D2E/DX2                !
 ! D78   D(11,12,17,33)         32.1926         estimate D2E/DX2                !
 ! D79   D(11,12,17,34)        156.7351         estimate D2E/DX2                !
 ! D80   D(13,12,17,32)         73.4954         estimate D2E/DX2                !
 ! D81   D(13,12,17,33)       -169.2576         estimate D2E/DX2                !
 ! D82   D(13,12,17,34)        -44.7151         estimate D2E/DX2                !
 ! D83   D(7,14,15,16)          72.4977         estimate D2E/DX2                !
 ! D84   D(7,14,15,18)         -53.7797         estimate D2E/DX2                !
 ! D85   D(7,14,15,19)        -171.2003         estimate D2E/DX2                !
 ! D86   D(8,26,38,40)        -179.6694         estimate D2E/DX2                !
 ! D87   D(39,26,38,40)         -0.5136         estimate D2E/DX2                !
 ! D88   D(26,38,40,41)        165.7875         estimate D2E/DX2                !
 ! D89   D(26,38,40,42)        -72.8107         estimate D2E/DX2                !
 ! D90   D(26,38,40,43)         43.799          estimate D2E/DX2                !
 ! D91   D(38,40,41,44)        179.7146         estimate D2E/DX2                !
 ! D92   D(38,40,41,45)        -60.8039         estimate D2E/DX2                !
 ! D93   D(38,40,41,46)         59.7283         estimate D2E/DX2                !
 ! D94   D(42,40,41,44)         61.1927         estimate D2E/DX2                !
 ! D95   D(42,40,41,45)       -179.3258         estimate D2E/DX2                !
 ! D96   D(42,40,41,46)        -58.7936         estimate D2E/DX2                !
 ! D97   D(43,40,41,44)        -61.0829         estimate D2E/DX2                !
 ! D98   D(43,40,41,45)         58.3986         estimate D2E/DX2                !
 ! D99   D(43,40,41,46)        178.9308         estimate D2E/DX2                !
 --------------------------------------------------------------------------------
 Trust Radius=3.00D-01 FncErr=1.00D-07 GrdErr=1.00D-06 EigMax=2.50D+02 EigMin=1.00D-04
 Number of steps in this run=    237 maximum allowed number of steps=    276.
 GradGradGradGradGradGradGradGradGradGradGradGradGradGradGradGradGradGrad

 Leave Link  103 at Sat Jun 19 21:34:52 2021, MaxMem=  2147483648 cpu:               0.4 elap:               0.1
 (Enter /SFS/product/gaussian/g16.a03/x86_64/avx/g16/l202.exe)
                          Input orientation:                          
 ---------------------------------------------------------------------
 Center     Atomic      Atomic             Coordinates (Angstroms)
 Number     Number       Type             X           Y           Z
 ---------------------------------------------------------------------
      1          6           0        3.081356   -0.847032    0.560029
      2          6           0        1.684208   -0.868003    0.756116
      3          6           0        1.192350   -0.962794    2.072119
      4          6           0        2.066520   -1.027587    3.155727
      5          6           0        3.445215   -1.012192    2.947337
      6          6           0        3.947433   -0.919951    1.645318
      7          6           0        0.732015   -0.825402   -0.383069
      8          6           0        1.069831   -0.036643   -1.674879
      9          6           0        1.754541   -0.960667   -2.697107
     10          6           0        0.969708   -2.288451   -2.698890
     11          6           0        0.621792   -2.618241   -1.262600
     12          6           0       -0.738226   -2.646548   -0.752313
     13          6           0       -1.926922   -2.447225   -1.635521
     14          8           0       -0.618554   -0.797260   -0.000107
     15         26           0       -1.929632    0.534130    0.420682
     16         17           0       -2.474163    1.498497   -1.496249
     17          6           0       -0.973864   -3.373896    0.530285
     18         17           0       -1.234640    1.913444    1.984702
     19         17           0       -3.594753   -0.721907    1.191169
     20          1           0        0.123986   -0.956998    2.241535
     21          1           0        1.664665   -1.082954    4.163173
     22          1           0        4.126742   -1.064701    3.791836
     23          1           0        5.020003   -0.898392    1.474793
     24          1           0        3.496990   -0.754669   -0.435649
     25          1           0        0.100243    0.284127   -2.071045
     26          6           0        1.883574    1.237134   -1.427609
     27          1           0        1.776910   -0.492446   -3.686520
     28          1           0        2.796589   -1.129042   -2.410735
     29          1           0        0.069731   -2.182912   -3.312839
     30          1           0        1.565450   -3.089592   -3.150725
     31          1           0        1.319049   -3.256392   -0.724684
     32          1           0       -1.117618   -4.434068    0.267648
     33          1           0       -0.110469   -3.314532    1.197447
     34          1           0       -1.873679   -3.020412    1.038147
     35          1           0       -2.073650   -3.391284   -2.184270
     36          1           0       -2.827310   -2.245785   -1.052340
     37          1           0       -1.789125   -1.653700   -2.370725
     38          8           0        1.127551    2.174811   -0.846751
     39          8           0        3.049903    1.377458   -1.733563
     40          6           0        1.768354    3.449601   -0.556514
     41          6           0        0.679639    4.456183   -0.243214
     42          1           0        2.447584    3.296387    0.288346
     43          1           0        2.366488    3.735391   -1.425822
     44          1           0        1.137342    5.425589   -0.015621
     45          1           0        0.008548    4.581873   -1.098482
     46          1           0        0.086084    4.136774    0.617304
 ---------------------------------------------------------------------
                    Distance matrix (angstroms):
                    1          2          3          4          5
     1  C    0.000000
     2  C    1.410997   0.000000
     3  C    2.422429   1.408110   0.000000
     4  C    2.792873   2.435110   1.393764   0.000000
     5  C    2.420519   2.814851   2.417405   1.394440   0.000000
     6  C    1.390417   2.432194   2.788275   2.414696   1.398565
     7  C    2.531660   1.485338   2.501746   3.787461   4.299761
     8  C    3.114125   2.641658   3.861704   5.030916   5.287630
     9  C    3.518847   3.455182   4.802247   5.861525   5.892434
    10  C    4.142137   3.803321   4.956759   6.088458   6.295780
    11  C    3.536752   2.875287   3.766483   4.913149   5.317394
    12  C    4.421505   3.362554   3.813078   5.075472   5.818910
    13  C    5.697711   4.610220   5.067543   6.396797   7.205676
    14  O    3.742401   2.424787   2.756972   4.149935   5.024723
    15  Fe   5.199714   3.890801   3.835987   5.088090   6.137107
    16  Cl   6.371309   5.288244   5.677545   6.974223   7.815885
    17  C    4.778152   3.660034   3.589310   4.652101   5.563097
    18  Cl   5.317682   4.214919   3.764395   4.573688   5.602415
    19  Cl   6.707043   5.298872   4.873444   6.000245   7.261511
    20  H    3.403761   2.156080   1.081729   2.148061   3.395845
    21  H    3.878830   3.413887   2.147097   1.086048   2.157226
    22  H    3.403643   3.901315   3.402715   2.156508   1.086469
    23  H    2.144244   3.412470   3.874516   3.400778   2.159003
    24  H    1.082893   2.172401   3.412269   3.875398   3.393169
    25  H    4.133897   3.439359   4.462434   5.736374   6.168747
    26  C    3.119156   3.039737   4.191130   5.115604   5.161235
    27  H    4.456511   4.459445   5.807311   6.869250   6.860134
    28  H    2.997676   3.366672   4.764158   5.615051   5.398454
    29  H    5.084640   4.570768   5.634424   6.867626   7.207932
    30  H    4.593119   4.495883   5.651599   6.653892   6.710847
    31  H    3.249804   2.833816   3.619220   4.536945   4.800079
    32  H    5.530253   4.561321   4.543326   5.484874   6.301541
    33  H    4.084434   3.066128   2.827200   3.715408   4.583206
    34  H    5.431809   4.167849   3.834504   4.897006   5.997382
    35  H    6.370124   5.397621   5.889072   7.158466   7.902616
    36  H    6.282402   5.051989   5.250331   6.568212   7.540805
    37  H    5.741221   4.739040   5.394943   6.767547   7.489435
    38  O    3.863667   3.483930   4.285857   5.211223   5.470252
    39  O    3.195295   3.620182   4.838440   5.536826   5.270439
    40  C    4.629438   4.513511   5.168242   5.823646   5.915778
    41  C    5.876864   5.509517   5.915146   6.599089   6.908774
    42  H    4.200405   4.259542   4.785194   5.202291   5.160364
    43  H    5.045121   5.139805   5.973871   6.615628   6.544289
    44  H    6.592142   6.364271   6.721095   7.250124   7.453216
    45  H    6.454906   5.995708   6.495955   7.334820   7.711867
    46  H    5.814917   5.255574   5.417186   6.085749   6.574547
                    6          7          8          9         10
     6  C    0.000000
     7  C    3.802921   0.000000
     8  C    4.481577   1.550817   0.000000
     9  C    4.864883   2.533501   1.538700   0.000000
    10  C    5.441671   2.749552   2.475735   1.542393   0.000000
    11  C    4.732871   1.999999   2.652426   2.467485   1.514178
    12  C    5.539420   2.369498   3.306328   3.583058   2.614275
    13  C    6.899603   3.356917   3.846165   4.109743   3.089729
    14  O    4.854968   1.404097   2.496807   3.596122   3.468380
    15  Fe   6.176891   3.094949   3.703233   5.052540   5.109292
    16  Cl   7.546869   4.113302   3.866323   5.037012   5.258095
    17  C    5.611088   3.199853   4.491848   4.866614   3.922147
    18  Cl   5.915842   4.120115   4.744045   6.254203   6.667166
    19  Cl   7.558442   4.605416   5.517442   6.617450   6.198461
    20  H    3.869831   2.697325   4.132793   5.200856   5.186117
    21  H    3.402528   4.648063   5.960826   6.861958   7.001721
    22  H    2.158852   5.386211   6.347171   6.909743   7.320789
    23  H    1.086255   4.673737   5.125125   5.298289   5.979698
    24  H    2.135566   2.766379   2.818218   2.862299   3.723157
    25  H    5.482885   2.116472   1.095419   2.162907   2.787170
    26  C    4.284321   2.582868   1.531610   2.541378   3.857597
    27  H    5.772558   3.480726   2.180462   1.094838   2.202867
    28  H    4.221342   2.909655   2.171753   1.093720   2.182832
    29  H    6.419888   3.296211   2.879164   2.170621   1.094546
    30  H    5.777821   3.671660   3.426990   2.184913   1.095851
    31  H    4.240786   2.524088   3.366269   3.057852   2.226306
    32  H    6.316782   4.106951   5.281637   5.394774   4.214374
    33  H    4.732988   3.066525   4.515299   4.917977   4.171459
    34  H    6.218194   3.691553   4.992759   5.599880   4.752480
    35  H    7.551601   4.207117   4.625426   4.563545   3.277667
    36  H    7.411635   3.890271   4.522784   5.034893   4.138876
    37  H    7.040958   3.315569   3.357485   3.625519   2.849870
    38  O    4.872340   3.061491   2.362130   3.694341   4.834878
    39  O    4.183358   3.471171   2.433888   2.841339   4.324113
    40  C    5.356252   4.402242   3.727274   4.902325   6.176799
    41  C    6.568702   5.283696   4.731533   6.043117   7.183632
    42  H    4.676369   4.514767   4.106281   5.245545   6.503700
    43  H    5.796852   4.955771   3.996447   4.903428   6.313348
    44  H    7.135910   6.274886   5.709087   6.953817   8.169115
    45  H    7.301597   5.502167   4.773808   6.026927   7.119444
    46  H    6.444943   5.103054   4.862023   6.304996   7.284329
                   11         12         13         14         15
    11  C    0.000000
    12  C    1.452874   0.000000
    13  C    2.581523   1.494250   0.000000
    14  O    2.539354   2.000000   2.666231   0.000000
    15  Fe   4.390973   3.593338   3.621665   1.915356   0.000000
    16  Cl   5.156264   4.555032   3.985924   3.309415   2.213852
    17  C    2.516261   1.493191   2.541211   2.654546   4.024695
    18  Cl   5.876009   5.341461   5.709703   3.415691   2.198108
    19  Cl   5.234149   3.954885   3.707905   3.206646   2.223490
    20  H    3.909796   3.544166   4.632339   2.366821   3.123510
    21  H    5.734431   5.690405   6.955975   4.756849   5.435087
    22  H    6.343933   6.842474   8.247086   6.080147   7.113410
    23  H    5.458522   6.416639   7.767413   5.829141   7.173611
    24  H    3.524700   4.649359   5.807173   4.138745   5.642919
    25  H    3.057669   3.321286   3.429193   2.444351   3.223600
    26  C    4.059955   4.734221   5.304489   3.526637   4.295455
    27  H    3.424718   4.424436   4.663275   4.406904   5.626848
    28  H    2.875008   4.189046   4.964889   4.193377   5.755018
    29  H    2.167432   2.724710   2.621046   3.656222   5.031794
    30  H    2.162794   3.354935   3.860718   4.466660   6.172674
    31  H    1.087547   2.145939   3.467089   3.213510   5.121899
    32  H    2.943541   2.092722   2.867851   3.680643   5.036445
    33  H    2.659485   2.154494   3.475260   2.833539   4.327230
    34  H    3.417975   2.152853   2.734937   2.756032   3.608208
    35  H    2.951691   2.094872   1.101772   3.690099   4.713321
    36  H    3.475520   2.148232   1.091502   2.843241   3.271628
    37  H    2.823261   2.170114   1.090502   2.779129   3.549408
    38  O    4.837569   5.170643   5.595997   3.549492   3.693858
    39  O    4.699270   5.612967   6.277468   4.603460   5.490696
    40  C    6.215454   6.594264   7.042150   4.903340   4.809364
    41  C    7.147725   7.260738   7.509309   5.416924   4.757263
    42  H    6.381361   6.822817   7.471723   5.122729   5.177605
    43  H    6.590846   7.128956   7.530079   5.611423   5.666948
    44  H    8.156222   8.319848   8.602034   6.465853   5.789910
    45  H    7.228046   7.275134   7.310450   5.525826   4.737998
    46  H    7.032158   6.969132   7.244064   5.022191   4.132894
                   16         17         18         19         20
    16  Cl   0.000000
    17  C    5.486160   0.000000
    18  Cl   3.718282   5.489927   0.000000
    19  Cl   3.661712   3.786670   3.625590   0.000000
    20  H    5.172124   3.158330   3.186105   3.871377   0.000000
    21  H    7.471469   5.040647   4.704265   6.051830   2.466222
    22  H    8.837747   6.479682   6.393708   8.154904   4.293843
    23  H    8.410392   6.553370   6.876553   8.621230   4.956038
    24  H    6.469644   5.270855   5.946869   7.276017   4.311080
    25  H    2.903903   4.615383   4.570084   5.030620   4.487683
    26  C    4.366107   5.767140   4.671672   6.380275   4.623092
    27  H    5.180035   5.800944   6.857149   7.259426   6.171694
    28  H    5.959956   5.282545   6.695326   7.347702   5.368056
    29  H    4.829510   4.156577   6.822423   5.987409   5.688311
    30  H    6.332955   4.480935   7.696979   7.147424   5.975135
    31  H    6.131292   2.616525   6.370974   5.851458   3.938762
    32  H    6.336156   1.101639   6.576692   4.557327   4.186625
    33  H    6.000691   1.092740   5.405115   4.343038   2.589026
    34  H    5.215772   1.092036   5.064314   2.875524   3.113918
    35  H    4.954164   2.928932   6.798853   4.564309   5.508457
    36  H    3.787006   2.685628   5.390678   2.818600   4.606597
    37  H    3.342205   3.469810   5.657006   4.100685   5.041659
    38  O    3.721773   6.091003   3.696672   5.902902   4.511417
    39  O    5.530486   6.625034   5.698253   7.557304   5.460044
    40  C    4.763282   7.433774   4.223213   7.015611   5.472763
    41  C    4.501608   8.040057   3.885048   6.865894   5.982078
    42  H    5.535412   7.500501   4.283565   7.312429   5.225451
    43  H    5.332969   8.094830   5.283871   7.890028   6.363713
    44  H    5.536902   9.065657   4.686444   7.851164   6.845368
    45  H    3.978603   8.179992   4.262869   6.808551   6.469013
    46  H    4.240575   7.585593   2.925284   6.122472   5.346595
                   21         22         23         24         25
    21  H    0.000000
    22  H    2.489989   0.000000
    23  H    4.303457   2.488827   0.000000
    24  H    4.961285   4.285363   2.447450   0.000000
    25  H    6.571286   7.239158   6.178621   3.910436   0.000000
    26  C    6.057027   6.129670   4.777195   2.748522   2.121910
    27  H    7.872673   7.859707   6.109140   3.687221   2.454391
    28  H    6.670805   6.343921   4.482644   2.128775   3.063122
    29  H    7.722984   8.257490   7.005470   4.697255   2.762112
    30  H    7.584823   7.671998   6.175007   4.068704   3.833343
    31  H    5.360450   5.752009   4.908658   3.329502   3.979127
    32  H    5.843473   7.160716   7.185304   5.943670   5.405001
    33  H    4.114192   5.454040   5.677710   4.715258   4.865983
    34  H    5.102882   6.885685   7.226097   6.012466   4.948072
    35  H    7.719677   8.920297   8.362007   6.406360   4.271683
    36  H    6.980802   8.556859   8.353574   6.526906   4.001097
    37  H    7.412573   8.562801   7.856381   5.700508   2.722993
    38  O    6.000072   6.403599   5.475886   3.790132   2.475670
    39  O    6.537890   6.136266   4.399356   2.535830   3.163821
    40  C    6.544483   6.696944   5.796936   4.547381   3.885437
    41  C    7.146227   7.657957   7.103646   5.926844   4.591592
    42  H    5.899650   5.840642   5.061736   4.246937   4.488925
    43  H    7.412548   7.305021   6.076731   4.734883   4.178924
    44  H    7.752517   8.096734   7.568958   6.628722   5.633380
    45  H    7.906833   8.529861   7.859372   6.409934   4.407370
    46  H    6.504665   7.311629   7.101531   6.055510   4.697905
                   26         27         28         29         30
    26  C    0.000000
    27  H    2.847017   0.000000
    28  H    2.720096   1.752891   0.000000
    29  H    4.305907   2.431414   3.059442   0.000000
    30  H    4.668071   2.660255   2.430441   1.756566   0.000000
    31  H    4.583074   4.076948   3.090552   3.067850   2.444220
    32  H    6.636534   6.288889   5.780826   4.392879   4.548818
    33  H    5.620035   5.948067   5.123117   4.653570   4.665394
    34  H    6.190606   6.483818   6.106019   4.838319   5.420244
    35  H    6.136319   5.048448   5.374779   2.707012   3.777314
    36  H    5.870603   5.586765   5.892418   3.675140   4.940807
    37  H    4.768135   3.974473   4.615803   2.150114   3.731402
    38  O    1.337238   3.949711   4.018355   5.117648   5.763158
    39  O    1.213928   2.988493   2.608692   4.904261   4.915942
    40  C    2.380566   5.033562   5.045728   6.496757   7.037908
    41  C    3.635179   6.127747   6.354082   7.339766   8.134925
    42  H    2.739185   5.532144   5.195312   6.974628   7.306579
    43  H    2.544503   4.830421   4.981742   6.622857   7.085008
    44  H    4.482603   6.993403   7.173065   8.360665   9.084077
    45  H    3.848549   5.964374   6.489201   7.118247   8.092405
    46  H    3.977506   6.543048   6.651667   7.442091   8.282930
                   31         32         33         34         35
    31  H    0.000000
    32  H    2.882532   0.000000
    33  H    2.396141   1.769812   0.000000
    34  H    3.654692   1.778685   1.794657   0.000000
    35  H    3.695808   2.830777   3.911008   3.249847   0.000000
    36  H    4.280301   3.074735   3.685782   2.424788   1.778043
    37  H    3.865077   3.891321   4.278797   3.673617   1.770570
    38  O    5.435949   7.068235   5.987013   6.288924   6.558815
    39  O    5.048392   7.426097   6.371306   7.159979   7.013903
    40  C    6.723132   8.435657   7.236011   7.593972   8.013008
    41  C    7.753997   9.084474   7.942530   8.003799   8.539967
    42  H    6.725975   8.512992   7.146632   7.690089   8.442768
    43  H    7.104488   9.041399   7.919487   8.348116   8.430870
    44  H    8.712783  10.118198   8.911694   9.028378   9.630719
    45  H    7.955849   9.188131   8.224273   8.118048   8.311782
    46  H    7.614462   8.662014   7.476440   7.432570   8.317748
                   36         37         38         39         40
    36  H    0.000000
    37  H    1.779475   0.000000
    38  O    5.935054   5.048464   0.000000
    39  O    6.937837   5.745440   2.262221   0.000000
    40  C    7.335080   6.480023   1.456007   2.705843   0.000000
    41  C    7.607217   6.924722   2.401987   4.161471   1.515475
    42  H    7.767729   7.037309   2.070958   2.851875   1.094813
    43  H    7.930290   6.870536   2.075018   2.474188   1.093223
    44  H    8.697312   8.014178   3.355358   4.795475   2.143658
    45  H    7.393317   6.613063   2.666362   4.463344   2.161640
    46  H    7.211979   6.780436   2.660340   4.682374   2.163351
                   41         42         43         44         45
    41  C    0.000000
    42  H    2.180209   0.000000
    43  H    2.182559   1.771348   0.000000
    44  H    1.095919   2.518458   2.521158   0.000000
    45  H    1.094369   3.086205   2.526572   1.777251   0.000000
    46  H    1.093079   2.528072   3.087995   1.779545   1.774274
                   46
    46  H    0.000000
 Stoichiometry    C17H22Cl3FeO3(6)
 Framework group  C1[X(C17H22Cl3FeO3)]
 Deg. of freedom   132
 Full point group                 C1      NOp   1
 Largest Abelian subgroup         C1      NOp   1
 Largest concise Abelian subgroup C1      NOp   1
                         Standard orientation:                         
 ---------------------------------------------------------------------
 Center     Atomic      Atomic             Coordinates (Angstroms)
 Number     Number       Type             X           Y           Z
 ---------------------------------------------------------------------
      1          6           0        3.081356   -0.847032    0.560029
      2          6           0        1.684208   -0.868003    0.756116
      3          6           0        1.192350   -0.962794    2.072119
      4          6           0        2.066520   -1.027587    3.155727
      5          6           0        3.445215   -1.012192    2.947337
      6          6           0        3.947433   -0.919951    1.645318
      7          6           0        0.732015   -0.825402   -0.383069
      8          6           0        1.069831   -0.036643   -1.674879
      9          6           0        1.754541   -0.960667   -2.697107
     10          6           0        0.969708   -2.288451   -2.698890
     11          6           0        0.621792   -2.618241   -1.262600
     12          6           0       -0.738226   -2.646548   -0.752313
     13          6           0       -1.926922   -2.447225   -1.635521
     14          8           0       -0.618554   -0.797260   -0.000107
     15         26           0       -1.929632    0.534130    0.420682
     16         17           0       -2.474163    1.498497   -1.496249
     17          6           0       -0.973864   -3.373896    0.530285
     18         17           0       -1.234640    1.913444    1.984702
     19         17           0       -3.594753   -0.721907    1.191169
     20          1           0        0.123986   -0.956998    2.241535
     21          1           0        1.664665   -1.082954    4.163173
     22          1           0        4.126742   -1.064701    3.791836
     23          1           0        5.020003   -0.898392    1.474793
     24          1           0        3.496990   -0.754669   -0.435649
     25          1           0        0.100243    0.284127   -2.071045
     26          6           0        1.883574    1.237134   -1.427609
     27          1           0        1.776910   -0.492446   -3.686520
     28          1           0        2.796589   -1.129042   -2.410735
     29          1           0        0.069731   -2.182912   -3.312839
     30          1           0        1.565450   -3.089592   -3.150725
     31          1           0        1.319049   -3.256392   -0.724684
     32          1           0       -1.117618   -4.434068    0.267648
     33          1           0       -0.110469   -3.314532    1.197447
     34          1           0       -1.873679   -3.020412    1.038147
     35          1           0       -2.073650   -3.391284   -2.184270
     36          1           0       -2.827310   -2.245785   -1.052340
     37          1           0       -1.789125   -1.653700   -2.370725
     38          8           0        1.127551    2.174811   -0.846751
     39          8           0        3.049903    1.377458   -1.733563
     40          6           0        1.768354    3.449601   -0.556514
     41          6           0        0.679639    4.456183   -0.243214
     42          1           0        2.447584    3.296387    0.288346
     43          1           0        2.366488    3.735391   -1.425822
     44          1           0        1.137342    5.425589   -0.015621
     45          1           0        0.008548    4.581873   -1.098482
     46          1           0        0.086084    4.136774    0.617304
 ---------------------------------------------------------------------
 Rotational constants (GHZ):           0.2009767           0.1667160           0.1471378
 Leave Link  202 at Sat Jun 19 21:34:52 2021, MaxMem=  2147483648 cpu:               0.3 elap:               0.1
 (Enter /SFS/product/gaussian/g16.a03/x86_64/avx/g16/l301.exe)
 Standard basis: Jul-CC-pVDZ (5D, 7F)
 Ernie: Thresh=  0.10000D-02 Tol=  0.10000D-05 Strict=F.
 Ernie:  134 primitive shells out of 958 were deleted.
 There are   766 symmetry adapted cartesian basis functions of A   symmetry.
 There are   710 symmetry adapted basis functions of A   symmetry.
   710 basis functions,  1571 primitive gaussians,   766 cartesian basis functions
   115 alpha electrons      110 beta electrons
       nuclear repulsion energy      3373.4589248765 Hartrees.
 IExCor=  402 DFT=T Ex+Corr=B3LYP ExCW=0 ScaHFX=  0.200000
 ScaDFX=  0.800000  0.720000  1.000000  0.810000 ScalE2=  1.000000  1.000000
 IRadAn=      5 IRanWt=     -1 IRanGd=            0 ICorTp=0 IEmpDi=  4
 NAtoms=   46 NActive=   46 NUniq=   46 SFac= 1.00D+00 NAtFMM=   60 NAOKFM=F Big=F
 Integral buffers will be    131072 words long.
 Raffenetti 2 integral format.
 Two-electron integral symmetry is turned on.
 Leave Link  301 at Sat Jun 19 21:34:52 2021, MaxMem=  2147483648 cpu:               1.3 elap:               0.1
 (Enter /SFS/product/gaussian/g16.a03/x86_64/avx/g16/l302.exe)
 NPDir=0 NMtPBC=     1 NCelOv=     1 NCel=       1 NClECP=     1 NCelD=      1
         NCelK=      1 NCelE2=     1 NClLst=     1 CellRange=     0.0.
 One-electron integrals computed using PRISM.
 One-electron integral symmetry used in STVInt
 NBasis=   710 RedAO= T EigKep=  1.96D-06  NBF=   710
 NBsUse=   710 1.00D-06 EigRej= -1.00D+00 NBFU=   710
 Precomputing XC quadrature grid using
 IXCGrd= 4 IRadAn=           5 IRanWt=          -1 IRanGd=           0 AccXCQ= 0.00D+00.
 Generated NRdTot=       0 NPtTot=           0 NUsed=           0 NTot=          32
 NSgBfM=   764   764   764   764   764 MxSgAt=    46 MxSgA2=    46.
 Leave Link  302 at Sat Jun 19 21:34:53 2021, MaxMem=  2147483648 cpu:              18.9 elap:               1.2
 (Enter /SFS/product/gaussian/g16.a03/x86_64/avx/g16/l303.exe)
 DipDrv:  MaxL=1.
 Leave Link  303 at Sat Jun 19 21:34:54 2021, MaxMem=  2147483648 cpu:               3.8 elap:               0.3
 (Enter /SFS/product/gaussian/g16.a03/x86_64/avx/g16/l401.exe)
 ExpMin= 1.40D-02 ExpMax= 4.32D+06 ExpMxC= 4.91D+03 IAcc=3 IRadAn=         5 AccDes= 0.00D+00
 Harris functional with IExCor=  402 and IRadAn=       5 diagonalized for initial guess.
 HarFok:  IExCor=  402 AccDes= 0.00D+00 IRadAn=         5 IDoV= 1 UseB2=F ITyADJ=14
 ICtDFT=  3500011 ScaDFX=  1.000000  1.000000  1.000000  1.000000
 FoFCou: FMM=F IPFlag=           0 FMFlag=      100000 FMFlg1=           0
         NFxFlg=           0 DoJE=T BraDBF=F KetDBF=T FulRan=T
         wScrn=  0.000000 ICntrl=       500 IOpCl=  0 I1Cent=   200000004 NGrid=           0
         NMat0=    1 NMatS0=      1 NMatT0=    0 NMatD0=    1 NMtDS0=    0 NMtDT0=    0
 Petite list used in FoFCou.
 Harris En= -3531.06590056703    
 JPrj=0 DoOrth=F DoCkMO=F.
 Initial guess <Sx>= 0.0000 <Sy>= 0.0000 <Sz>= 2.5000 <S**2>= 8.7500 S= 2.5000
 Leave Link  401 at Sat Jun 19 21:35:01 2021, MaxMem=  2147483648 cpu:             117.7 elap:               7.4
 (Enter /SFS/product/gaussian/g16.a03/x86_64/avx/g16/l502.exe)
 Integral symmetry usage will be decided dynamically.
 UHF open shell SCF:
 Using DIIS extrapolation, IDIIS=  1040.
 NGot=  2147483648 LenX=  2146290678 LenY=  2145703156
 Requested convergence on RMS density matrix=1.00D-08 within 128 cycles.
 Requested convergence on MAX density matrix=1.00D-06.
 Requested convergence on             energy=1.00D-06.
 No special actions if energy rises.
 Fock matrices will be formed incrementally for  20 cycles.

 Cycle   1  Pass 1  IDiag  1:
 FoFJK:  IHMeth= 1 ICntrl=       0 DoSepK=F KAlg= 0 I1Cent=           0 FoldK=F
 IRaf= 920000000 NMat=       1 IRICut=       1 DoRegI=T DoRafI=F ISym2E= 0 IDoP0=0 IntGTp=1.
 FoFCou: FMM=F IPFlag=           0 FMFlag=      100000 FMFlg1=           0
         NFxFlg=           0 DoJE=F BraDBF=F KetDBF=F FulRan=T
         wScrn=  0.000000 ICntrl=         0 IOpCl=  1 I1Cent=           0 NGrid=           0
         NMat0=    1 NMatS0=      1 NMatT0=    0 NMatD0=    1 NMtDS0=    0 NMtDT0=    0
 Symmetry not used in FoFCou.
 E= -3530.32178587238    
 DIIS: error= 2.02D-02 at cycle   1 NSaved=   1.
 NSaved= 1 IEnMin= 1 EnMin= -3530.32178587238     IErMin= 1 ErrMin= 2.02D-02
 ErrMax= 2.02D-02  0.00D+00 EMaxC= 1.00D-01 BMatC= 4.52D+00 BMatP= 4.52D+00
 IDIUse=3 WtCom= 7.98D-01 WtEn= 2.02D-01
 Coeff-Com:  0.100D+01
 Coeff-En:   0.100D+01
 Coeff:      0.100D+01
 Gap=     0.130 Goal=   None    Shift=    0.000
 Gap=    -0.093 Goal=   None    Shift=    0.000
 GapD=   -0.093 DampG=0.250 DampE=0.250 DampFc=0.1250 IDamp=-1.
 Damping current iteration by 1.25D-01
 RMSDP=3.50D-02 MaxDP=9.08D+00              OVMax= 7.94D-01

 Cycle   2  Pass 1  IDiag  1:
 RMSU=  2.44D-03    CP:  9.51D-01
 E= -3530.62732166467     Delta-E=       -0.305535792291 Rises=F Damp=T
 DIIS: error= 8.38D-03 at cycle   2 NSaved=   2.
 NSaved= 2 IEnMin= 2 EnMin= -3530.62732166467     IErMin= 2 ErrMin= 8.38D-03
 ErrMax= 8.38D-03  0.00D+00 EMaxC= 1.00D-01 BMatC= 1.21D+00 BMatP= 4.52D+00
 IDIUse=3 WtCom= 9.16D-01 WtEn= 8.38D-02
 Coeff-Com: -0.385D+00 0.139D+01
 Coeff-En:   0.320D-01 0.968D+00
 Coeff:     -0.350D+00 0.135D+01
 Gap=    -0.035 Goal=   None    Shift=    0.000
 Gap=     0.013 Goal=   None    Shift=    0.000
 RMSDP=2.67D-02 MaxDP=7.85D+00 DE=-3.06D-01 OVMax= 9.44D-01

 Cycle   3  Pass 1  IDiag  1:
 RMSU=  7.74D-03    CP:  6.05D-01  2.19D+00
 E= -3529.97332187711     Delta-E=        0.653999787553 Rises=F Damp=F
 DIIS: error= 3.08D-02 at cycle   3 NSaved=   3.
 NSaved= 3 IEnMin= 2 EnMin= -3530.62732166467     IErMin= 2 ErrMin= 8.38D-03
 ErrMax= 3.08D-02  0.00D+00 EMaxC= 1.00D-01 BMatC= 6.10D+00 BMatP= 1.21D+00
 IDIUse=2 WtCom= 0.00D+00 WtEn= 1.00D+00
 Coeff-En:   0.000D+00 0.738D+00 0.262D+00
 Coeff:      0.000D+00 0.738D+00 0.262D+00
 Gap=    -0.278 Goal=   None    Shift=    0.000
 Gap=     0.179 Goal=   None    Shift=    0.000
 RMSDP=7.47D-03 MaxDP=7.35D-01 DE= 6.54D-01 OVMax= 7.73D-01

 Cycle   4  Pass 1  IDiag  1:
 RMSU=  5.33D-03    CP:  6.20D-01  3.00D+00  5.02D-01
 E= -3521.79381658830     Delta-E=        8.179505288812 Rises=F Damp=F
 DIIS: error= 1.07D-01 at cycle   4 NSaved=   4.
 NSaved= 4 IEnMin= 2 EnMin= -3530.62732166467     IErMin= 2 ErrMin= 8.38D-03
 ErrMax= 1.07D-01  0.00D+00 EMaxC= 1.00D-01 BMatC= 4.69D+01 BMatP= 1.21D+00
 IDIUse=2 WtCom= 0.00D+00 WtEn= 1.00D+00
 EnCoef did   100 forward-backward iterations
 Coeff-En:   0.364D+00 0.230D-01 0.424D+00 0.189D+00
 Coeff:      0.364D+00 0.230D-01 0.424D+00 0.189D+00
 Gap=     0.108 Goal=   None    Shift=    0.000
 Gap=     0.038 Goal=   None    Shift=    0.000
 RMSDP=5.32D-03 MaxDP=5.18D-01 DE= 8.18D+00 OVMax= 9.65D-01

 Cycle   5  Pass 1  IDiag  1:
 RMSU=  3.44D-03    CP:  6.30D-01  2.33D+00  6.50D-01  5.52D-01
 E= -3530.68054174168     Delta-E=       -8.886725153374 Rises=F Damp=F
 DIIS: error= 2.74D-02 at cycle   5 NSaved=   5.
 NSaved= 5 IEnMin= 5 EnMin= -3530.68054174168     IErMin= 2 ErrMin= 8.38D-03
 ErrMax= 2.74D-02  0.00D+00 EMaxC= 1.00D-01 BMatC= 4.51D+00 BMatP= 1.21D+00
 IDIUse=2 WtCom= 0.00D+00 WtEn= 1.00D+00
 Coeff-En:   0.000D+00 0.000D+00 0.387D+00 0.000D+00 0.613D+00
 Coeff:      0.000D+00 0.000D+00 0.387D+00 0.000D+00 0.613D+00
 Gap=     0.120 Goal=   None    Shift=    0.000
 Gap=     0.100 Goal=   None    Shift=    0.000
 RMSDP=4.35D-03 MaxDP=7.40D-01 DE=-8.89D+00 OVMax= 3.98D-01

 Cycle   6  Pass 1  IDiag  1:
 RMSU=  2.85D-03    CP:  6.58D-01  1.72D+00  6.76D-01  3.07D-01  5.42D-01
 E= -3531.14694527324     Delta-E=       -0.466403531567 Rises=F Damp=F
 DIIS: error= 1.53D-02 at cycle   6 NSaved=   6.
 NSaved= 6 IEnMin= 6 EnMin= -3531.14694527324     IErMin= 2 ErrMin= 8.38D-03
 ErrMax= 1.53D-02  0.00D+00 EMaxC= 1.00D-01 BMatC= 1.25D+00 BMatP= 1.21D+00
 IDIUse=3 WtCom= 8.47D-01 WtEn= 1.53D-01
 Coeff-Com: -0.364D+00 0.670D+00 0.226D+00-0.109D-02 0.178D+00 0.291D+00
 Coeff-En:   0.000D+00 0.000D+00 0.000D+00 0.000D+00 0.321D+00 0.679D+00
 Coeff:     -0.308D+00 0.567D+00 0.192D+00-0.920D-03 0.200D+00 0.350D+00
 Gap=     0.120 Goal=   None    Shift=    0.000
 Gap=     0.145 Goal=   None    Shift=    0.000
 RMSDP=3.37D-03 MaxDP=5.88D-01 DE=-4.66D-01 OVMax= 1.70D-01

 Cycle   7  Pass 1  IDiag  1:
 RMSU=  1.40D-03    CP:  6.38D-01  2.05D+00  6.98D-01  4.15D-01  7.61D-01
                    CP:  1.67D-01
 E= -3531.34510693329     Delta-E=       -0.198161660046 Rises=F Damp=F
 DIIS: error= 3.86D-03 at cycle   7 NSaved=   7.
 NSaved= 7 IEnMin= 7 EnMin= -3531.34510693329     IErMin= 7 ErrMin= 3.86D-03
 ErrMax= 3.86D-03  0.00D+00 EMaxC= 1.00D-01 BMatC= 1.98D-01 BMatP= 1.21D+00
 IDIUse=3 WtCom= 9.61D-01 WtEn= 3.86D-02
 Coeff-Com: -0.137D+00 0.193D+00 0.276D-01 0.849D-02-0.444D-01 0.274D+00
 Coeff-Com:  0.677D+00
 Coeff-En:   0.000D+00 0.000D+00 0.000D+00 0.000D+00 0.000D+00 0.210D+00
 Coeff-En:   0.790D+00
 Coeff:     -0.131D+00 0.186D+00 0.265D-01 0.817D-02-0.427D-01 0.272D+00
 Coeff:      0.681D+00
 Gap=     0.125 Goal=   None    Shift=    0.000
 Gap=     0.147 Goal=   None    Shift=    0.000
 RMSDP=1.24D-03 MaxDP=1.81D-01 DE=-1.98D-01 OVMax= 8.06D-02

 Cycle   8  Pass 1  IDiag  1:
 RMSU=  8.05D-04    CP:  6.41D-01  1.99D+00  7.02D-01  3.99D-01  6.95D-01
                    CP:  4.50D-01  7.38D-01
 E= -3531.38343303970     Delta-E=       -0.038326106410 Rises=F Damp=F
 DIIS: error= 2.93D-03 at cycle   8 NSaved=   8.
 NSaved= 8 IEnMin= 8 EnMin= -3531.38343303970     IErMin= 8 ErrMin= 2.93D-03
 ErrMax= 2.93D-03  0.00D+00 EMaxC= 1.00D-01 BMatC= 5.37D-02 BMatP= 1.98D-01
 IDIUse=3 WtCom= 9.71D-01 WtEn= 2.93D-02
 Coeff-Com: -0.798D-01 0.110D+00 0.209D-02 0.740D-02-0.425D-01 0.117D+00
 Coeff-Com:  0.442D+00 0.444D+00
 Coeff-En:   0.000D+00 0.000D+00 0.000D+00 0.000D+00 0.000D+00 0.000D+00
 Coeff-En:   0.175D+00 0.825D+00
 Coeff:     -0.774D-01 0.107D+00 0.203D-02 0.718D-02-0.412D-01 0.113D+00
 Coeff:      0.434D+00 0.455D+00
 Gap=     0.121 Goal=   None    Shift=    0.000
 Gap=     0.126 Goal=   None    Shift=    0.000
 RMSDP=4.57D-04 MaxDP=3.95D-02 DE=-3.83D-02 OVMax= 2.22D-02

 Cycle   9  Pass 1  IDiag  1:
 RMSU=  3.40D-04    CP:  6.43D-01  1.98D+00  6.93D-01  4.05D-01  6.87D-01
                    CP:  4.60D-01  8.57D-01  7.55D-01
 E= -3531.39030613269     Delta-E=       -0.006873092995 Rises=F Damp=F
 DIIS: error= 1.93D-03 at cycle   9 NSaved=   9.
 NSaved= 9 IEnMin= 9 EnMin= -3531.39030613269     IErMin= 9 ErrMin= 1.93D-03
 ErrMax= 1.93D-03  0.00D+00 EMaxC= 1.00D-01 BMatC= 1.86D-02 BMatP= 5.37D-02
 IDIUse=3 WtCom= 9.81D-01 WtEn= 1.93D-02
 Coeff-Com: -0.296D-01 0.455D-01-0.490D-02 0.159D-02 0.113D-01-0.539D-01
 Coeff-Com:  0.106D-01 0.232D+00 0.787D+00
 Coeff-En:   0.000D+00 0.000D+00 0.000D+00 0.000D+00 0.000D+00 0.000D+00
 Coeff-En:   0.000D+00 0.134D-01 0.987D+00
 Coeff:     -0.290D-01 0.447D-01-0.480D-02 0.156D-02 0.110D-01-0.529D-01
 Coeff:      0.104D-01 0.228D+00 0.791D+00
 Gap=     0.126 Goal=   None    Shift=    0.000
 Gap=     0.123 Goal=   None    Shift=    0.000
 RMSDP=3.22D-04 MaxDP=3.17D-02 DE=-6.87D-03 OVMax= 1.45D-02

 Cycle  10  Pass 1  IDiag  1:
 RMSU=  2.61D-04    CP:  6.43D-01  2.00D+00  6.81D-01  4.17D-01  7.08D-01
                    CP:  4.41D-01  9.09D-01  8.01D-01  1.10D+00
 E= -3531.39334088699     Delta-E=       -0.003034754293 Rises=F Damp=F
 DIIS: error= 6.05D-04 at cycle  10 NSaved=  10.
 NSaved=10 IEnMin=10 EnMin= -3531.39334088699     IErMin=10 ErrMin= 6.05D-04
 ErrMax= 6.05D-04  0.00D+00 EMaxC= 1.00D-01 BMatC= 2.99D-03 BMatP= 1.86D-02
 IDIUse=3 WtCom= 9.94D-01 WtEn= 6.05D-03
 Coeff-Com: -0.104D-02 0.285D-02-0.530D-02 0.963D-04 0.221D-01-0.598D-01
 Coeff-Com: -0.850D-01 0.437D-01 0.539D+00 0.544D+00
 Coeff-En:   0.000D+00 0.000D+00 0.000D+00 0.000D+00 0.000D+00 0.000D+00
 Coeff-En:   0.000D+00 0.000D+00 0.000D+00 0.100D+01
 Coeff:     -0.103D-02 0.283D-02-0.527D-02 0.957D-04 0.220D-01-0.594D-01
 Coeff:     -0.845D-01 0.434D-01 0.535D+00 0.546D+00
 Gap=     0.127 Goal=   None    Shift=    0.000
 Gap=     0.121 Goal=   None    Shift=    0.000
 RMSDP=1.67D-04 MaxDP=3.32D-02 DE=-3.03D-03 OVMax= 8.90D-03

 Cycle  11  Pass 1  IDiag  1:
 RMSU=  1.14D-04    CP:  6.44D-01  2.01D+00  6.80D-01  4.20D-01  7.03D-01
                    CP:  4.51D-01  8.84D-01  8.86D-01  1.21D+00  8.28D-01
 E= -3531.39389190644     Delta-E=       -0.000551019457 Rises=F Damp=F
 DIIS: error= 1.72D-04 at cycle  11 NSaved=  11.
 NSaved=11 IEnMin=11 EnMin= -3531.39389190644     IErMin=11 ErrMin= 1.72D-04
 ErrMax= 1.72D-04  0.00D+00 EMaxC= 1.00D-01 BMatC= 2.88D-04 BMatP= 2.99D-03
 IDIUse=3 WtCom= 9.98D-01 WtEn= 1.72D-03
 Coeff-Com:  0.220D-02-0.129D-02-0.177D-02-0.127D-03 0.516D-02-0.174D-01
 Coeff-Com: -0.161D-01-0.619D-02 0.102D+00 0.275D+00 0.658D+00
 Coeff-En:   0.000D+00 0.000D+00 0.000D+00 0.000D+00 0.000D+00 0.000D+00
 Coeff-En:   0.000D+00 0.000D+00 0.000D+00 0.498D-01 0.950D+00
 Coeff:      0.219D-02-0.129D-02-0.177D-02-0.127D-03 0.515D-02-0.174D-01
 Coeff:     -0.161D-01-0.617D-02 0.102D+00 0.274D+00 0.659D+00
 Gap=     0.127 Goal=   None    Shift=    0.000
 Gap=     0.121 Goal=   None    Shift=    0.000
 RMSDP=6.47D-05 MaxDP=1.37D-02 DE=-5.51D-04 OVMax= 3.16D-03

 Cycle  12  Pass 1  IDiag  1:
 RMSU=  4.34D-05    CP:  6.44D-01  2.01D+00  6.79D-01  4.20D-01  7.05D-01
                    CP:  4.46D-01  8.94D-01  8.70D-01  1.25D+00  8.88D-01
                    CP:  7.76D-01
 E= -3531.39395446590     Delta-E=       -0.000062559451 Rises=F Damp=F
 DIIS: error= 1.02D-04 at cycle  12 NSaved=  12.
 NSaved=12 IEnMin=12 EnMin= -3531.39395446590     IErMin=12 ErrMin= 1.02D-04
 ErrMax= 1.02D-04  0.00D+00 EMaxC= 1.00D-01 BMatC= 5.71D-05 BMatP= 2.88D-04
 IDIUse=3 WtCom= 9.99D-01 WtEn= 1.02D-03
 Coeff-Com:  0.169D-02-0.135D-02-0.531D-03-0.758D-05-0.346D-03-0.177D-02
 Coeff-Com:  0.671D-02-0.539D-02-0.979D-02 0.945D-01 0.397D+00 0.519D+00
 Coeff-En:   0.000D+00 0.000D+00 0.000D+00 0.000D+00 0.000D+00 0.000D+00
 Coeff-En:   0.000D+00 0.000D+00 0.000D+00 0.000D+00 0.108D+00 0.892D+00
 Coeff:      0.168D-02-0.135D-02-0.531D-03-0.757D-05-0.346D-03-0.177D-02
 Coeff:      0.671D-02-0.538D-02-0.978D-02 0.944D-01 0.397D+00 0.520D+00
 Gap=     0.127 Goal=   None    Shift=    0.000
 Gap=     0.122 Goal=   None    Shift=    0.000
 RMSDP=2.76D-05 MaxDP=2.09D-03 DE=-6.26D-05 OVMax= 2.28D-03

 Cycle  13  Pass 1  IDiag  1:
 RMSU=  1.96D-05    CP:  6.44D-01  2.01D+00  6.79D-01  4.20D-01  7.05D-01
                    CP:  4.44D-01  8.97D-01  8.65D-01  1.23D+00  9.00D-01
                    CP:  8.43D-01  7.15D-01
 E= -3531.39397091108     Delta-E=       -0.000016445183 Rises=F Damp=F
 DIIS: error= 2.39D-05 at cycle  13 NSaved=  13.
 NSaved=13 IEnMin=13 EnMin= -3531.39397091108     IErMin=13 ErrMin= 2.39D-05
 ErrMax= 2.39D-05  0.00D+00 EMaxC= 1.00D-01 BMatC= 6.09D-06 BMatP= 5.71D-05
 IDIUse=1 WtCom= 1.00D+00 WtEn= 0.00D+00
 Coeff-Com:  0.915D-03-0.888D-03-0.199D-03-0.306D-05-0.461D-03 0.543D-04
 Coeff-Com:  0.418D-02-0.179D-02-0.122D-01 0.218D-01 0.123D+00 0.266D+00
 Coeff-Com:  0.600D+00
 Coeff:      0.915D-03-0.888D-03-0.199D-03-0.306D-05-0.461D-03 0.543D-04
 Coeff:      0.418D-02-0.179D-02-0.122D-01 0.218D-01 0.123D+00 0.266D+00
 Coeff:      0.600D+00
 Gap=     0.127 Goal=   None    Shift=    0.000
 Gap=     0.121 Goal=   None    Shift=    0.000
 RMSDP=1.09D-05 MaxDP=2.21D-03 DE=-1.64D-05 OVMax= 1.23D-03

 Cycle  14  Pass 1  IDiag  1:
 RMSU=  1.02D-05    CP:  6.44D-01  2.01D+00  6.79D-01  4.20D-01  7.06D-01
                    CP:  4.44D-01  8.98D-01  8.67D-01  1.23D+00  8.99D-01
                    CP:  8.39D-01  7.33D-01  9.79D-01
 E= -3531.39397307768     Delta-E=       -0.000002166600 Rises=F Damp=F
 DIIS: error= 1.81D-05 at cycle  14 NSaved=  14.
 NSaved=14 IEnMin=14 EnMin= -3531.39397307768     IErMin=14 ErrMin= 1.81D-05
 ErrMax= 1.81D-05  0.00D+00 EMaxC= 1.00D-01 BMatC= 1.47D-06 BMatP= 6.09D-06
 IDIUse=1 WtCom= 1.00D+00 WtEn= 0.00D+00
 Coeff-Com: -0.182D-03 0.175D-03 0.130D-03-0.606D-05-0.132D-03 0.485D-03
 Coeff-Com: -0.204D-03 0.132D-02-0.211D-02-0.240D-01-0.898D-01-0.550D-01
 Coeff-Com:  0.333D+00 0.836D+00
 Coeff:     -0.182D-03 0.175D-03 0.130D-03-0.606D-05-0.132D-03 0.485D-03
 Coeff:     -0.204D-03 0.132D-02-0.211D-02-0.240D-01-0.898D-01-0.550D-01
 Coeff:      0.333D+00 0.836D+00
 Gap=     0.127 Goal=   None    Shift=    0.000
 Gap=     0.121 Goal=   None    Shift=    0.000
 RMSDP=8.91D-06 MaxDP=2.38D-03 DE=-2.17D-06 OVMax= 9.34D-04

 Cycle  15  Pass 1  IDiag  1:
 RMSU=  5.30D-06    CP:  6.44D-01  2.01D+00  6.79D-01  4.20D-01  7.06D-01
                    CP:  4.44D-01  8.98D-01  8.68D-01  1.23D+00  9.02D-01
                    CP:  8.40D-01  7.86D-01  1.22D+00  1.17D+00
 E= -3531.39397407365     Delta-E=       -0.000000995968 Rises=F Damp=F
 DIIS: error= 8.73D-06 at cycle  15 NSaved=  15.
 NSaved=15 IEnMin=15 EnMin= -3531.39397407365     IErMin=15 ErrMin= 8.73D-06
 ErrMax= 8.73D-06  0.00D+00 EMaxC= 1.00D-01 BMatC= 3.74D-07 BMatP= 1.47D-06
 IDIUse=1 WtCom= 1.00D+00 WtEn= 0.00D+00
 Coeff-Com: -0.273D-03 0.259D-03 0.122D-03-0.345D-05 0.328D-04 0.134D-03
 Coeff-Com: -0.132D-02 0.893D-03 0.229D-02-0.140D-01-0.661D-01-0.806D-01
 Coeff-Com:  0.379D-01 0.363D+00 0.757D+00
 Coeff:     -0.273D-03 0.259D-03 0.122D-03-0.345D-05 0.328D-04 0.134D-03
 Coeff:     -0.132D-02 0.893D-03 0.229D-02-0.140D-01-0.661D-01-0.806D-01
 Coeff:      0.379D-01 0.363D+00 0.757D+00
 Gap=     0.127 Goal=   None    Shift=    0.000
 Gap=     0.121 Goal=   None    Shift=    0.000
 RMSDP=4.30D-06 MaxDP=8.11D-04 DE=-9.96D-07 OVMax= 5.86D-04

 Cycle  16  Pass 1  IDiag  1:
 RMSU=  2.47D-06    CP:  6.44D-01  2.01D+00  6.79D-01  4.20D-01  7.06D-01
                    CP:  4.44D-01  8.98D-01  8.68D-01  1.23D+00  9.02D-01
                    CP:  8.39D-01  8.08D-01  1.31D+00  1.40D+00  1.24D+00
 E= -3531.39397432763     Delta-E=       -0.000000253979 Rises=F Damp=F
 DIIS: error= 5.26D-06 at cycle  16 NSaved=  16.
 NSaved=16 IEnMin=16 EnMin= -3531.39397432763     IErMin=16 ErrMin= 5.26D-06
 ErrMax= 5.26D-06  0.00D+00 EMaxC= 1.00D-01 BMatC= 1.96D-07 BMatP= 3.74D-07
 IDIUse=1 WtCom= 1.00D+00 WtEn= 0.00D+00
 Coeff-Com: -0.124D-03 0.152D-03 0.492D-04-0.185D-06-0.560D-05-0.462D-04
 Coeff-Com: -0.498D-03 0.262D-03 0.199D-02 0.147D-02-0.400D-02-0.221D-01
 Coeff-Com: -0.885D-01-0.853D-01 0.435D+00 0.761D+00
 Coeff:     -0.124D-03 0.152D-03 0.492D-04-0.185D-06-0.560D-05-0.462D-04
 Coeff:     -0.498D-03 0.262D-03 0.199D-02 0.147D-02-0.400D-02-0.221D-01
 Coeff:     -0.885D-01-0.853D-01 0.435D+00 0.761D+00
 Gap=     0.127 Goal=   None    Shift=    0.000
 Gap=     0.121 Goal=   None    Shift=    0.000
 RMSDP=2.96D-06 MaxDP=6.87D-04 DE=-2.54D-07 OVMax= 3.76D-04

 Cycle  17  Pass 1  IDiag  1:
 RMSU=  1.54D-06    CP:  6.44D-01  2.01D+00  6.79D-01  4.20D-01  7.05D-01
                    CP:  4.44D-01  8.98D-01  8.68D-01  1.23D+00  9.03D-01
                    CP:  8.40D-01  8.20D-01  1.37D+00  1.50D+00  1.55D+00
                    CP:  1.24D+00
 E= -3531.39397444768     Delta-E=       -0.000000120051 Rises=F Damp=F
 DIIS: error= 2.62D-06 at cycle  17 NSaved=  17.
 NSaved=17 IEnMin=17 EnMin= -3531.39397444768     IErMin=17 ErrMin= 2.62D-06
 ErrMax= 2.62D-06  0.00D+00 EMaxC= 1.00D-01 BMatC= 2.59D-08 BMatP= 1.96D-07
 IDIUse=1 WtCom= 1.00D+00 WtEn= 0.00D+00
 Coeff-Com:  0.475D-05 0.161D-04-0.473D-05-0.432D-07-0.233D-05-0.560D-04
 Coeff-Com:  0.168D-04-0.135D-03 0.115D-03 0.389D-02 0.143D-01 0.110D-01
 Coeff-Com: -0.509D-01-0.128D+00-0.346D-01 0.336D+00 0.849D+00
 Coeff:      0.475D-05 0.161D-04-0.473D-05-0.432D-07-0.233D-05-0.560D-04
 Coeff:      0.168D-04-0.135D-03 0.115D-03 0.389D-02 0.143D-01 0.110D-01
 Coeff:     -0.509D-01-0.128D+00-0.346D-01 0.336D+00 0.849D+00
 Gap=     0.127 Goal=   None    Shift=    0.000
 Gap=     0.121 Goal=   None    Shift=    0.000
 RMSDP=2.02D-06 MaxDP=4.46D-04 DE=-1.20D-07 OVMax= 2.58D-04

 Cycle  18  Pass 1  IDiag  1:
 RMSU=  7.82D-07    CP:  6.44D-01  2.01D+00  6.79D-01  4.20D-01  7.05D-01
                    CP:  4.44D-01  8.98D-01  8.69D-01  1.23D+00  9.04D-01
                    CP:  8.40D-01  8.27D-01  1.40D+00  1.59D+00  1.75D+00
                    CP:  1.61D+00  1.22D+00
 E= -3531.39397448451     Delta-E=       -0.000000036834 Rises=F Damp=F
 DIIS: error= 1.31D-06 at cycle  18 NSaved=  18.
 NSaved=18 IEnMin=18 EnMin= -3531.39397448451     IErMin=18 ErrMin= 1.31D-06
 ErrMax= 1.31D-06  0.00D+00 EMaxC= 1.00D-01 BMatC= 9.84D-09 BMatP= 2.59D-08
 IDIUse=1 WtCom= 1.00D+00 WtEn= 0.00D+00
 Coeff-Com:  0.453D-04-0.480D-04-0.210D-04-0.105D-06 0.113D-04-0.147D-04
 Coeff-Com:  0.140D-03-0.165D-03-0.602D-03 0.102D-02 0.757D-02 0.116D-01
 Coeff-Com:  0.419D-02-0.286D-01-0.157D+00-0.742D-01 0.374D+00 0.862D+00
 Coeff:      0.453D-04-0.480D-04-0.210D-04-0.105D-06 0.113D-04-0.147D-04
 Coeff:      0.140D-03-0.165D-03-0.602D-03 0.102D-02 0.757D-02 0.116D-01
 Coeff:      0.419D-02-0.286D-01-0.157D+00-0.742D-01 0.374D+00 0.862D+00
 Gap=     0.127 Goal=   None    Shift=    0.000
 Gap=     0.121 Goal=   None    Shift=    0.000
 RMSDP=1.24D-06 MaxDP=2.37D-04 DE=-3.68D-08 OVMax= 1.47D-04

 Cycle  19  Pass 1  IDiag  1:
 RMSU=  4.18D-07    CP:  6.44D-01  2.01D+00  6.79D-01  4.20D-01  7.05D-01
                    CP:  4.44D-01  8.98D-01  8.69D-01  1.23D+00  9.04D-01
                    CP:  8.41D-01  8.30D-01  1.42D+00  1.63D+00  1.86D+00
                    CP:  1.82D+00  1.59D+00  1.23D+00
 E= -3531.39397449653     Delta-E=       -0.000000012025 Rises=F Damp=F
 DIIS: error= 6.89D-07 at cycle  19 NSaved=  19.
 NSaved=19 IEnMin=19 EnMin= -3531.39397449653     IErMin=19 ErrMin= 6.89D-07
 ErrMax= 6.89D-07  0.00D+00 EMaxC= 1.00D-01 BMatC= 2.46D-09 BMatP= 9.84D-09
 IDIUse=1 WtCom= 1.00D+00 WtEn= 0.00D+00
 Coeff-Com:  0.187D-04-0.254D-04-0.887D-05-0.234D-07 0.529D-05 0.139D-04
 Coeff-Com:  0.868D-04-0.553D-04-0.358D-03-0.792D-03-0.403D-03 0.231D-02
 Coeff-Com:  0.189D-01 0.252D-01-0.657D-01-0.149D+00-0.955D-01 0.413D+00
 Coeff-Com:  0.852D+00
 Coeff:      0.187D-04-0.254D-04-0.887D-05-0.234D-07 0.529D-05 0.139D-04
 Coeff:      0.868D-04-0.553D-04-0.358D-03-0.792D-03-0.403D-03 0.231D-02
 Coeff:      0.189D-01 0.252D-01-0.657D-01-0.149D+00-0.955D-01 0.413D+00
 Coeff:      0.852D+00
 Gap=     0.127 Goal=   None    Shift=    0.000
 Gap=     0.121 Goal=   None    Shift=    0.000
 RMSDP=7.23D-07 MaxDP=1.20D-04 DE=-1.20D-08 OVMax= 8.36D-05

 Cycle  20  Pass 1  IDiag  1:
 RMSU=  2.15D-07    CP:  6.44D-01  2.01D+00  6.79D-01  4.20D-01  7.05D-01
                    CP:  4.44D-01  8.98D-01  8.69D-01  1.23D+00  9.04D-01
                    CP:  8.41D-01  8.32D-01  1.43D+00  1.65D+00  1.92D+00
                    CP:  1.95D+00  1.76D+00  1.52D+00  1.22D+00
 E= -3531.39397449968     Delta-E=       -0.000000003144 Rises=F Damp=F
 DIIS: error= 3.55D-07 at cycle  20 NSaved=  20.
 NSaved=20 IEnMin=20 EnMin= -3531.39397449968     IErMin=20 ErrMin= 3.55D-07
 ErrMax= 3.55D-07  0.00D+00 EMaxC= 1.00D-01 BMatC= 6.56D-10 BMatP= 2.46D-09
 IDIUse=1 WtCom= 1.00D+00 WtEn= 0.00D+00
 Coeff-Com: -0.301D-06-0.221D-05-0.252D-06 0.134D-06-0.167D-05 0.109D-04
 Coeff-Com:  0.288D-04 0.791D-06-0.570D-04-0.494D-03-0.128D-02-0.713D-03
 Coeff-Com:  0.877D-02 0.163D-01-0.260D-02-0.638D-01-0.114D+00 0.341D-01
 Coeff-Com:  0.421D+00 0.702D+00
 Coeff:     -0.301D-06-0.221D-05-0.252D-06 0.134D-06-0.167D-05 0.109D-04
 Coeff:      0.288D-04 0.791D-06-0.570D-04-0.494D-03-0.128D-02-0.713D-03
 Coeff:      0.877D-02 0.163D-01-0.260D-02-0.638D-01-0.114D+00 0.341D-01
 Coeff:      0.421D+00 0.702D+00
 Gap=     0.127 Goal=   None    Shift=    0.000
 Gap=     0.121 Goal=   None    Shift=    0.000
 RMSDP=2.57D-07 MaxDP=4.26D-05 DE=-3.14D-09 OVMax= 2.53D-05

 Cycle  21  Pass 1  IDiag  1:
 Restarting incremental Fock formation.
 E= -3531.39397450020     Delta-E=       -0.000000000520 Rises=F Damp=F
 DIIS: error= 2.18D-07 at cycle  21 NSaved=  20.
 NSaved=20 IEnMin=20 EnMin= -3531.39397450020     IErMin=20 ErrMin= 2.18D-07
 ErrMax= 2.18D-07  0.00D+00 EMaxC= 1.00D-01 BMatC= 1.77D-10 BMatP= 6.56D-10
 IDIUse=1 WtCom= 1.00D+00 WtEn= 0.00D+00
 Coeff-Com: -0.399D-05 0.369D-05 0.170D-05-0.258D-05 0.411D-05 0.114D-06
 Coeff-Com:  0.600D-05 0.358D-04-0.678D-04-0.513D-03-0.735D-03 0.838D-03
 Coeff-Com:  0.306D-02 0.125D-01-0.471D-02-0.407D-01-0.708D-01 0.437D-01
 Coeff-Com:  0.396D+00 0.661D+00
 Coeff:     -0.399D-05 0.369D-05 0.170D-05-0.258D-05 0.411D-05 0.114D-06
 Coeff:      0.600D-05 0.358D-04-0.678D-04-0.513D-03-0.735D-03 0.838D-03
 Coeff:      0.306D-02 0.125D-01-0.471D-02-0.407D-01-0.708D-01 0.437D-01
[...]
    12   Atom       -0.006373      0.016771     -0.010398
    13   Atom       -0.012217      0.014064     -0.001847
    14   Atom       -0.260214      0.248179      0.012035
    15   Atom       -0.023834      0.094714     -0.070880
    16   Atom       -0.111995     -0.077615      0.189610
    17   Atom       -0.009431      0.020817     -0.011387
    18   Atom       -0.082614      0.028830      0.053785
    19   Atom        0.084955      0.017530     -0.102485
    20   Atom        0.005438     -0.009604      0.004166
    21   Atom        0.001388     -0.003275      0.001887
    22   Atom        0.002268     -0.001660     -0.000608
    23   Atom        0.003459     -0.001674     -0.001785
    24   Atom        0.007057     -0.003305     -0.003752
    25   Atom        0.004524     -0.018992      0.014468
    26   Atom        0.011563     -0.007263     -0.004300
    27   Atom        0.000897     -0.003560      0.002663
    28   Atom        0.004167     -0.002994     -0.001173
    29   Atom       -0.003516     -0.000879      0.004395
    30   Atom       -0.000522     -0.000040      0.000563
    31   Atom        0.000628      0.005051     -0.005679
    32   Atom       -0.004977      0.010758     -0.005781
    33   Atom       -0.004436      0.011569     -0.007133
    34   Atom       -0.012684      0.026018     -0.013334
    35   Atom       -0.006211      0.007485     -0.001274
    36   Atom       -0.013697      0.021942     -0.008245
    37   Atom       -0.014504      0.003176      0.011329
    38   Atom        0.012966     -0.006563     -0.006403
    39   Atom        0.004657     -0.004436     -0.000221
    40   Atom        0.005060     -0.000116     -0.004944
    41   Atom        0.000045      0.005161     -0.005207
    42   Atom        0.005941     -0.001242     -0.004699
    43   Atom        0.002982     -0.000485     -0.002497
    44   Atom       -0.000183      0.003534     -0.003351
    45   Atom       -0.002520      0.006601     -0.004082
    46   Atom       -0.001876      0.010386     -0.008510
 --------------------------------------------------------
                        XY            XZ            YZ
 --------------------------------------------------------
     1   Atom       -0.004609      0.000838      0.000054
     2   Atom       -0.009300      0.008838      0.000945
     3   Atom       -0.010254      0.013452     -0.005448
     4   Atom       -0.003776      0.006655     -0.002393
     5   Atom       -0.001952      0.003347     -0.000904
     6   Atom       -0.002292      0.002109     -0.000528
     7   Atom       -0.026968     -0.024325      0.005603
     8   Atom       -0.002924     -0.021195     -0.002157
     9   Atom       -0.001276     -0.008411      0.001864
    10   Atom       -0.005024     -0.005815      0.006724
    11   Atom        0.002341      0.000743      0.043104
    12   Atom       -0.008772     -0.003507      0.009185
    13   Atom        0.001325      0.001711      0.019581
    14   Atom       -0.219641      0.054224      0.084031
    15   Atom       -0.034587     -0.053384     -0.001389
    16   Atom       -0.025461      0.097140     -0.171214
    17   Atom       -0.006974     -0.000157     -0.002610
    18   Atom        0.086725      0.081789      0.171606
    19   Atom        0.207548     -0.110269     -0.105685
    20   Atom       -0.018524      0.026075     -0.015536
    21   Atom       -0.002455      0.005975     -0.002400
    22   Atom       -0.001155      0.002445     -0.000610
    23   Atom       -0.001208      0.000847     -0.000164
    24   Atom       -0.002644     -0.001641      0.000516
    25   Atom       -0.004156     -0.028171      0.001499
    26   Atom        0.003732     -0.009227     -0.001351
    27   Atom       -0.001475     -0.005886      0.001315
    28   Atom       -0.002443     -0.004852      0.001432
    29   Atom       -0.003852     -0.004380      0.006760
    30   Atom       -0.003370     -0.003382      0.003372
    31   Atom       -0.009831      0.001036      0.001734
    32   Atom       -0.002228     -0.000354     -0.000009
    33   Atom       -0.009314      0.001931     -0.005539
    34   Atom       -0.001359     -0.001122     -0.008522
    35   Atom        0.000850      0.000544      0.009053
    36   Atom        0.013285      0.005822      0.021157
    37   Atom       -0.001202     -0.000012      0.021416
    38   Atom        0.013182     -0.011513     -0.005331
    39   Atom        0.002768     -0.002708      0.001959
    40   Atom        0.007952     -0.002999     -0.002065
    41   Atom        0.008845     -0.002104     -0.002538
    42   Atom        0.006177     -0.000625     -0.000225
    43   Atom        0.004626     -0.002819     -0.001927
    44   Atom        0.004974     -0.000554     -0.000780
    45   Atom        0.007126     -0.002466     -0.004856
    46   Atom        0.012963     -0.000343     -0.000301
 --------------------------------------------------------


 ---------------------------------------------------------------------------------
              Anisotropic Spin Dipole Couplings in Principal Axis System
 ---------------------------------------------------------------------------------

       Atom             a.u.   MegaHertz   Gauss  10(-4) cm-1        Axes

              Baa    -0.0060    -0.804    -0.287    -0.268 -0.1678 -0.4126  0.8953
     1 C(13)  Bbb    -0.0053    -0.705    -0.251    -0.235  0.2396  0.8639  0.4431
              Bcc     0.0112     1.509     0.538     0.503  0.9562 -0.2889  0.0461
 
              Baa    -0.0157    -2.110    -0.753    -0.704 -0.3335 -0.6199  0.7103
     2 C(13)  Bbb    -0.0092    -1.238    -0.442    -0.413  0.0350  0.7448  0.6664
              Bcc     0.0250     3.348     1.195     1.117  0.9421 -0.2471  0.2267
 
              Baa    -0.0122    -1.635    -0.584    -0.545  0.5933  0.5732 -0.5652
     3 C(13)  Bbb    -0.0109    -1.469    -0.524    -0.490 -0.0701  0.7362  0.6731
              Bcc     0.0231     3.105     1.108     1.036  0.8019 -0.3598  0.4770
 
              Baa    -0.0054    -0.725    -0.259    -0.242  0.5494  0.7409 -0.3862
     4 C(13)  Bbb    -0.0050    -0.673    -0.240    -0.224 -0.2869  0.6014  0.7457
              Bcc     0.0104     1.397     0.499     0.466  0.7847 -0.2989  0.5430
 
              Baa    -0.0035    -0.466    -0.166    -0.155 -0.4460 -0.0320  0.8945
     5 C(13)  Bbb    -0.0022    -0.293    -0.105    -0.098  0.2426  0.9576  0.1552
              Bcc     0.0057     0.759     0.271     0.253  0.8616 -0.2862  0.4193
 
              Baa    -0.0034    -0.456    -0.163    -0.152  0.2736  0.9592 -0.0718
     6 C(13)  Bbb    -0.0029    -0.396    -0.141    -0.132 -0.2132  0.1333  0.9679
              Bcc     0.0063     0.851     0.304     0.284  0.9379 -0.2495  0.2410
 
              Baa    -0.0370    -4.971    -1.774    -1.658  0.3406  0.8994  0.2741
     7 C(13)  Bbb    -0.0314    -4.211    -1.502    -1.405  0.1565 -0.3417  0.9267
              Bcc     0.0684     9.182     3.276     3.063  0.9271 -0.2727 -0.2572
 
              Baa    -0.0176    -2.368    -0.845    -0.790  0.5398  0.5734  0.6164
     8 C(13)  Bbb    -0.0101    -1.358    -0.484    -0.453 -0.3588  0.8191 -0.4477
              Bcc     0.0278     3.726     1.330     1.243  0.7615 -0.0205 -0.6478
 
              Baa    -0.0069    -0.927    -0.331    -0.309  0.6090 -0.1942  0.7690
     9 C(13)  Bbb    -0.0037    -0.502    -0.179    -0.167  0.2404  0.9692  0.0544
              Bcc     0.0106     1.429     0.510     0.477  0.7559 -0.1517 -0.6369
 
              Baa    -0.0064    -0.861    -0.307    -0.287  0.7207  0.6914 -0.0503
    10 C(13)  Bbb    -0.0057    -0.764    -0.273    -0.255  0.5020 -0.4705  0.7257
              Bcc     0.0121     1.625     0.580     0.542 -0.4781  0.5483  0.6862
 
              Baa    -0.0402    -5.397    -1.926    -1.800  0.0326 -0.4371  0.8988
    11 C(13)  Bbb    -0.0293    -3.938    -1.405    -1.314  0.9992 -0.0079 -0.0400
              Bcc     0.0696     9.336     3.331     3.114  0.0246  0.8994  0.4365
 
              Baa    -0.0134    -1.792    -0.639    -0.598  0.1794 -0.2387  0.9544
    12 C(13)  Bbb    -0.0093    -1.246    -0.445    -0.416  0.9340  0.3459 -0.0891
              Bcc     0.0226     3.038     1.084     1.013 -0.3088  0.9074  0.2850
 
              Baa    -0.0152    -2.038    -0.727    -0.680 -0.2303 -0.5341  0.8134
    13 C(13)  Bbb    -0.0122    -1.632    -0.582    -0.544  0.9717 -0.1708  0.1630
              Bcc     0.0273     3.670     1.310     1.224  0.0519  0.8280  0.5583
 
              Baa    -0.3595    26.012     9.282     8.677  0.9089  0.3581 -0.2136
    14 O(17)  Bbb     0.0184    -1.329    -0.474    -0.443  0.2642 -0.0983  0.9594
              Bcc     0.3411   -24.684    -8.808    -8.234 -0.3226  0.9285  0.1839
 
              Baa    -0.1077    -1.865    -0.666    -0.622  0.5635  0.1019  0.8198
    15 Fe(57) Bbb     0.0027     0.046     0.016     0.015  0.7738  0.2822 -0.5670
              Bcc     0.1051     1.819     0.649     0.607 -0.2891  0.9539  0.0802
 
              Baa    -0.1715    -8.976    -3.203    -2.994 -0.4612  0.7473  0.4784
    16 Cl(35) Bbb    -0.1254    -6.565    -2.342    -2.190  0.8558  0.5171  0.0172
              Bcc     0.2969    15.541     5.545     5.184  0.2345 -0.4173  0.8780
 
              Baa    -0.0120    -1.616    -0.577    -0.539  0.5241  0.1774  0.8330
    17 C(13)  Bbb    -0.0105    -1.408    -0.502    -0.470  0.8248  0.1380 -0.5483
              Bcc     0.0225     3.024     1.079     1.009 -0.2122  0.9744 -0.0740
 
              Baa    -0.1356    -7.099    -2.533    -2.368 -0.5220  0.7320 -0.4378
    18 Cl(35) Bbb    -0.1196    -6.261    -2.234    -2.088  0.7856  0.2127 -0.5810
              Bcc     0.2553    13.360     4.767     4.456  0.3322  0.6472  0.6861
 
              Baa    -0.1670    -8.741    -3.119    -2.916 -0.2987  0.7046  0.6436
    19 Cl(35) Bbb    -0.1500    -7.848    -2.800    -2.618  0.6359 -0.3559  0.6848
              Bcc     0.3170    16.589     5.919     5.533  0.7116  0.6139 -0.3417
 
              Baa    -0.0227   -12.127    -4.327    -4.045  0.7192  0.5998 -0.3508
    20 H(1)   Bbb    -0.0194   -10.352    -3.694    -3.453 -0.2261  0.6794  0.6981
              Bcc     0.0421    22.479     8.021     7.498  0.6570 -0.4227  0.6242
 
              Baa    -0.0044    -2.357    -0.841    -0.786  0.7002  0.5511 -0.4538
    21 H(1)   Bbb    -0.0042    -2.236    -0.798    -0.746 -0.2553  0.7869  0.5617
              Bcc     0.0086     4.593     1.639     1.532  0.6667 -0.2774  0.6917
 
              Baa    -0.0020    -1.085    -0.387    -0.362 -0.5242 -0.5126  0.6800
    22 H(1)   Bbb    -0.0019    -1.033    -0.369    -0.345 -0.0936  0.8284  0.5523
              Bcc     0.0040     2.118     0.756     0.706  0.8464 -0.2259  0.4822
 
              Baa    -0.0020    -1.045    -0.373    -0.349  0.2622  0.8270 -0.4974
    23 H(1)   Bbb    -0.0019    -1.015    -0.362    -0.339 -0.0179  0.5195  0.8543
              Bcc     0.0039     2.060     0.735     0.687  0.9649 -0.2151  0.1510
 
              Baa    -0.0041    -2.184    -0.779    -0.729 -0.0310 -0.6181  0.7855
    24 H(1)   Bbb    -0.0039    -2.054    -0.733    -0.685  0.2725  0.7509  0.6016
              Bcc     0.0079     4.239     1.512     1.414  0.9617 -0.2327 -0.1452
 
              Baa    -0.0214   -11.415    -4.073    -3.808  0.5629  0.7164  0.4122
    25 H(1)   Bbb    -0.0170    -9.050    -3.229    -3.019 -0.5190  0.6945 -0.4983
              Bcc     0.0384    20.465     7.303     6.826 -0.6433  0.0666  0.7627
 
              Baa    -0.0087    -1.164    -0.415    -0.388  0.4405 -0.3906  0.8083
    26 C(13)  Bbb    -0.0078    -1.044    -0.373    -0.348  0.0270  0.9058  0.4229
              Bcc     0.0165     2.209     0.788     0.737  0.8973  0.1645 -0.4096
 
              Baa    -0.0043    -2.306    -0.823    -0.769  0.7057  0.5020  0.5000
    27 H(1)   Bbb    -0.0037    -1.995    -0.712    -0.666 -0.2908  0.8487 -0.4417
              Bcc     0.0081     4.302     1.535     1.435 -0.6461  0.1663  0.7449
 
              Baa    -0.0040    -2.157    -0.770    -0.719  0.5156  0.0320  0.8562
    28 H(1)   Bbb    -0.0037    -1.994    -0.712    -0.665  0.2019  0.9666 -0.1577
              Bcc     0.0078     4.151     1.481     1.385  0.8327 -0.2542 -0.4920
 
              Baa    -0.0063    -3.370    -1.203    -1.124  0.7269  0.6747 -0.1285
    29 H(1)   Bbb    -0.0050    -2.650    -0.946    -0.884  0.5818 -0.5054  0.6372
              Bcc     0.0113     6.021     2.148     2.008 -0.3649  0.5379  0.7599
 
              Baa    -0.0037    -1.971    -0.703    -0.658  0.8031  0.5644  0.1909
    30 H(1)   Bbb    -0.0031    -1.640    -0.585    -0.547  0.2348 -0.5942  0.7693
              Bcc     0.0068     3.612     1.289     1.205 -0.5476  0.5730  0.6097
 
              Baa    -0.0085    -4.542    -1.621    -1.515  0.6360  0.5324 -0.5586
    31 H(1)   Bbb    -0.0044    -2.364    -0.844    -0.789  0.4575  0.3228  0.8286
              Bcc     0.0129     6.906     2.464     2.304 -0.6215  0.7825  0.0383
 
              Baa    -0.0060    -3.182    -1.135    -1.061  0.4568  0.0613  0.8874
    32 H(1)   Bbb    -0.0051    -2.723    -0.972    -0.908  0.8788  0.1232 -0.4609
              Bcc     0.0111     5.905     2.107     1.970 -0.1376  0.9905  0.0024
 
              Baa    -0.0092    -4.894    -1.746    -1.632  0.6323  0.4520  0.6292
    33 H(1)   Bbb    -0.0081    -4.308    -1.537    -1.437 -0.6627 -0.1051  0.7415
              Bcc     0.0172     9.201     3.283     3.069 -0.4013  0.8858 -0.2330
 
              Baa    -0.0157    -8.391    -2.994    -2.799  0.4148  0.1949  0.8888
    34 H(1)   Bbb    -0.0121    -6.449    -2.301    -2.151  0.9095 -0.0596 -0.4114
              Bcc     0.0278    14.840     5.295     4.950 -0.0273  0.9790 -0.2020
 
              Baa    -0.0070    -3.709    -1.323    -1.237 -0.0141 -0.5306  0.8475
    35 H(1)   Bbb    -0.0063    -3.342    -1.192    -1.115  0.9986 -0.0514 -0.0156
              Bcc     0.0132     7.050     2.516     2.352  0.0519  0.8460  0.5306
 
              Baa    -0.0196   -10.445    -3.727    -3.484  0.4310 -0.5154  0.7407
    36 H(1)   Bbb    -0.0174    -9.282    -3.312    -3.096  0.8595 -0.0155 -0.5109
              Bcc     0.0370    19.728     7.039     6.580  0.2748  0.8568  0.4363
 
              Baa    -0.0155    -8.244    -2.942    -2.750  0.7011  0.5570 -0.4451
    37 H(1)   Bbb    -0.0136    -7.264    -2.592    -2.423  0.7128 -0.5319  0.4571
              Bcc     0.0291    15.509     5.534     5.173 -0.0178  0.6378  0.7700
 
              Baa    -0.0133     0.962     0.343     0.321 -0.5092  0.8361 -0.2040
    38 O(17)  Bbb    -0.0115     0.830     0.296     0.277  0.2309  0.3611  0.9035
              Bcc     0.0248    -1.792    -0.639    -0.598  0.8291  0.4130 -0.3769
 
              Baa    -0.0064     0.463     0.165     0.154 -0.3149  0.8561 -0.4099
    39 O(17)  Bbb     0.0002    -0.015    -0.006    -0.005  0.2147  0.4849  0.8478
              Bcc     0.0062    -0.447    -0.160    -0.149  0.9245  0.1790 -0.3365
 
              Baa    -0.0059    -0.796    -0.284    -0.266 -0.6047  0.6789 -0.4164
    40 C(13)  Bbb    -0.0057    -0.765    -0.273    -0.255 -0.0930  0.4591  0.8835
              Bcc     0.0116     1.561     0.557     0.521  0.7910  0.5730 -0.2145
 
              Baa    -0.0066    -0.890    -0.318    -0.297  0.8050 -0.5641  0.1839
    41 C(13)  Bbb    -0.0058    -0.777    -0.277    -0.259 -0.0408  0.2566  0.9656
              Bcc     0.0124     1.667     0.595     0.556  0.5919  0.7848 -0.1836
 
              Baa    -0.0049    -2.606    -0.930    -0.869 -0.4219  0.6784 -0.6015
    42 H(1)   Bbb    -0.0046    -2.477    -0.884    -0.826 -0.2682  0.5403  0.7976
              Bcc     0.0095     5.082     1.813     1.695  0.8661  0.4978 -0.0460
 
              Baa    -0.0037    -1.978    -0.706    -0.660  0.6182 -0.5540  0.5576
    43 H(1)   Bbb    -0.0037    -1.954    -0.697    -0.652 -0.1187  0.6354  0.7630
              Bcc     0.0074     3.932     1.403     1.312  0.7770  0.5378 -0.3270
 
              Baa    -0.0036    -1.939    -0.692    -0.647  0.8231 -0.5654  0.0524
    44 H(1)   Bbb    -0.0034    -1.834    -0.655    -0.612  0.0088  0.1050  0.9944
              Bcc     0.0071     3.774     1.347     1.259  0.5678  0.8181 -0.0914
 
              Baa    -0.0065    -3.449    -1.231    -1.150  0.8062 -0.5342 -0.2543
    45 H(1)   Bbb    -0.0058    -3.119    -1.113    -1.040  0.3804  0.1389  0.9143
              Bcc     0.0123     6.568     2.343     2.191  0.4531  0.8339 -0.3152
 
              Baa    -0.0101    -5.386    -1.922    -1.797  0.8427 -0.5322  0.0814
    46 H(1)   Bbb    -0.0085    -4.539    -1.620    -1.514 -0.0602  0.0572  0.9965
              Bcc     0.0186     9.925     3.542     3.311  0.5350  0.8447 -0.0161
 

 ---------------------------------------------------------------------------------

 No NMR shielding tensors so no spin-rotation constants.
 Leave Link  601 at Sun Jun 20 10:27:08 2021, MaxMem=  2147483648 cpu:              92.2 elap:               5.9
 (Enter /SFS/product/gaussian/g16.a03/x86_64/avx/g16/l9999.exe)
 1\1\GINC-KTCHPCPX081\SP\UB3LYP\Jul-CC-pVDZ\C17H22Cl3Fe1O3(6)\KWANEU\20
 -Jun-2021\0\\#p ub3lyp jul-cc-pvdz pop=cm5 scrf=(pcm,solvent=water) gu
 ess=read geom=allcheck\\title\\0,6\C,0,3.0653250704,-0.910577295,0.547
 8067346\C,0,1.6692856433,-0.8654130998,0.7530644276\C,0,1.1836002453,-
 0.8839038798,2.0747695365\C,0,2.0652817341,-0.9360223681,3.1567121025\
 C,0,3.4440096963,-0.9854183161,2.9401714943\C,0,3.9396834592,-0.972084
 6858,1.62967462\C,0,0.7184835331,-0.8229516391,-0.3896392099\C,0,1.062
 396137,-0.0206143817,-1.6724403221\C,0,1.7310655123,-0.9362994868,-2.7
 121066896\C,0,0.9538796772,-2.2681896093,-2.7134550158\C,0,0.627921072
 4,-2.6131437491,-1.2767713247\C,0,-0.728507103,-2.6644052005,-0.750912
 4946\C,0,-1.9240599435,-2.4988347414,-1.6265571846\O,0,-0.6321729426,-
 0.8074639531,-0.0143719233\Fe,0,-2.0024356858,0.5084547998,0.388168492
 \Cl,0,-2.5343790099,1.4504954643,-1.5515709525\C,0,-0.9383752502,-3.38
 71641977,0.5358650623\Cl,0,-1.3405488912,1.9207667484,1.9484956181\Cl,
 0,-3.651800599,-0.7782548128,1.1619607257\H,0,0.1136270663,-0.82621958
 45,2.2543052643\H,0,1.6681848805,-0.9312942873,4.1724965518\H,0,4.1323
 136714,-1.0286100825,3.7856935829\H,0,5.0151652729,-1.0032849391,1.450
 5388272\H,0,3.4761626924,-0.8887278486,-0.4585044886\H,0,0.0913492947,
 0.3204556335,-2.0556448566\C,0,1.8903715674,1.2388694532,-1.4081704861
 \H,0,1.7334778675,-0.4587350559,-3.7010599817\H,0,2.7822206112,-1.0995
 316649,-2.4438988814\H,0,0.0429932154,-2.1635130555,-3.3165451076\H,0,
 1.5521372592,-3.0628343913,-3.1809235371\H,0,1.3412967793,-3.246175269
 5,-0.7468402864\H,0,-1.0715793134,-4.4517800976,0.2702903159\H,0,-0.06
 57209987,-3.3180672047,1.1945898\H,0,-1.842783923,-3.0462344172,1.0506
 697574\H,0,-2.0516026347,-3.4603214364,-2.156902347\H,0,-2.8271559638,
 -2.3054020312,-1.0390726142\H,0,-1.8031159057,-1.7163638797,-2.3803965
 898\O,0,1.1409683769,2.1892975449,-0.8379096196\O,0,3.0626642878,1.365
 2130658,-1.6981343148\C,0,1.8011646468,3.4546336879,-0.5354640943\C,0,
 0.728459136,4.4695147586,-0.1994409025\H,0,2.4878452974,3.2789676247,0
 .3043444183\H,0,2.3974464825,3.7449260116,-1.4097163558\H,0,1.20729183
 75,5.4287222107,0.0460532904\H,0,0.0553380994,4.6251536811,-1.05351565
 \H,0,0.1306170414,4.1420869775,0.6601646089\\Version=ES64L-G16RevA.03\
 State=6-A\HF=-3531.419911\S2=8.761574\S2-1=0.\S2A=8.750042\RMSD=4.385e
 -09\Dipole=2.8454527,-3.7835142,-1.2257617\Quadrupole=-18.399012,16.38
 44639,2.0145481,5.0838956,9.7541934,5.0192608\PG=C01 [X(C17H22Cl3Fe1O3
 )]\\@


 PICNIC:  A SNACK IN THE GRASS.
 Job cpu time:       0 days  6 hours 25 minutes 58.2 seconds.
 Elapsed time:       0 days  0 hours 24 minutes 10.5 seconds.
 File lengths (MBytes):  RWF=    662 Int=      0 D2E=      0 Chk=     57 Scr=      1
 Normal termination of Gaussian 16 at Sun Jun 20 10:27:08 2021.
