 Entering Gaussian System, Link 0=g16
 Input=prenyl-first_betaine_grid-CC_300_CO_290-b3lyp_d3bj-juldz-gas.gjf
 Output=prenyl-first_betaine_grid-CC_300_CO_290-b3lyp_d3bj-juldz-gas.out
 Initial command:
 /SFS/product/gaussian/g16.a03/x86_64/avx/g16/l1.exe "/scratch/kwaneu.2874343.bmbhpcps002/Gau-58301.inp" -scrdir="/scratch/kwaneu.2874343.bmbhpcps002/"
 Entering Link 1 = /SFS/product/gaussian/g16.a03/x86_64/avx/g16/l1.exe PID=     58302.
  
 Copyright (c) 1988,1990,1992,1993,1995,1998,2003,2009,2016,
            Gaussian, Inc.  All Rights Reserved.
  
 This is part of the Gaussian(R) 16 program.  It is based on
 the Gaussian(R) 09 system (copyright 2009, Gaussian, Inc.),
 the Gaussian(R) 03 system (copyright 2003, Gaussian, Inc.),
 the Gaussian(R) 98 system (copyright 1998, Gaussian, Inc.),
 the Gaussian(R) 94 system (copyright 1995, Gaussian, Inc.),
 the Gaussian 92(TM) system (copyright 1992, Gaussian, Inc.),
 the Gaussian 90(TM) system (copyright 1990, Gaussian, Inc.),
 the Gaussian 88(TM) system (copyright 1988, Gaussian, Inc.),
 the Gaussian 86(TM) system (copyright 1986, Carnegie Mellon
 University), and the Gaussian 82(TM) system (copyright 1983,
 Carnegie Mellon University). Gaussian is a federally registered
 trademark of Gaussian, Inc.
  
 This software contains proprietary and confidential information,
 including trade secrets, belonging to Gaussian, Inc.
  
 This software is provided under written license and may be
 used, copied, transmitted, or stored only in accord with that
 written license.
  
 The following legend is applicable only to US Government
 contracts under FAR:
  
                    RESTRICTED RIGHTS LEGEND
  
 Use, reproduction and disclosure by the US Government is
 subject to restrictions as set forth in subparagraphs (a)
 and (c) of the Commercial Computer Software - Restricted
 Rights clause in FAR 52.227-19.
  
 Gaussian, Inc.
 340 Quinnipiac St., Bldg. 40, Wallingford CT 06492
  
  
 ---------------------------------------------------------------
 Warning -- This program may not be used in any manner that
 competes with the business of Gaussian, Inc. or will provide
 assistance to any competitor of Gaussian, Inc.  The licensee
 of this program is prohibited from giving any competitor of
 Gaussian, Inc. access to this program.  By using this program,
 the user acknowledges that Gaussian, Inc. is engaged in the
 business of creating and licensing software in the field of
 computational chemistry and represents and warrants to the
 licensee that it is not a competitor of Gaussian, Inc. and that
 it will not use this program in any manner prohibited above.
 ---------------------------------------------------------------
  

 Cite this work as:
 Gaussian 16, Revision A.03,
 M. J. Frisch, G. W. Trucks, H. B. Schlegel, G. E. Scuseria, 
 M. A. Robb, J. R. Cheeseman, G. Scalmani, V. Barone, 
 G. A. Petersson, H. Nakatsuji, X. Li, M. Caricato, A. V. Marenich, 
 J. Bloino, B. G. Janesko, R. Gomperts, B. Mennucci, H. P. Hratchian, 
 J. V. Ortiz, A. F. Izmaylov, J. L. Sonnenberg, D. Williams-Young, 
 F. Ding, F. Lipparini, F. Egidi, J. Goings, B. Peng, A. Petrone, 
 T. Henderson, D. Ranasinghe, V. G. Zakrzewski, J. Gao, N. Rega, 
 G. Zheng, W. Liang, M. Hada, M. Ehara, K. Toyota, R. Fukuda, 
 J. Hasegawa, M. Ishida, T. Nakajima, Y. Honda, O. Kitao, H. Nakai, 
 T. Vreven, K. Throssell, J. A. Montgomery, Jr., J. E. Peralta, 
 F. Ogliaro, M. J. Bearpark, J. J. Heyd, E. N. Brothers, K. N. Kudin, 
 V. N. Staroverov, T. A. Keith, R. Kobayashi, J. Normand, 
 K. Raghavachari, A. P. Rendell, J. C. Burant, S. S. Iyengar, 
 J. Tomasi, M. Cossi, J. M. Millam, M. Klene, C. Adamo, R. Cammi, 
 J. W. Ochterski, R. L. Martin, K. Morokuma, O. Farkas, 
 J. B. Foresman, and D. J. Fox, Gaussian, Inc., Wallingford CT, 2016.
 
 ******************************************
 Gaussian 16:  ES64L-G16RevA.03 25-Dec-2016
                20-Jun-2021 
 ******************************************
 %chk=checkpoint.chk
 %nprocshared=16
 Will use up to   16 processors via shared memory.
 %mem=16GB
 -----------------------------------------------------------
 #p opt=modredundant freq=noraman ub3lyp jul-cc-pvdz pop=cm5
 -----------------------------------------------------------
 1/18=120,19=15,26=3,38=1/1,3;
 2/9=110,12=2,17=6,18=5,40=1/2;
 3/5=16,7=50,11=2,25=1,30=1,71=1,74=-5,116=2/1,2,3;
 4//1;
 5/5=2,38=5/2;
 6/7=2,8=2,9=2,10=2,28=1,79=1/1;
 7//1,2,3,16;
 1/18=20,19=15,26=3/3(2);
 2/9=110/2;
 99//99;
 2/9=110/2;
 3/5=16,7=50,11=2,25=1,30=1,71=1,74=-5,116=2/1,2,3;
 4/5=5,16=3,69=1/1;
 5/5=2,38=5/2;
 7//1,2,3,16;
 1/18=20,19=15,26=3/3(-5);
 2/9=110/2;
 6/7=2,8=2,9=2,10=2,19=2,28=1,79=1/1;
 99/9=1/99;
 Leave Link    1 at Sun Jun 20 09:30:52 2021, MaxMem=  2147483648 cpu:               2.1 elap:               0.2
 (Enter /SFS/product/gaussian/g16.a03/x86_64/avx/g16/l101.exe)
 -----
 title
 -----
 Symbolic Z-matrix:
 Charge =  0 Multiplicity = 6
 6                     2.73104  -0.19066   1.50608 
 6                     1.43568  -0.60962   1.13189 
 6                     0.67691  -1.38672   2.03362 
 6                     1.20184  -1.74026   3.26959 
 6                     2.48318  -1.31382   3.63242 
 6                     3.24128  -0.53619   2.75292 
 6                     0.8391   -0.24734  -0.15851 
 6                     1.64757   0.33709  -1.31687 
 6                     2.83338  -0.51917  -1.81773 
 6                     2.36457  -1.74956  -2.62323 
 6                     1.49357  -2.66689  -1.80699 
 6                     0.15571  -2.80021  -1.866 
 6                    -0.73474  -2.15681  -2.89829 
 8                    -0.39537  -0.38942  -0.35127 
 26                   -2.14068   0.2211    0.31795 
 17                   -3.19939   0.96911  -1.44253 
 6                    -0.56119  -3.72672  -0.91517 
 17                   -1.68415   1.7709    1.79929 
 17                   -3.12673  -1.5175    1.22866 
 1                    -0.31588  -1.71938   1.75376 
 1                     0.61096  -2.34284   3.95238 
 1                     2.88999  -1.58583   4.60248 
 1                     4.23181  -0.19643   3.0397 
 1                     3.32506   0.43006   0.8461 
 1                     0.91671   0.4444   -2.12455 
 6                     2.08086   1.77625  -0.96227 
 1                     3.46498   0.1215   -2.44196 
 1                     3.45653  -0.83873  -0.97754 
 1                     1.84926  -1.40908  -3.52795 
 1                     3.25953  -2.28816  -2.96316 
 1                     2.0206   -3.2273   -1.03272 
 1                     0.12352  -4.18733  -0.19582 
 1                    -1.34369  -3.19565  -0.35825 
 1                    -1.06873  -4.53132  -1.46497 
 1                    -1.27193  -2.93221  -3.46095 
 1                    -1.50046  -1.52993  -2.42656 
 1                    -0.19586  -1.53713  -3.61879 
 8                     1.00663   2.56174  -0.84571 
 8                     3.22901   2.13974  -0.82437 
 6                     1.24666   3.959    -0.50305 
 6                    -0.09199   4.6681   -0.51564 
 1                     1.72429   3.9867    0.48098 
 1                     1.94876   4.37064  -1.23377 
 1                     0.05408   5.7226   -0.25689 
 1                    -0.55294   4.61687  -1.5069 
 1                    -0.77706   4.22179   0.21061 
 
 The following ModRedundant input section has been read:
 B       7      11 F                                                           
 B      12      14 F                                                           
 
 ITRead=  0  0  0  0  0  0  0  0  0  0  0  0  0  0  0  0  0  0  0  0
 ITRead=  0  0  0  0  0  0  0  0  0  0  0  0  0  0  0  0  0  0  0  0
 ITRead=  0  0  0  0  0  0
 MicOpt= -1 -1 -1 -1 -1 -1 -1 -1 -1 -1 -1 -1 -1 -1 -1 -1 -1 -1 -1 -1
 MicOpt= -1 -1 -1 -1 -1 -1 -1 -1 -1 -1 -1 -1 -1 -1 -1 -1 -1 -1 -1 -1
 MicOpt= -1 -1 -1 -1 -1 -1
 NAtoms=     46 NQM=       46 NQMF=       0 NMMI=      0 NMMIF=      0
                NMic=       0 NMicF=      0.
                    Isotopes and Nuclear Properties:
 (Nuclear quadrupole moments (NQMom) in fm**2, nuclear magnetic moments (NMagM)
  in nuclear magnetons)

  Atom         1           2           3           4           5           6           7           8           9          10
 IAtWgt=          12          12          12          12          12          12          12          12          12          12
 AtmWgt=  12.0000000  12.0000000  12.0000000  12.0000000  12.0000000  12.0000000  12.0000000  12.0000000  12.0000000  12.0000000
 NucSpn=           0           0           0           0           0           0           0           0           0           0
 AtZEff=  -0.0000000  -0.0000000  -0.0000000  -0.0000000  -0.0000000  -0.0000000  -0.0000000  -0.0000000  -0.0000000  -0.0000000
 NQMom=    0.0000000   0.0000000   0.0000000   0.0000000   0.0000000   0.0000000   0.0000000   0.0000000   0.0000000   0.0000000
 NMagM=    0.0000000   0.0000000   0.0000000   0.0000000   0.0000000   0.0000000   0.0000000   0.0000000   0.0000000   0.0000000
 AtZNuc=   6.0000000   6.0000000   6.0000000   6.0000000   6.0000000   6.0000000   6.0000000   6.0000000   6.0000000   6.0000000

  Atom        11          12          13          14          15          16          17          18          19          20
 IAtWgt=          12          12          12          16          56          35          12          35          35           1
 AtmWgt=  12.0000000  12.0000000  12.0000000  15.9949146  55.9349393  34.9688527  12.0000000  34.9688527  34.9688527   1.0078250
 NucSpn=           0           0           0           0           0           3           0           3           3           1
 AtZEff=  -0.0000000  -0.0000000  -0.0000000  -0.0000000  -0.0000000  -0.0000000  -0.0000000  -0.0000000  -0.0000000  -0.0000000
 NQMom=    0.0000000   0.0000000   0.0000000   0.0000000   0.0000000  -8.1650000   0.0000000  -8.1650000  -8.1650000   0.0000000
 NMagM=    0.0000000   0.0000000   0.0000000   0.0000000   0.0000000   0.8218740   0.0000000   0.8218740   0.8218740   2.7928460
 AtZNuc=   6.0000000   6.0000000   6.0000000   8.0000000  26.0000000  17.0000000   6.0000000  17.0000000  17.0000000   1.0000000

  Atom        21          22          23          24          25          26          27          28          29          30
 IAtWgt=           1           1           1           1           1          12           1           1           1           1
 AtmWgt=   1.0078250   1.0078250   1.0078250   1.0078250   1.0078250  12.0000000   1.0078250   1.0078250   1.0078250   1.0078250
 NucSpn=           1           1           1           1           1           0           1           1           1           1
 AtZEff=  -0.0000000  -0.0000000  -0.0000000  -0.0000000  -0.0000000  -0.0000000  -0.0000000  -0.0000000  -0.0000000  -0.0000000
 NQMom=    0.0000000   0.0000000   0.0000000   0.0000000   0.0000000   0.0000000   0.0000000   0.0000000   0.0000000   0.0000000
 NMagM=    2.7928460   2.7928460   2.7928460   2.7928460   2.7928460   0.0000000   2.7928460   2.7928460   2.7928460   2.7928460
 AtZNuc=   1.0000000   1.0000000   1.0000000   1.0000000   1.0000000   6.0000000   1.0000000   1.0000000   1.0000000   1.0000000

  Atom        31          32          33          34          35          36          37          38          39          40
 IAtWgt=           1           1           1           1           1           1           1          16          16          12
 AtmWgt=   1.0078250   1.0078250   1.0078250   1.0078250   1.0078250   1.0078250   1.0078250  15.9949146  15.9949146  12.0000000
 NucSpn=           1           1           1           1           1           1           1           0           0           0
 AtZEff=  -0.0000000  -0.0000000  -0.0000000  -0.0000000  -0.0000000  -0.0000000  -0.0000000  -0.0000000  -0.0000000  -0.0000000
 NQMom=    0.0000000   0.0000000   0.0000000   0.0000000   0.0000000   0.0000000   0.0000000   0.0000000   0.0000000   0.0000000
 NMagM=    2.7928460   2.7928460   2.7928460   2.7928460   2.7928460   2.7928460   2.7928460   0.0000000   0.0000000   0.0000000
 AtZNuc=   1.0000000   1.0000000   1.0000000   1.0000000   1.0000000   1.0000000   1.0000000   8.0000000   8.0000000   6.0000000

  Atom        41          42          43          44          45          46
 IAtWgt=          12           1           1           1           1           1
 AtmWgt=  12.0000000   1.0078250   1.0078250   1.0078250   1.0078250   1.0078250
 NucSpn=           0           1           1           1           1           1
 AtZEff=  -0.0000000  -0.0000000  -0.0000000  -0.0000000  -0.0000000  -0.0000000
 NQMom=    0.0000000   0.0000000   0.0000000   0.0000000   0.0000000   0.0000000
 NMagM=    0.0000000   2.7928460   2.7928460   2.7928460   2.7928460   2.7928460
 AtZNuc=   6.0000000   1.0000000   1.0000000   1.0000000   1.0000000   1.0000000
 Leave Link  101 at Sun Jun 20 09:30:53 2021, MaxMem=  2147483648 cpu:               6.5 elap:               0.5
 (Enter /SFS/product/gaussian/g16.a03/x86_64/avx/g16/l103.exe)

 GradGradGradGradGradGradGradGradGradGradGradGradGradGradGradGradGradGrad
 Berny optimization.
 Initialization pass.
                           ----------------------------
                           !    Initial Parameters    !
                           ! (Angstroms and Degrees)  !
 --------------------------                            --------------------------
 ! Name  Definition              Value          Derivative Info.                !
 --------------------------------------------------------------------------------
 ! R1    R(1,2)                  1.4119         estimate D2E/DX2                !
 ! R2    R(1,6)                  1.3908         estimate D2E/DX2                !
 ! R3    R(1,24)                 1.0834         estimate D2E/DX2                !
 ! R4    R(2,3)                  1.4116         estimate D2E/DX2                !
 ! R5    R(2,7)                  1.4671         estimate D2E/DX2                !
 ! R6    R(3,4)                  1.3886         estimate D2E/DX2                !
 ! R7    R(3,20)                 1.0838         estimate D2E/DX2                !
 ! R8    R(4,5)                  1.3983         estimate D2E/DX2                !
 ! R9    R(4,21)                 1.0856         estimate D2E/DX2                !
 ! R10   R(5,6)                  1.3975         estimate D2E/DX2                !
 ! R11   R(5,22)                 1.0865         estimate D2E/DX2                !
 ! R12   R(6,23)                 1.0857         estimate D2E/DX2                !
 ! R13   R(7,8)                  1.5287         estimate D2E/DX2                !
 ! R14   R(7,11)                 3.0            Frozen                          !
 ! R15   R(7,14)                 1.2575         estimate D2E/DX2                !
 ! R16   R(8,9)                  1.546          estimate D2E/DX2                !
 ! R17   R(8,25)                 1.0945         estimate D2E/DX2                !
 ! R18   R(8,26)                 1.5442         estimate D2E/DX2                !
 ! R19   R(9,10)                 1.5435         estimate D2E/DX2                !
 ! R20   R(9,27)                 1.095          estimate D2E/DX2                !
 ! R21   R(9,28)                 1.0938         estimate D2E/DX2                !
 ! R22   R(10,11)                1.5055         estimate D2E/DX2                !
 ! R23   R(10,29)                1.0954         estimate D2E/DX2                !
 ! R24   R(10,30)                1.0985         estimate D2E/DX2                !
 ! R25   R(11,12)                1.3458         estimate D2E/DX2                !
 ! R26   R(11,31)                1.0915         estimate D2E/DX2                !
 ! R27   R(12,13)                1.5075         estimate D2E/DX2                !
 ! R28   R(12,14)                2.9            Frozen                          !
 ! R29   R(12,17)                1.5088         estimate D2E/DX2                !
 ! R30   R(13,35)                1.0984         estimate D2E/DX2                !
 ! R31   R(13,36)                1.0963         estimate D2E/DX2                !
 ! R32   R(13,37)                1.0925         estimate D2E/DX2                !
 ! R33   R(14,15)                1.9664         estimate D2E/DX2                !
 ! R34   R(15,16)                2.1862         estimate D2E/DX2                !
 ! R35   R(15,18)                2.192          estimate D2E/DX2                !
 ! R36   R(15,19)                2.1965         estimate D2E/DX2                !
 ! R37   R(17,32)                1.0947         estimate D2E/DX2                !
 ! R38   R(17,33)                1.0975         estimate D2E/DX2                !
 ! R39   R(17,34)                1.0988         estimate D2E/DX2                !
 ! R40   R(26,38)                1.3359         estimate D2E/DX2                !
 ! R41   R(26,39)                1.2122         estimate D2E/DX2                !
 ! R42   R(38,40)                1.4586         estimate D2E/DX2                !
 ! R43   R(40,41)                1.5149         estimate D2E/DX2                !
 ! R44   R(40,42)                1.0942         estimate D2E/DX2                !
 ! R45   R(40,43)                1.0938         estimate D2E/DX2                !
 ! R46   R(41,44)                1.0956         estimate D2E/DX2                !
 ! R47   R(41,45)                1.0944         estimate D2E/DX2                !
 ! R48   R(41,46)                1.0936         estimate D2E/DX2                !
 ! A1    A(2,1,6)              120.03           estimate D2E/DX2                !
 ! A2    A(2,1,24)             120.7703         estimate D2E/DX2                !
 ! A3    A(6,1,24)             119.1641         estimate D2E/DX2                !
 ! A4    A(1,2,3)              119.1561         estimate D2E/DX2                !
 ! A5    A(1,2,7)              122.2027         estimate D2E/DX2                !
 ! A6    A(3,2,7)              118.6344         estimate D2E/DX2                !
 ! A7    A(2,3,4)              120.3671         estimate D2E/DX2                !
 ! A8    A(2,3,20)             119.7618         estimate D2E/DX2                !
 ! A9    A(4,3,20)             119.8665         estimate D2E/DX2                !
 ! A10   A(3,4,5)              119.9812         estimate D2E/DX2                !
 ! A11   A(3,4,21)             119.6962         estimate D2E/DX2                !
 ! A12   A(5,4,21)             120.3216         estimate D2E/DX2                !
 ! A13   A(4,5,6)              120.2309         estimate D2E/DX2                !
 ! A14   A(4,5,22)             119.8944         estimate D2E/DX2                !
 ! A15   A(6,5,22)             119.8745         estimate D2E/DX2                !
 ! A16   A(1,6,5)              120.2273         estimate D2E/DX2                !
 ! A17   A(1,6,23)             119.5871         estimate D2E/DX2                !
 ! A18   A(5,6,23)             120.1855         estimate D2E/DX2                !
 ! A19   A(2,7,8)              123.0816         estimate D2E/DX2                !
 ! A20   A(2,7,14)             120.4073         estimate D2E/DX2                !
 ! A21   A(8,7,14)             116.5008         estimate D2E/DX2                !
 ! A22   A(7,8,9)              116.0643         estimate D2E/DX2                !
 ! A23   A(7,8,25)             104.0932         estimate D2E/DX2                !
 ! A24   A(7,8,26)             109.31           estimate D2E/DX2                !
 ! A25   A(9,8,25)             109.1106         estimate D2E/DX2                !
 ! A26   A(9,8,26)             112.0453         estimate D2E/DX2                !
 ! A27   A(25,8,26)            105.3925         estimate D2E/DX2                !
 ! A28   A(8,9,10)             112.1847         estimate D2E/DX2                !
 ! A29   A(8,9,27)             107.6407         estimate D2E/DX2                !
 ! A30   A(8,9,28)             110.483          estimate D2E/DX2                !
 ! A31   A(10,9,27)            110.126          estimate D2E/DX2                !
 ! A32   A(10,9,28)            109.9392         estimate D2E/DX2                !
 ! A33   A(27,9,28)            106.2732         estimate D2E/DX2                !
 ! A34   A(9,10,11)            112.2408         estimate D2E/DX2                !
 ! A35   A(9,10,29)            109.0332         estimate D2E/DX2                !
 ! A36   A(9,10,30)            107.7519         estimate D2E/DX2                !
 ! A37   A(11,10,29)           111.4089         estimate D2E/DX2                !
 ! A38   A(11,10,30)           109.901          estimate D2E/DX2                !
 ! A39   A(29,10,30)           106.2649         estimate D2E/DX2                !
 ! A40   A(10,11,12)           127.7161         estimate D2E/DX2                !
 ! A41   A(10,11,31)           114.7154         estimate D2E/DX2                !
 ! A42   A(12,11,31)           117.404          estimate D2E/DX2                !
 ! A43   A(11,12,13)           125.0966         estimate D2E/DX2                !
 ! A44   A(11,12,17)           120.3679         estimate D2E/DX2                !
 ! A45   A(13,12,17)           114.3917         estimate D2E/DX2                !
 ! A46   A(12,13,35)           109.778          estimate D2E/DX2                !
 ! A47   A(12,13,36)           111.2213         estimate D2E/DX2                !
 ! A48   A(12,13,37)           113.7247         estimate D2E/DX2                !
 ! A49   A(35,13,36)           106.41           estimate D2E/DX2                !
 ! A50   A(35,13,37)           107.6886         estimate D2E/DX2                !
 ! A51   A(36,13,37)           107.6959         estimate D2E/DX2                !
 ! A52   A(7,14,15)            141.6353         estimate D2E/DX2                !
 ! A53   A(14,15,16)           105.1882         estimate D2E/DX2                !
 ! A54   A(14,15,18)           105.3466         estimate D2E/DX2                !
 ! A55   A(14,15,19)           107.086          estimate D2E/DX2                !
 ! A56   A(16,15,18)           113.775          estimate D2E/DX2                !
 ! A57   A(16,15,19)           112.7867         estimate D2E/DX2                !
 ! A58   A(18,15,19)           111.8978         estimate D2E/DX2                !
 ! A59   A(12,17,32)           112.042          estimate D2E/DX2                !
 ! A60   A(12,17,33)           111.1873         estimate D2E/DX2                !
 ! A61   A(12,17,34)           110.721          estimate D2E/DX2                !
 ! A62   A(32,17,33)           108.4269         estimate D2E/DX2                !
 ! A63   A(32,17,34)           108.0356         estimate D2E/DX2                !
 ! A64   A(33,17,34)           106.1958         estimate D2E/DX2                !
 ! A65   A(8,26,38)            110.0229         estimate D2E/DX2                !
 ! A66   A(8,26,39)            124.8445         estimate D2E/DX2                !
 ! A67   A(38,26,39)           125.1284         estimate D2E/DX2                !
 ! A68   A(26,38,40)           116.8374         estimate D2E/DX2                !
 ! A69   A(38,40,41)           107.5201         estimate D2E/DX2                !
 ! A70   A(38,40,42)           107.9011         estimate D2E/DX2                !
 ! A71   A(38,40,43)           108.0115         estimate D2E/DX2                !
 ! A72   A(41,40,42)           112.4178         estimate D2E/DX2                !
 ! A73   A(41,40,43)           112.6752         estimate D2E/DX2                !
 ! A74   A(42,40,43)           108.1249         estimate D2E/DX2                !
 ! A75   A(40,41,44)           109.3151         estimate D2E/DX2                !
 ! A76   A(40,41,45)           110.9656         estimate D2E/DX2                !
 ! A77   A(40,41,46)           110.9162         estimate D2E/DX2                !
 ! A78   A(44,41,45)           108.3684         estimate D2E/DX2                !
 ! A79   A(44,41,46)           108.6327         estimate D2E/DX2                !
 ! A80   A(45,41,46)           108.5751         estimate D2E/DX2                !
 ! D1    D(6,1,2,3)             -0.4337         estimate D2E/DX2                !
 ! D2    D(6,1,2,7)            178.607          estimate D2E/DX2                !
 ! D3    D(24,1,2,3)          -178.2462         estimate D2E/DX2                !
 ! D4    D(24,1,2,7)             0.7945         estimate D2E/DX2                !
 ! D5    D(2,1,6,5)              0.8863         estimate D2E/DX2                !
 ! D6    D(2,1,6,23)          -178.9995         estimate D2E/DX2                !
 ! D7    D(24,1,6,5)           178.7339         estimate D2E/DX2                !
 ! D8    D(24,1,6,23)           -1.1519         estimate D2E/DX2                !
 ! D9    D(1,2,3,4)             -0.3588         estimate D2E/DX2                !
 ! D10   D(1,2,3,20)          -179.5798         estimate D2E/DX2                !
 ! D11   D(7,2,3,4)           -179.434          estimate D2E/DX2                !
 ! D12   D(7,2,3,20)             1.345          estimate D2E/DX2                !
 ! D13   D(1,2,7,8)             13.7439         estimate D2E/DX2                !
 ! D14   D(1,2,7,14)          -165.0513         estimate D2E/DX2                !
 ! D15   D(3,2,7,8)           -167.2106         estimate D2E/DX2                !
 ! D16   D(3,2,7,14)            13.9943         estimate D2E/DX2                !
 ! D17   D(2,3,4,5)              0.6971         estimate D2E/DX2                !
 ! D18   D(2,3,4,21)          -179.6582         estimate D2E/DX2                !
 ! D19   D(20,3,4,5)           179.9173         estimate D2E/DX2                !
 ! D20   D(20,3,4,21)           -0.438          estimate D2E/DX2                !
 ! D21   D(3,4,5,6)             -0.2455         estimate D2E/DX2                !
 ! D22   D(3,4,5,22)           179.6015         estimate D2E/DX2                !
 ! D23   D(21,4,5,6)          -179.888          estimate D2E/DX2                !
 ! D24   D(21,4,5,22)           -0.0409         estimate D2E/DX2                !
 ! D25   D(4,5,6,1)             -0.5503         estimate D2E/DX2                !
 ! D26   D(4,5,6,23)           179.3348         estimate D2E/DX2                !
 ! D27   D(22,5,6,1)           179.6027         estimate D2E/DX2                !
 ! D28   D(22,5,6,23)           -0.5123         estimate D2E/DX2                !
 ! D29   D(2,7,8,9)             57.5784         estimate D2E/DX2                !
 ! D30   D(2,7,8,25)           177.4836         estimate D2E/DX2                !
 ! D31   D(2,7,8,26)           -70.3098         estimate D2E/DX2                !
 ! D32   D(14,7,8,9)          -123.5827         estimate D2E/DX2                !
 ! D33   D(14,7,8,25)           -3.6775         estimate D2E/DX2                !
 ! D34   D(14,7,8,26)          108.5291         estimate D2E/DX2                !
 ! D35   D(2,7,14,15)           61.1116         estimate D2E/DX2                !
 ! D36   D(8,7,14,15)         -117.7603         estimate D2E/DX2                !
 ! D37   D(7,8,9,10)            73.5287         estimate D2E/DX2                !
 ! D38   D(7,8,9,27)          -165.1656         estimate D2E/DX2                !
 ! D39   D(7,8,9,28)           -49.5279         estimate D2E/DX2                !
 ! D40   D(25,8,9,10)          -43.6233         estimate D2E/DX2                !
 ! D41   D(25,8,9,27)           77.6824         estimate D2E/DX2                !
 ! D42   D(25,8,9,28)         -166.6799         estimate D2E/DX2                !
 ! D43   D(26,8,9,10)         -159.9429         estimate D2E/DX2                !
 ! D44   D(26,8,9,27)          -38.6372         estimate D2E/DX2                !
 ! D45   D(26,8,9,28)           77.0004         estimate D2E/DX2                !
 ! D46   D(7,8,26,38)          -64.6373         estimate D2E/DX2                !
 ! D47   D(7,8,26,39)          116.0728         estimate D2E/DX2                !
 ! D48   D(9,8,26,38)          165.2582         estimate D2E/DX2                !
 ! D49   D(9,8,26,39)          -14.0317         estimate D2E/DX2                !
 ! D50   D(25,8,26,38)          46.7136         estimate D2E/DX2                !
 ! D51   D(25,8,26,39)        -132.5763         estimate D2E/DX2                !
 ! D52   D(8,9,10,11)          -60.284          estimate D2E/DX2                !
 ! D53   D(8,9,10,29)           63.6499         estimate D2E/DX2                !
 ! D54   D(8,9,10,30)          178.581          estimate D2E/DX2                !
 ! D55   D(27,9,10,11)         179.8486         estimate D2E/DX2                !
 ! D56   D(27,9,10,29)         -56.2174         estimate D2E/DX2                !
 ! D57   D(27,9,10,30)          58.7137         estimate D2E/DX2                !
 ! D58   D(28,9,10,11)          63.0784         estimate D2E/DX2                !
 ! D59   D(28,9,10,29)        -172.9876         estimate D2E/DX2                !
 ! D60   D(28,9,10,30)         -58.0565         estimate D2E/DX2                !
 ! D61   D(9,10,11,12)         103.6059         estimate D2E/DX2                !
 ! D62   D(9,10,11,31)         -71.5695         estimate D2E/DX2                !
 ! D63   D(29,10,11,12)        -18.9941         estimate D2E/DX2                !
 ! D64   D(29,10,11,31)        165.8305         estimate D2E/DX2                !
 ! D65   D(30,10,11,12)       -136.5026         estimate D2E/DX2                !
 ! D66   D(30,10,11,31)         48.3221         estimate D2E/DX2                !
 ! D67   D(10,11,12,13)          7.7402         estimate D2E/DX2                !
 ! D68   D(10,11,12,17)       -176.8694         estimate D2E/DX2                !
 ! D69   D(31,11,12,13)       -177.1968         estimate D2E/DX2                !
 ! D70   D(31,11,12,17)         -1.8064         estimate D2E/DX2                !
 ! D71   D(11,12,13,35)        119.922          estimate D2E/DX2                !
 ! D72   D(11,12,13,36)       -122.5819         estimate D2E/DX2                !
 ! D73   D(11,12,13,37)         -0.7905         estimate D2E/DX2                !
 ! D74   D(17,12,13,35)        -55.7115         estimate D2E/DX2                !
 ! D75   D(17,12,13,36)         61.7846         estimate D2E/DX2                !
 ! D76   D(17,12,13,37)       -176.424          estimate D2E/DX2                !
 ! D77   D(11,12,17,32)          3.0071         estimate D2E/DX2                !
 ! D78   D(11,12,17,33)        124.5195         estimate D2E/DX2                !
 ! D79   D(11,12,17,34)       -117.6757         estimate D2E/DX2                !
 ! D80   D(13,12,17,32)        178.8668         estimate D2E/DX2                !
 ! D81   D(13,12,17,33)        -59.6208         estimate D2E/DX2                !
 ! D82   D(13,12,17,34)         58.184          estimate D2E/DX2                !
 ! D83   D(7,14,15,16)         126.3186         estimate D2E/DX2                !
 ! D84   D(7,14,15,18)           5.8087         estimate D2E/DX2                !
 ! D85   D(7,14,15,19)        -113.4633         estimate D2E/DX2                !
 ! D86   D(8,26,38,40)         179.6143         estimate D2E/DX2                !
 ! D87   D(39,26,38,40)         -1.0983         estimate D2E/DX2                !
 ! D88   D(26,38,40,41)        176.3513         estimate D2E/DX2                !
 ! D89   D(26,38,40,42)        -62.1671         estimate D2E/DX2                !
 ! D90   D(26,38,40,43)         54.4989         estimate D2E/DX2                !
 ! D91   D(38,40,41,44)        179.7523         estimate D2E/DX2                !
 ! D92   D(38,40,41,45)        -60.7824         estimate D2E/DX2                !
 ! D93   D(38,40,41,46)         59.9908         estimate D2E/DX2                !
 ! D94   D(42,40,41,44)         61.1382         estimate D2E/DX2                !
 ! D95   D(42,40,41,45)       -179.3966         estimate D2E/DX2                !
 ! D96   D(42,40,41,46)        -58.6234         estimate D2E/DX2                !
 ! D97   D(43,40,41,44)        -61.3462         estimate D2E/DX2                !
 ! D98   D(43,40,41,45)         58.1191         estimate D2E/DX2                !
 ! D99   D(43,40,41,46)        178.8923         estimate D2E/DX2                !
 --------------------------------------------------------------------------------
 Trust Radius=3.00D-01 FncErr=1.00D-07 GrdErr=1.00D-06 EigMax=2.50D+02 EigMin=1.00D-04
 Number of steps in this run=    237 maximum allowed number of steps=    276.
 GradGradGradGradGradGradGradGradGradGradGradGradGradGradGradGradGradGrad

 Leave Link  103 at Sun Jun 20 09:30:53 2021, MaxMem=  2147483648 cpu:               0.3 elap:               0.1
 (Enter /SFS/product/gaussian/g16.a03/x86_64/avx/g16/l202.exe)
                          Input orientation:                          
 ---------------------------------------------------------------------
 Center     Atomic      Atomic             Coordinates (Angstroms)
 Number     Number       Type             X           Y           Z
 ---------------------------------------------------------------------
      1          6           0        2.731037   -0.190658    1.506082
      2          6           0        1.435682   -0.609623    1.131887
      3          6           0        0.676912   -1.386719    2.033620
      4          6           0        1.201844   -1.740258    3.269592
      5          6           0        2.483184   -1.313815    3.632423
      6          6           0        3.241281   -0.536192    2.752917
      7          6           0        0.839099   -0.247344   -0.158506
      8          6           0        1.647565    0.337086   -1.316871
      9          6           0        2.833376   -0.519173   -1.817732
     10          6           0        2.364572   -1.749556   -2.623227
     11          6           0        1.493567   -2.666887   -1.806985
     12          6           0        0.155707   -2.800210   -1.866000
     13          6           0       -0.734744   -2.156807   -2.898294
     14          8           0       -0.395372   -0.389419   -0.351272
     15         26           0       -2.140679    0.221102    0.317952
     16         17           0       -3.199393    0.969109   -1.442525
     17          6           0       -0.561189   -3.726719   -0.915170
     18         17           0       -1.684145    1.770901    1.799285
     19         17           0       -3.126730   -1.517500    1.228660
     20          1           0       -0.315882   -1.719384    1.753760
     21          1           0        0.610960   -2.342844    3.952376
     22          1           0        2.889985   -1.585827    4.602482
     23          1           0        4.231813   -0.196434    3.039697
     24          1           0        3.325057    0.430061    0.846099
     25          1           0        0.916707    0.444400   -2.124554
     26          6           0        2.080859    1.776249   -0.962271
     27          1           0        3.464981    0.121502   -2.441960
     28          1           0        3.456527   -0.838725   -0.977535
     29          1           0        1.849262   -1.409075   -3.527954
     30          1           0        3.259531   -2.288160   -2.963162
     31          1           0        2.020598   -3.227296   -1.032716
     32          1           0        0.123522   -4.187327   -0.195818
     33          1           0       -1.343687   -3.195653   -0.358253
     34          1           0       -1.068727   -4.531321   -1.464973
     35          1           0       -1.271933   -2.932209   -3.460951
     36          1           0       -1.500461   -1.529925   -2.426561
     37          1           0       -0.195859   -1.537127   -3.618787
     38          8           0        1.006633    2.561743   -0.845712
     39          8           0        3.229009    2.139744   -0.824371
     40          6           0        1.246658    3.959003   -0.503045
     41          6           0       -0.091987    4.668100   -0.515636
     42          1           0        1.724289    3.986702    0.480982
     43          1           0        1.948760    4.370640   -1.233771
     44          1           0        0.054076    5.722604   -0.256892
     45          1           0       -0.552943    4.616873   -1.506897
     46          1           0       -0.777057    4.221786    0.210606
 ---------------------------------------------------------------------
                    Distance matrix (angstroms):
                    1          2          3          4          5
     1  C    0.000000
     2  C    1.411913   0.000000
     3  C    2.434808   1.411642   0.000000
     4  C    2.801724   2.429568   1.388586   0.000000
     5  C    2.417486   2.801040   2.413318   1.398332   0.000000
     6  C    1.390806   2.427616   2.795849   2.424053   1.397476
     7  C    2.520614   1.467062   2.475863   3.756625   4.267496
     8  C    3.069444   2.633926   3.890946   5.054668   5.283866
     9  C    3.341577   3.265269   4.498431   5.480311   5.518902
    10  C    4.428956   4.032761   4.966495   6.006441   6.271929
    11  C    4.317344   3.587848   4.129891   5.168692   5.691863
    12  C    4.981267   3.927383   4.180508   5.347168   6.152981
    13  C    5.939352   4.831862   5.187445   6.478171   7.329117
    14  O    3.641937   2.366645   2.798591   4.181689   5.001042
    15  Fe   5.031383   3.760712   3.669799   4.871506   5.892520
    16  Cl   6.723789   5.532080   5.714827   6.993969   7.953523
    17  C    5.404160   4.230156   3.962809   4.956465   5.980879
    18  Cl   4.840198   3.980658   3.949692   4.776921   5.499318
    19  Cl   6.012562   4.652871   3.890084   4.790780   6.106611
    20  H    3.417903   2.164780   1.083802   2.145151   3.395384
    21  H    3.887285   3.411654   2.144796   1.085563   2.160207
    22  H    3.399920   3.887544   3.396526   2.156447   1.086505
    23  H    2.145772   3.410105   3.881532   3.408366   2.158140
    24  H    1.083388   2.175398   3.423970   3.884796   3.393148
    25  H    4.108115   3.461894   4.549825   5.826735   6.219964
    26  C    3.222456   3.239465   4.577204   5.571997   5.551718
    27  H    4.027798   4.174324   5.484421   6.419483   6.318401
    28  H    2.667336   2.930181   4.134442   4.892284   4.735485
    29  H    5.253911   4.745976   5.683838   6.836334   7.189015
    30  H    4.965175   4.786788   5.696521   6.586463   6.712213
    31  H    4.021367   3.446715   3.820423   4.625094   5.063489
    32  H    5.066454   4.035410   3.622160   4.377213   5.336713
    33  H    5.395286   4.078353   3.616092   4.664672   5.840527
    34  H    6.488970   5.328739   5.017562   5.946565   6.996561
    35  H    6.943435   5.815475   6.031322   7.269149   8.187555
    36  H    5.929999   4.704301   4.965347   6.308158   7.254476
    37  H    6.053427   5.107944   5.721368   7.031686   7.733511
    38  O    4.010014   3.761987   4.897920   5.956597   6.103593
    39  O    3.333131   3.821255   5.207423   5.993692   5.687384
    40  C    4.843517   4.856035   5.944411   6.834938   6.814228
    41  C    5.971963   5.736067   6.614435   7.554403   7.721477
    42  H    4.417545   4.651148   5.690460   6.391194   6.213130
    43  H    5.378122   5.537383   6.740966   7.627663   7.501899
    44  H    6.726133   6.628321   7.495121   8.333533   8.398722
    45  H    6.555526   6.183371   7.077494   8.142926   8.414496
    46  H    5.783999   5.393282   6.073939   6.987089   7.278797
                    6          7          8          9         10
     6  C    0.000000
     7  C    3.785538   0.000000
     8  C    4.457098   1.528720   0.000000
     9  C    4.588846   2.608460   1.546024   0.000000
    10  C    5.580663   3.264745   2.564126   1.543516   0.000000
    11  C    5.327952   3.000000   3.047586   2.531379   1.505456
    12  C    5.998411   3.146377   3.517074   3.517865   2.560537
    13  C    7.097278   3.691811   3.794179   4.071970   3.138037
    14  O    4.783595   1.257483   2.373559   3.548543   3.824793
    15  Fe   5.955505   3.053773   4.127577   5.463550   5.729862
    16  Cl   7.832621   4.408841   4.889606   6.224955   6.304197
    17  C    6.171961   3.826147   4.642679   4.756684   3.922590
    18  Cl   5.521948   3.777965   4.781898   6.223765   6.953009
    19  Cl   6.621019   4.389228   5.719538   6.767572   6.711578
    20  H    3.879648   2.675377   4.184850   4.910589   5.132617
    21  H    3.409000   4.619796   6.001795   6.446631   6.831230
    22  H    2.155466   5.353940   6.346648   6.508464   7.246636
    23  H    1.085740   4.662789   5.093394   5.065018   6.161776
    24  H    2.139303   2.765519   2.738807   2.870329   4.208264
    25  H    5.491350   2.085636   1.094542   2.167079   2.675524
    26  C    4.527315   2.506578   1.544239   2.562627   3.907758
    27  H    5.241121   3.499352   2.148326   1.095011   2.178214
    28  H    3.748884   2.805614   2.184038   1.093783   2.174921
    29  H    6.492225   3.704488   2.824650   2.164547   1.095446
    30  H    5.978569   4.229600   3.492939   2.150101   1.098454
    31  H    4.802408   3.322694   3.595096   2.934414   2.198126
    32  H    5.634381   4.004611   4.904057   4.840379   4.105770
    33  H    6.146059   3.673824   4.727238   5.171216   4.579573
    34  H    7.233797   4.868174   5.576878   5.607868   4.568075
    35  H    8.045008   4.750905   4.879430   5.037507   3.914667
    36  H    7.092152   3.501804   3.824554   4.491596   3.876260
    37  H    7.308517   3.835130   3.494239   3.668282   2.755372
    38  O    5.247950   2.896772   2.362601   3.711315   4.857042
    39  O    4.467412   3.442853   2.448080   2.865856   4.371474
    40  C    5.898016   4.240067   3.733808   4.929517   6.191329
    41  C    6.991335   5.015581   4.735578   6.095983   7.187693
    42  H    5.283893   4.372602   4.069135   5.178520   6.553681
    43  H    6.453006   4.869632   4.045637   5.003382   6.289697
    44  H    7.641319   6.022144   5.715467   7.008603   8.171359
    45  H    7.687407   5.236081   4.816111   6.159768   7.091509
    46  H    6.726718   4.766689   4.827305   6.294924   7.318290
                   11         12         13         14         15
    11  C    0.000000
    12  C    1.345781   0.000000
    13  C    2.533082   1.507482   0.000000
    14  O    3.297583   2.900000   3.118678   0.000000
    15  Fe   5.105250   4.378511   4.239734   1.966391   0.000000
    16  Cl   5.947871   5.063970   4.238527   3.301358   2.186245
    17  C    2.478023   1.508786   2.535257   3.388665   4.427264
    18  Cl   6.541942   6.141207   6.196410   3.309504   2.191951
    19  Cl   5.646537   4.690060   4.812698   3.350980   2.196457
    20  H    4.104969   3.806999   4.691310   2.491242   3.026039
    21  H    5.835601   5.854053   6.984068   4.832180   5.230141
    22  H    6.648304   7.126869   8.350229   6.063385   6.850531
    23  H    6.090275   6.889133   7.985580   5.739926   6.941966
    24  H    4.470380   5.275880   6.098717   3.993349   5.495168
    25  H    3.180208   3.342673   3.176829   2.358248   3.919605
    26  C    4.560692   5.046475   5.210061   3.345917   4.677482
    27  H    3.473439   4.451901   4.799648   4.419767   6.249037
    28  H    2.807735   3.941092   4.795144   3.928258   5.842109
    29  H    2.161098   2.750541   2.762727   4.021118   5.776513
    30  H    2.144483   3.331619   3.996961   4.877038   6.798851
    31  H    1.091473   2.086764   3.495460   3.788776   5.570635
    32  H    2.604730   2.171322   3.487551   3.836342   4.982450
    33  H    3.229308   2.162836   2.811018   2.962144   3.573047
    34  H    3.187230   2.157964   2.793612   4.341554   5.187815
    35  H    3.233263   2.144632   1.098364   4.111477   4.997819
    36  H    3.262018   2.161191   1.096283   2.613197   3.317880
    37  H    2.722709   2.188890   1.092479   3.468961   4.729863
    38  O    5.338513   5.524093   5.432329   3.304459   4.091245
    39  O    5.203940   5.910442   6.202648   4.444843   5.815465
    40  C    6.757488   6.981030   6.860489   4.650599   5.110772
    41  C    7.614696   7.593450   7.257379   5.069276   4.966669
    42  H    7.039764   7.350575   7.430279   4.933158   5.398546
    43  H    7.075490   7.418615   7.251165   5.378840   6.029098
    44  H    8.652080   8.673979   8.347716   6.129253   5.950960
    45  H    7.571751   7.459508   6.917498   5.140356   5.017348
    46  H    7.528627   7.381786   7.096020   4.660966   4.228056
                   16         17         18         19         20
    16  Cl   0.000000
    17  C    5.411934   0.000000
    18  Cl   3.667176   6.233227   0.000000
    19  Cl   3.650169   4.007325   3.635966   0.000000
    20  H    5.075320   3.348545   3.749174   2.866593   0.000000
    21  H    7.388693   5.194425   5.179402   4.697888   2.466100
    22  H    8.952672   6.851168   6.328365   6.898420   4.290762
    23  H    8.756234   7.146800   6.356696   7.692414   4.965334
    24  H    6.935187   5.956828   5.272430   6.750178   4.324396
    25  H    4.205088   4.587485   4.890864   5.607359   4.608965
    26  C    5.363132   6.104531   4.669205   6.539721   5.033949
    27  H    6.791994   5.774940   6.871839   7.720779   5.940358
    28  H    6.912724   4.948378   6.399014   6.976196   4.739895
    29  H    5.957658   4.243629   7.139796   6.884594   5.716699
    30  H    7.391876   4.567453   7.974761   7.677865   5.946128
    31  H    6.710146   2.632274   6.835739   5.876411   3.936672
    32  H    6.259782   1.094740   6.538240   4.440862   3.175637
    33  H    4.686633   1.097493   5.425637   2.917830   2.774230
    34  H    5.898726   1.098755   7.124052   4.535874   4.339817
    35  H    4.796814   2.759965   7.068185   5.237760   5.438583
    36  H    3.178029   2.827090   5.365349   4.000693   4.349047
    37  H    4.476444   3.498189   6.520241   5.664639   5.376977
    38  O    4.536885   6.481330   3.855091   6.166679   5.180188
    39  O    6.563296   6.984929   5.581998   7.614840   5.840024
    40  C    5.439619   7.906230   4.321819   7.219239   6.307042
    41  C    4.919109   8.417408   4.035788   7.107312   6.782348
    42  H    6.086739   8.165140   4.273771   7.374798   6.192066
    43  H    6.173935   8.483429   5.399636   8.154407   7.151387
    44  H    5.881029   9.492186   4.781760   8.046334   7.717692
    45  H    4.507108   8.364552   4.506663   7.192926   7.129953
    46  H    4.379550   8.030735   3.058357   6.284648   6.155608
                   21         22         23         24         25
    21  H    0.000000
    22  H    2.487904   0.000000
    23  H    4.307045   2.484595   0.000000
    24  H    4.970340   4.285266   2.454908   0.000000
    25  H    6.692629   7.298538   6.170096   3.824282   0.000000
    26  C    6.578851   6.551696   4.953164   2.574967   2.116595
    27  H    7.423340   7.271159   5.544157   3.305468   2.588187
    28  H    5.887584   5.658244   4.141468   2.225476   3.068020
    29  H    7.639414   8.198679   7.090916   4.969178   2.504907
    30  H    7.405578   7.607155   6.430783   4.680116   3.695805
    31  H    5.255519   5.933440   5.537160   4.313678   3.986482
    32  H    4.565876   6.119216   6.578285   5.714516   5.079573
    33  H    4.809309   6.717471   7.185233   6.032697   4.634564
    34  H    6.079346   7.820572   8.196281   7.018668   5.397666
    35  H    7.671379   9.173508   8.946178   7.140578   4.239999
    36  H    6.768292   8.287737   8.032256   6.151217   3.135581
    37  H    7.656543   8.781462   8.107845   6.016800   2.719740
    38  O    6.872640   7.101561   5.753758   3.575106   2.475210
    39  O    7.054437   6.591324   4.625404   2.392219   3.148239
    40  C    7.743911   7.714407   6.223329   4.312002   3.884661
    41  C    8.343297   8.613878   7.416153   5.611728   4.630953
    42  H    7.304330   7.028420   5.507570   3.917329   4.470896
    43  H    8.588172   8.392095   6.658305   4.663498   4.156199
    44  H    9.114796   9.223289   7.959648   6.318775   5.664956
    45  H    8.921659   9.362251   8.169047   6.172914   4.466643
    46  H    7.682565   8.152554   7.253496   5.622132   4.752942
                   26         27         28         29         30
    26  C    0.000000
    27  H    2.616001   0.000000
    28  H    2.954790   1.751185   0.000000
    29  H    4.096664   2.476408   3.068100   0.000000
    30  H    4.681053   2.473931   2.466249   1.755175   0.000000
    31  H    5.004404   3.909816   2.787509   3.092167   2.478619
    32  H    6.323200   5.897161   4.788856   4.669046   4.593428
    33  H    6.067303   6.202309   5.383370   4.840846   5.366443
    34  H    7.068100   6.569458   5.860954   4.745416   5.100016
    35  H    6.297158   5.727290   5.736581   3.473656   4.603994
    36  H    5.089281   5.232883   5.210486   3.528217   4.849782
    37  H    4.818608   4.187806   4.561129   2.051138   3.596334
    38  O    1.335870   3.813956   4.193154   4.865372   5.751583
    39  O    1.212185   2.597225   2.991070   4.669816   4.917488
    40  C    2.381427   4.838054   5.303476   6.191080   7.009342
    41  C    3.644660   6.085581   6.567376   7.055109   8.100161
    42  H    2.663874   5.149113   5.330353   6.723213   7.320723
    43  H    2.611901   4.670527   5.429227   6.219187   7.003466
    44  H    4.492118   6.912390   7.426105   8.048813   9.042742
    45  H    3.911863   6.101345   6.791143   6.794653   8.020919
    46  H    3.940048   6.468641   6.704005   7.251274   8.291335
                   31         32         33         34         35
    31  H    0.000000
    32  H    2.284941   0.000000
    33  H    3.431372   1.778343   0.000000
    34  H    3.381014   1.774977   1.756258   0.000000
    35  H    4.101727   3.766127   3.114689   2.565615   0.000000
    36  H    4.149907   3.830838   2.660287   3.181104   1.757438
    37  H    3.802251   4.340770   3.833967   3.790252   1.768927
    38  O    5.880142   6.837558   6.237726   7.416344   6.497295
    39  O    5.505341   7.076083   7.042249   7.961408   7.275626
    40  C    7.247236   8.229126   7.610516   8.852791   7.910835
    41  C    8.189485   8.863821   7.964304   9.299710   8.236009
    42  H    7.377049   8.356750   7.855127   9.173025   8.508085
    43  H    7.600935   8.811790   8.297923   9.402318   8.286422
    44  H    9.196185   9.910363   9.027698  10.385717   9.323630
    45  H    8.269156   8.926952   7.936008   9.162819   7.830959
    46  H    8.053667   8.466960   7.460769   8.916811   8.056356
                   36         37         38         39         40
    36  H    0.000000
    37  H    1.767326   0.000000
    38  O    5.052361   5.092805   0.000000
    39  O    6.196884   5.749597   2.262188   0.000000
    40  C    6.432333   6.480444   1.458550   2.709736   0.000000
    41  C    6.637089   6.938673   2.398469   4.185321   1.514908
    42  H    7.020398   7.141972   2.075007   2.716502   1.094170
    43  H    6.938050   6.722306   2.076127   2.604524   1.093779
    44  H    7.728080   8.004280   3.353374   4.820697   2.143159
    45  H    6.287026   6.516080   2.663269   4.572217   2.163117
    46  H    6.368685   6.940254   2.655767   4.631915   2.161892
                   41         42         43         44         45
    41  C    0.000000
    42  H    2.180919   0.000000
    43  H    2.183769   1.771489   0.000000
    44  H    1.095564   2.519410   2.524268   0.000000
    45  H    1.094396   3.087809   2.528586   1.775845   0.000000
    46  H    1.093592   2.526875   3.088440   1.778143   1.776552
                   46
    46  H    0.000000
 Stoichiometry    C17H22Cl3FeO3(6)
 Framework group  C1[X(C17H22Cl3FeO3)]
 Deg. of freedom   132
 Full point group                 C1      NOp   1
 Largest Abelian subgroup         C1      NOp   1
 Largest concise Abelian subgroup C1      NOp   1
                         Standard orientation:                         
 ---------------------------------------------------------------------
 Center     Atomic      Atomic             Coordinates (Angstroms)
 Number     Number       Type             X           Y           Z
 ---------------------------------------------------------------------
      1          6           0        2.731037   -0.190658    1.506082
      2          6           0        1.435682   -0.609623    1.131887
      3          6           0        0.676912   -1.386719    2.033620
      4          6           0        1.201844   -1.740258    3.269592
      5          6           0        2.483184   -1.313815    3.632423
      6          6           0        3.241281   -0.536192    2.752917
      7          6           0        0.839099   -0.247344   -0.158506
      8          6           0        1.647565    0.337086   -1.316871
      9          6           0        2.833376   -0.519173   -1.817732
     10          6           0        2.364572   -1.749556   -2.623227
     11          6           0        1.493567   -2.666887   -1.806985
     12          6           0        0.155707   -2.800210   -1.866000
     13          6           0       -0.734744   -2.156807   -2.898294
     14          8           0       -0.395372   -0.389419   -0.351272
     15         26           0       -2.140679    0.221102    0.317952
     16         17           0       -3.199393    0.969109   -1.442525
     17          6           0       -0.561189   -3.726719   -0.915170
     18         17           0       -1.684145    1.770901    1.799285
     19         17           0       -3.126730   -1.517500    1.228660
     20          1           0       -0.315882   -1.719384    1.753760
     21          1           0        0.610960   -2.342844    3.952376
     22          1           0        2.889985   -1.585827    4.602482
     23          1           0        4.231813   -0.196434    3.039697
     24          1           0        3.325057    0.430061    0.846099
     25          1           0        0.916707    0.444400   -2.124554
     26          6           0        2.080859    1.776249   -0.962271
     27          1           0        3.464981    0.121502   -2.441960
     28          1           0        3.456527   -0.838725   -0.977535
     29          1           0        1.849262   -1.409075   -3.527954
     30          1           0        3.259531   -2.288160   -2.963162
     31          1           0        2.020598   -3.227296   -1.032716
     32          1           0        0.123522   -4.187327   -0.195818
     33          1           0       -1.343687   -3.195653   -0.358253
     34          1           0       -1.068727   -4.531321   -1.464973
     35          1           0       -1.271933   -2.932209   -3.460951
     36          1           0       -1.500461   -1.529925   -2.426561
     37          1           0       -0.195859   -1.537127   -3.618787
     38          8           0        1.006633    2.561743   -0.845712
     39          8           0        3.229009    2.139744   -0.824371
     40          6           0        1.246658    3.959003   -0.503045
     41          6           0       -0.091987    4.668100   -0.515636
     42          1           0        1.724289    3.986702    0.480982
     43          1           0        1.948760    4.370640   -1.233771
     44          1           0        0.054076    5.722604   -0.256892
     45          1           0       -0.552943    4.616873   -1.506897
     46          1           0       -0.777057    4.221786    0.210606
 ---------------------------------------------------------------------
 Rotational constants (GHZ):           0.1780780           0.1581787           0.1400205
 Leave Link  202 at Sun Jun 20 09:30:53 2021, MaxMem=  2147483648 cpu:               0.3 elap:               0.1
 (Enter /SFS/product/gaussian/g16.a03/x86_64/avx/g16/l301.exe)
 Standard basis: Jul-CC-pVDZ (5D, 7F)
 Ernie: Thresh=  0.10000D-02 Tol=  0.10000D-05 Strict=F.
 Ernie:  134 primitive shells out of 958 were deleted.
 There are   766 symmetry adapted cartesian basis functions of A   symmetry.
 There are   710 symmetry adapted basis functions of A   symmetry.
   710 basis functions,  1571 primitive gaussians,   766 cartesian basis functions
   115 alpha electrons      110 beta electrons
       nuclear repulsion energy      3279.6470733999 Hartrees.
 IExCor=  402 DFT=T Ex+Corr=B3LYP ExCW=0 ScaHFX=  0.200000
 ScaDFX=  0.800000  0.720000  1.000000  0.810000 ScalE2=  1.000000  1.000000
 IRadAn=      5 IRanWt=     -1 IRanGd=            0 ICorTp=0 IEmpDi=  4
 NAtoms=   46 NActive=   46 NUniq=   46 SFac= 1.00D+00 NAtFMM=   60 NAOKFM=F Big=F
 Integral buffers will be    131072 words long.
 Raffenetti 2 integral format.
 Two-electron integral symmetry is turned on.
 Leave Link  301 at Sun Jun 20 09:30:53 2021, MaxMem=  2147483648 cpu:               1.2 elap:               0.1
 (Enter /SFS/product/gaussian/g16.a03/x86_64/avx/g16/l302.exe)
 NPDir=0 NMtPBC=     1 NCelOv=     1 NCel=       1 NClECP=     1 NCelD=      1
         NCelK=      1 NCelE2=     1 NClLst=     1 CellRange=     0.0.
 One-electron integrals computed using PRISM.
 One-electron integral symmetry used in STVInt
 NBasis=   710 RedAO= T EigKep=  1.70D-06  NBF=   710
 NBsUse=   710 1.00D-06 EigRej= -1.00D+00 NBFU=   710
 Precomputing XC quadrature grid using
 IXCGrd= 4 IRadAn=           5 IRanWt=          -1 IRanGd=           0 AccXCQ= 0.00D+00.
 Generated NRdTot=       0 NPtTot=           0 NUsed=           0 NTot=          32
 NSgBfM=   765   765   765   765   765 MxSgAt=    46 MxSgA2=    46.
 Leave Link  302 at Sun Jun 20 09:30:55 2021, MaxMem=  2147483648 cpu:              25.8 elap:               1.7
 (Enter /SFS/product/gaussian/g16.a03/x86_64/avx/g16/l303.exe)
 DipDrv:  MaxL=1.
 Leave Link  303 at Sun Jun 20 09:30:55 2021, MaxMem=  2147483648 cpu:               3.4 elap:               0.3
 (Enter /SFS/product/gaussian/g16.a03/x86_64/avx/g16/l401.exe)
 ExpMin= 1.40D-02 ExpMax= 4.32D+06 ExpMxC= 4.91D+03 IAcc=3 IRadAn=         5 AccDes= 0.00D+00
 Harris functional with IExCor=  402 and IRadAn=       5 diagonalized for initial guess.
 HarFok:  IExCor=  402 AccDes= 0.00D+00 IRadAn=         5 IDoV= 1 UseB2=F ITyADJ=14
 ICtDFT=  3500011 ScaDFX=  1.000000  1.000000  1.000000  1.000000
 FoFCou: FMM=F IPFlag=           0 FMFlag=      100000 FMFlg1=           0
         NFxFlg=           0 DoJE=T BraDBF=F KetDBF=T FulRan=T
         wScrn=  0.000000 ICntrl=       500 IOpCl=  0 I1Cent=   200000004 NGrid=           0
         NMat0=    1 NMatS0=      1 NMatT0=    0 NMatD0=    1 NMtDS0=    0 NMtDT0=    0
 Petite list used in FoFCou.
 Harris En= -3531.14039086557    
 JPrj=0 DoOrth=F DoCkMO=F.
 Initial guess <Sx>= 0.0000 <Sy>= 0.0000 <Sz>= 2.5000 <S**2>= 8.7500 S= 2.5000
 Leave Link  401 at Sun Jun 20 09:31:04 2021, MaxMem=  2147483648 cpu:             130.0 elap:               8.2
 (Enter /SFS/product/gaussian/g16.a03/x86_64/avx/g16/l502.exe)
 Integral symmetry usage will be decided dynamically.
 UHF open shell SCF:
 Using DIIS extrapolation, IDIIS=  1040.
 NGot=  2147483648 LenX=  2146290678 LenY=  2145703156
 Requested convergence on RMS density matrix=1.00D-08 within 128 cycles.
 Requested convergence on MAX density matrix=1.00D-06.
 Requested convergence on             energy=1.00D-06.
 No special actions if energy rises.
 Fock matrices will be formed incrementally for  20 cycles.

 Cycle   1  Pass 1  IDiag  1:
 FoFJK:  IHMeth= 1 ICntrl=       0 DoSepK=F KAlg= 0 I1Cent=           0 FoldK=F
 IRaf= 920000000 NMat=       1 IRICut=       1 DoRegI=T DoRafI=F ISym2E= 0 IDoP0=0 IntGTp=1.
 FoFCou: FMM=F IPFlag=           0 FMFlag=      100000 FMFlg1=           0
         NFxFlg=           0 DoJE=F BraDBF=F KetDBF=F FulRan=T
         wScrn=  0.000000 ICntrl=         0 IOpCl=  1 I1Cent=           0 NGrid=           0
         NMat0=    1 NMatS0=      1 NMatT0=    0 NMatD0=    1 NMtDS0=    0 NMtDT0=    0
 Symmetry not used in FoFCou.
 E= -3530.43364719158    
 DIIS: error= 2.82D-02 at cycle   1 NSaved=   1.
 NSaved= 1 IEnMin= 1 EnMin= -3530.43364719158     IErMin= 1 ErrMin= 2.82D-02
 ErrMax= 2.82D-02  0.00D+00 EMaxC= 1.00D-01 BMatC= 4.34D+00 BMatP= 4.34D+00
 IDIUse=3 WtCom= 7.18D-01 WtEn= 2.82D-01
 Coeff-Com:  0.100D+01
 Coeff-En:   0.100D+01
 Coeff:      0.100D+01
 Gap=     0.210 Goal=   None    Shift=    0.000
 Gap=     0.049 Goal=   None    Shift=    0.000
 GapD=    0.049 DampG=0.250 DampE=0.250 DampFc=0.1250 IDamp=-1.
 Damping current iteration by 1.25D-01
 RMSDP=3.07D-02 MaxDP=8.20D+00              OVMax= 7.89D-01

 Cycle   2  Pass 1  IDiag  1:
 RMSU=  1.80D-03    CP:  9.53D-01
 E= -3530.73528168707     Delta-E=       -0.301634495497 Rises=F Damp=T
 DIIS: error= 7.23D-03 at cycle   2 NSaved=   2.
 NSaved= 2 IEnMin= 2 EnMin= -3530.73528168707     IErMin= 2 ErrMin= 7.23D-03
 ErrMax= 7.23D-03  0.00D+00 EMaxC= 1.00D-01 BMatC= 1.21D+00 BMatP= 4.34D+00
 IDIUse=3 WtCom= 9.28D-01 WtEn= 7.23D-02
 Coeff-Com: -0.406D+00 0.141D+01
 Coeff-En:   0.000D+00 0.100D+01
 Coeff:     -0.377D+00 0.138D+01
 Gap=     0.351 Goal=   None    Shift=    0.000
 Gap=     0.017 Goal=   None    Shift=    0.000
 RMSDP=2.71D-02 MaxDP=7.70D+00 DE=-3.02D-01 OVMax= 9.87D-01

 Cycle   3  Pass 1  IDiag  1:
 RMSU=  7.15D-03    CP:  6.00D-01  3.00D+00
 E= -3530.19370007380     Delta-E=        0.541581613275 Rises=F Damp=F
 DIIS: error= 4.27D-02 at cycle   3 NSaved=   3.
 NSaved= 3 IEnMin= 2 EnMin= -3530.73528168707     IErMin= 2 ErrMin= 7.23D-03
 ErrMax= 4.27D-02  0.00D+00 EMaxC= 1.00D-01 BMatC= 5.87D+00 BMatP= 1.21D+00
 IDIUse=2 WtCom= 0.00D+00 WtEn= 1.00D+00
 Coeff-En:   0.000D+00 0.714D+00 0.286D+00
 Coeff:      0.000D+00 0.714D+00 0.286D+00
 Gap=    -0.057 Goal=   None    Shift=    0.000
 Gap=     0.215 Goal=   None    Shift=    0.000
 RMSDP=6.78D-03 MaxDP=6.38D-01 DE= 5.42D-01 OVMax= 7.09D-01

 Cycle   4  Pass 1  IDiag  1:
 RMSU=  5.16D-03    CP:  6.15D-01  3.00D+00  4.05D-01
 E= -3521.58997339841     Delta-E=        8.603726675389 Rises=F Damp=F
 DIIS: error= 1.49D-01 at cycle   4 NSaved=   4.
 NSaved= 4 IEnMin= 2 EnMin= -3530.73528168707     IErMin= 2 ErrMin= 7.23D-03
 ErrMax= 1.49D-01  0.00D+00 EMaxC= 1.00D-01 BMatC= 4.63D+01 BMatP= 1.21D+00
 IDIUse=2 WtCom= 0.00D+00 WtEn= 1.00D+00
 EnCoef did   100 forward-backward iterations
 Coeff-En:   0.361D+00 0.205D-01 0.445D+00 0.174D+00
 Coeff:      0.361D+00 0.205D-01 0.445D+00 0.174D+00
 Gap=     0.098 Goal=   None    Shift=    0.000
 Gap=     0.026 Goal=   None    Shift=    0.000
 RMSDP=4.94D-03 MaxDP=7.64D-01 DE= 8.60D+00 OVMax= 9.88D-01

 Cycle   5  Pass 1  IDiag  1:
 RMSU=  3.51D-03    CP:  6.33D-01  3.00D+00  6.22D-01  4.52D-01
 E= -3530.59224762869     Delta-E=       -9.002274230277 Rises=F Damp=F
 DIIS: error= 4.46D-02 at cycle   5 NSaved=   5.
 NSaved= 5 IEnMin= 2 EnMin= -3530.73528168707     IErMin= 2 ErrMin= 7.23D-03
 ErrMax= 4.46D-02  0.00D+00 EMaxC= 1.00D-01 BMatC= 5.81D+00 BMatP= 1.21D+00
 IDIUse=2 WtCom= 0.00D+00 WtEn= 1.00D+00
 Coeff-En:   0.000D+00 0.000D+00 0.437D+00 0.000D+00 0.563D+00
 Coeff:      0.000D+00 0.000D+00 0.437D+00 0.000D+00 0.563D+00
 Gap=     0.200 Goal=   None    Shift=    0.000
 Gap=     0.058 Goal=   None    Shift=    0.000
 RMSDP=3.63D-03 MaxDP=5.47D-01 DE=-9.00D+00 OVMax= 3.73D-01

 Cycle   6  Pass 1  IDiag  1:
 RMSU=  2.50D-03    CP:  6.53D-01  2.73D+00  6.39D-01  1.98D-01  5.81D-01
 E= -3531.21480546550     Delta-E=       -0.622557836818 Rises=F Damp=F
 DIIS: error= 2.19D-02 at cycle   6 NSaved=   6.
 NSaved= 6 IEnMin= 6 EnMin= -3531.21480546550     IErMin= 2 ErrMin= 7.23D-03
 ErrMax= 2.19D-02  0.00D+00 EMaxC= 1.00D-01 BMatC= 1.24D+00 BMatP= 1.21D+00
 IDIUse=3 WtCom= 7.81D-01 WtEn= 2.19D-01
 Coeff-Com: -0.428D+00 0.767D+00 0.234D+00 0.247D-02 0.128D+00 0.297D+00
 Coeff-En:   0.000D+00 0.000D+00 0.000D+00 0.000D+00 0.288D+00 0.712D+00
 Coeff:     -0.334D+00 0.599D+00 0.183D+00 0.193D-02 0.163D+00 0.388D+00
 Gap=     0.124 Goal=   None    Shift=    0.000
 Gap=     0.115 Goal=   None    Shift=    0.000
 RMSDP=3.01D-03 MaxDP=5.96D-01 DE=-6.23D-01 OVMax= 1.65D-01

 Cycle   7  Pass 1  IDiag  1:
 RMSU=  1.33D-03    CP:  6.34D-01  3.00D+00  6.84D-01  2.76D-01  7.75D-01
                    CP:  1.85D-01
 E= -3531.40778382031     Delta-E=       -0.192978354801 Rises=F Damp=F
 DIIS: error= 3.07D-03 at cycle   7 NSaved=   7.
 NSaved= 7 IEnMin= 7 EnMin= -3531.40778382031     IErMin= 7 ErrMin= 3.07D-03
 ErrMax= 3.07D-03  0.00D+00 EMaxC= 1.00D-01 BMatC= 1.61D-01 BMatP= 1.21D+00
 IDIUse=3 WtCom= 9.69D-01 WtEn= 3.07D-02
 Coeff-Com: -0.151D+00 0.207D+00 0.990D-02 0.786D-02 0.131D-02 0.300D+00
 Coeff-Com:  0.625D+00
 Coeff-En:   0.000D+00 0.000D+00 0.000D+00 0.000D+00 0.000D+00 0.161D+00
 Coeff-En:   0.839D+00
 Coeff:     -0.146D+00 0.200D+00 0.959D-02 0.762D-02 0.127D-02 0.296D+00
 Coeff:      0.631D+00
 Gap=     0.129 Goal=   None    Shift=    0.000
 Gap=     0.131 Goal=   None    Shift=    0.000
 RMSDP=1.07D-03 MaxDP=9.20D-02 DE=-1.93D-01 OVMax= 6.30D-02

 Cycle   8  Pass 1  IDiag  1:
 RMSU=  8.21D-04    CP:  6.32D-01  3.00D+00  6.80D-01  2.79D-01  7.74D-01
                    CP:  4.28D-01  7.80D-01
 E= -3531.43624209557     Delta-E=       -0.028458275260 Rises=F Damp=F
 DIIS: error= 4.18D-03 at cycle   8 NSaved=   8.
 NSaved= 8 IEnMin= 8 EnMin= -3531.43624209557     IErMin= 7 ErrMin= 3.07D-03
 ErrMax= 4.18D-03  0.00D+00 EMaxC= 1.00D-01 BMatC= 7.42D-02 BMatP= 1.61D-01
 IDIUse=3 WtCom= 9.69D-01 WtEn= 3.07D-02
 Coeff-Com: -0.801D-01 0.105D+00-0.170D-01 0.687D-02-0.156D-01 0.132D+00
 Coeff-Com:  0.442D+00 0.427D+00
 Coeff-En:   0.000D+00 0.000D+00 0.000D+00 0.000D+00 0.000D+00 0.000D+00
 Coeff-En:   0.234D+00 0.766D+00
 Coeff:     -0.776D-01 0.102D+00-0.165D-01 0.666D-02-0.152D-01 0.127D+00
 Coeff:      0.436D+00 0.438D+00
 Gap=     0.125 Goal=   None    Shift=    0.000
 Gap=     0.106 Goal=   None    Shift=    0.000
 RMSDP=4.60D-04 MaxDP=6.64D-02 DE=-2.85D-02 OVMax= 2.30D-02

 Cycle   9  Pass 1  IDiag  1:
 RMSU=  3.39D-04    CP:  6.31D-01  3.00D+00  6.67D-01  2.84D-01  7.75D-01
                    CP:  4.78D-01  8.49D-01  6.93D-01
 E= -3531.44588925380     Delta-E=       -0.009647158239 Rises=F Damp=F
 DIIS: error= 3.13D-03 at cycle   9 NSaved=   9.
 NSaved= 9 IEnMin= 9 EnMin= -3531.44588925380     IErMin= 7 ErrMin= 3.07D-03
 ErrMax= 3.13D-03  0.00D+00 EMaxC= 1.00D-01 BMatC= 2.32D-02 BMatP= 7.42D-02
 IDIUse=3 WtCom= 9.69D-01 WtEn= 3.07D-02
 Coeff-Com: -0.327D-01 0.516D-01-0.668D-02 0.153D-02 0.145D-01-0.563D-01
 Coeff-Com:  0.148D-01 0.161D+00 0.852D+00
 Coeff-En:   0.000D+00 0.000D+00 0.000D+00 0.000D+00 0.000D+00 0.000D+00
 Coeff-En:   0.000D+00 0.000D+00 0.100D+01
 Coeff:     -0.317D-01 0.500D-01-0.647D-02 0.149D-02 0.140D-01-0.546D-01
 Coeff:      0.143D-01 0.156D+00 0.857D+00
 Gap=     0.129 Goal=   None    Shift=    0.000
 Gap=     0.102 Goal=   None    Shift=    0.000
 RMSDP=3.84D-04 MaxDP=1.10D-01 DE=-9.65D-03 OVMax= 1.77D-02

 Cycle  10  Pass 1  IDiag  1:
 RMSU=  2.78D-04    CP:  6.34D-01  3.00D+00  6.54D-01  2.97D-01  7.81D-01
                    CP:  4.65D-01  8.89D-01  7.54D-01  9.99D-01
 E= -3531.44977254405     Delta-E=       -0.003883290241 Rises=F Damp=F
 DIIS: error= 3.41D-04 at cycle  10 NSaved=  10.
 NSaved=10 IEnMin=10 EnMin= -3531.44977254405     IErMin=10 ErrMin= 3.41D-04
 ErrMax= 3.41D-04  0.00D+00 EMaxC= 1.00D-01 BMatC= 2.02D-03 BMatP= 2.32D-02
 IDIUse=3 WtCom= 9.97D-01 WtEn= 3.41D-03
 Coeff-Com:  0.232D-02-0.359D-03-0.268D-02-0.116D-03 0.157D-01-0.618D-01
 Coeff-Com: -0.805D-01 0.166D-02 0.567D+00 0.559D+00
 Coeff-En:   0.000D+00 0.000D+00 0.000D+00 0.000D+00 0.000D+00 0.000D+00
 Coeff-En:   0.000D+00 0.000D+00 0.201D-01 0.980D+00
 Coeff:      0.231D-02-0.358D-03-0.267D-02-0.115D-03 0.157D-01-0.616D-01
 Coeff:     -0.802D-01 0.166D-02 0.565D+00 0.561D+00
 Gap=     0.126 Goal=   None    Shift=    0.000
 Gap=     0.098 Goal=   None    Shift=    0.000
 RMSDP=1.43D-04 MaxDP=2.10D-02 DE=-3.88D-03 OVMax= 7.67D-03

 Cycle  11  Pass 1  IDiag  1:
 RMSU=  1.04D-04    CP:  6.34D-01  3.00D+00  6.49D-01  2.99D-01  7.81D-01
                    CP:  4.78D-01  8.88D-01  8.00D-01  1.19D+00  8.44D-01
 E= -3531.45024229518     Delta-E=       -0.000469751139 Rises=F Damp=F
 DIIS: error= 1.37D-04 at cycle  11 NSaved=  11.
 NSaved=11 IEnMin=11 EnMin= -3531.45024229518     IErMin=11 ErrMin= 1.37D-04
 ErrMax= 1.37D-04  0.00D+00 EMaxC= 1.00D-01 BMatC= 2.14D-04 BMatP= 2.02D-03
 IDIUse=3 WtCom= 9.99D-01 WtEn= 1.37D-03
 Coeff-Com:  0.198D-02-0.358D-03-0.595D-03-0.143D-03 0.320D-02-0.205D-01
 Coeff-Com: -0.207D-01-0.208D-02 0.167D+00 0.262D+00 0.610D+00
 Coeff-En:   0.000D+00 0.000D+00 0.000D+00 0.000D+00 0.000D+00 0.000D+00
 Coeff-En:   0.000D+00 0.000D+00 0.000D+00 0.187D-01 0.981D+00
 Coeff:      0.197D-02-0.358D-03-0.594D-03-0.143D-03 0.320D-02-0.204D-01
 Coeff:     -0.207D-01-0.207D-02 0.166D+00 0.262D+00 0.611D+00
 Gap=     0.126 Goal=   None    Shift=    0.000
 Gap=     0.100 Goal=   None    Shift=    0.000
 RMSDP=4.85D-05 MaxDP=6.16D-03 DE=-4.70D-04 OVMax= 2.58D-03

 Cycle  12  Pass 1  IDiag  1:
 RMSU=  3.50D-05    CP:  6.34D-01  3.00D+00  6.50D-01  2.97D-01  7.82D-01
                    CP:  4.73D-01  8.98D-01  7.90D-01  1.18D+00  8.13D-01
                    CP:  8.18D-01
 E= -3531.45029039677     Delta-E=       -0.000048101584 Rises=F Damp=F
 DIIS: error= 7.59D-05 at cycle  12 NSaved=  12.
 NSaved=12 IEnMin=12 EnMin= -3531.45029039677     IErMin=12 ErrMin= 7.59D-05
 ErrMax= 7.59D-05  0.00D+00 EMaxC= 1.00D-01 BMatC= 3.86D-05 BMatP= 2.14D-04
 IDIUse=1 WtCom= 1.00D+00 WtEn= 0.00D+00
 Coeff-Com:  0.154D-02-0.114D-02-0.389D-03-0.252D-04-0.135D-03-0.321D-02
 Coeff-Com:  0.183D-02 0.218D-02 0.229D-01 0.748D-01 0.359D+00 0.543D+00
 Coeff:      0.154D-02-0.114D-02-0.389D-03-0.252D-04-0.135D-03-0.321D-02
 Coeff:      0.183D-02 0.218D-02 0.229D-01 0.748D-01 0.359D+00 0.543D+00
 Gap=     0.126 Goal=   None    Shift=    0.000
 Gap=     0.100 Goal=   None    Shift=    0.000
 RMSDP=1.81D-05 MaxDP=2.64D-03 DE=-4.81D-05 OVMax= 1.35D-03

 Cycle  13  Pass 1  IDiag  1:
 RMSU=  1.48D-05    CP:  6.34D-01  3.00D+00  6.50D-01  2.97D-01  7.82D-01
                    CP:  4.73D-01  8.99D-01  7.93D-01  1.18D+00  8.13D-01
                    CP:  8.24D-01  7.97D-01
 E= -3531.45030087156     Delta-E=       -0.000010474795 Rises=F Damp=F
 DIIS: error= 2.52D-05 at cycle  13 NSaved=  13.
 NSaved=13 IEnMin=13 EnMin= -3531.45030087156     IErMin=13 ErrMin= 2.52D-05
 ErrMax= 2.52D-05  0.00D+00 EMaxC= 1.00D-01 BMatC= 3.64D-06 BMatP= 3.86D-05
 IDIUse=1 WtCom= 1.00D+00 WtEn= 0.00D+00
 Coeff-Com:  0.606D-03-0.597D-03-0.152D-03-0.844D-05-0.235D-03 0.242D-03
 Coeff-Com:  0.242D-02 0.934D-03-0.850D-02 0.943D-03 0.637D-01 0.213D+00
 Coeff-Com:  0.727D+00
 Coeff:      0.606D-03-0.597D-03-0.152D-03-0.844D-05-0.235D-03 0.242D-03
 Coeff:      0.242D-02 0.934D-03-0.850D-02 0.943D-03 0.637D-01 0.213D+00
 Coeff:      0.727D+00
 Gap=     0.126 Goal=   None    Shift=    0.000
 Gap=     0.100 Goal=   None    Shift=    0.000
 RMSDP=7.43D-06 MaxDP=6.13D-04 DE=-1.05D-05 OVMax= 4.22D-04

 Cycle  14  Pass 1  IDiag  1:
 RMSU=  6.35D-06    CP:  6.34D-01  3.00D+00  6.50D-01  2.97D-01  7.83D-01
                    CP:  4.73D-01  9.00D-01  7.94D-01  1.18D+00  8.15D-01
                    CP:  8.31D-01  8.60D-01  1.08D+00
 E= -3531.45030216306     Delta-E=       -0.000001291500 Rises=F Damp=F
 DIIS: error= 1.37D-05 at cycle  14 NSaved=  14.
 NSaved=14 IEnMin=14 EnMin= -3531.45030216306     IErMin=14 ErrMin= 1.37D-05
 ErrMax= 1.37D-05  0.00D+00 EMaxC= 1.00D-01 BMatC= 9.55D-07 BMatP= 3.64D-06
 IDIUse=1 WtCom= 1.00D+00 WtEn= 0.00D+00
 Coeff-Com: -0.119D-03 0.671D-04 0.679D-04 0.403D-06-0.542D-04 0.622D-03
 Coeff-Com:  0.179D-03-0.500D-03-0.876D-02-0.180D-01-0.646D-01-0.389D-01
 Coeff-Com:  0.390D+00 0.740D+00
 Coeff:     -0.119D-03 0.671D-04 0.679D-04 0.403D-06-0.542D-04 0.622D-03
 Coeff:      0.179D-03-0.500D-03-0.876D-02-0.180D-01-0.646D-01-0.389D-01
 Coeff:      0.390D+00 0.740D+00
 Gap=     0.126 Goal=   None    Shift=    0.000
 Gap=     0.100 Goal=   None    Shift=    0.000
 RMSDP=4.99D-06 MaxDP=4.95D-04 DE=-1.29D-06 OVMax= 3.42D-04

 Cycle  15  Pass 1  IDiag  1:
 RMSU=  3.75D-06    CP:  6.34D-01  3.00D+00  6.51D-01  2.97D-01  7.83D-01
                    CP:  4.72D-01  9.00D-01  7.95D-01  1.18D+00  8.16D-01
                    CP:  8.29D-01  8.96D-01  1.23D+00  1.19D+00
 E= -3531.45030265302     Delta-E=       -0.000000489961 Rises=F Damp=F
 DIIS: error= 6.86D-06 at cycle  15 NSaved=  15.
 NSaved=15 IEnMin=15 EnMin= -3531.45030265302     IErMin=15 ErrMin= 6.86D-06
 ErrMax= 6.86D-06  0.00D+00 EMaxC= 1.00D-01 BMatC= 2.05D-07 BMatP= 9.55D-07
 IDIUse=1 WtCom= 1.00D+00 WtEn= 0.00D+00
 Coeff-Com: -0.169D-03 0.131D-03 0.722D-04 0.336D-05-0.227D-05 0.278D-03
 Coeff-Com: -0.350D-03-0.377D-03-0.172D-02-0.727D-02-0.368D-01-0.543D-01
 Coeff-Com:  0.175D-01 0.299D+00 0.784D+00
 Coeff:     -0.169D-03 0.131D-03 0.722D-04 0.336D-05-0.227D-05 0.278D-03
 Coeff:     -0.350D-03-0.377D-03-0.172D-02-0.727D-02-0.368D-01-0.543D-01
 Coeff:      0.175D-01 0.299D+00 0.784D+00
 Gap=     0.126 Goal=   None    Shift=    0.000
 Gap=     0.100 Goal=   None    Shift=    0.000
 RMSDP=2.97D-06 MaxDP=4.86D-04 DE=-4.90D-07 OVMax= 1.63D-04

 Cycle  16  Pass 1  IDiag  1:
 RMSU=  1.96D-06    CP:  6.34D-01  3.00D+00  6.51D-01  2.97D-01  7.83D-01
                    CP:  4.72D-01  9.00D-01  7.95D-01  1.18D+00  8.15D-01
                    CP:  8.29D-01  9.14D-01  1.31D+00  1.37D+00  1.26D+00
 E= -3531.45030277831     Delta-E=       -0.000000125287 Rises=F Damp=F
 DIIS: error= 4.50D-06 at cycle  16 NSaved=  16.
 NSaved=16 IEnMin=16 EnMin= -3531.45030277831     IErMin=16 ErrMin= 4.50D-06
 ErrMax= 4.50D-06  0.00D+00 EMaxC= 1.00D-01 BMatC= 7.62D-08 BMatP= 2.05D-07
 IDIUse=1 WtCom= 1.00D+00 WtEn= 0.00D+00
 Coeff-Com: -0.118D-03 0.143D-03 0.402D-04 0.723D-06-0.180D-04 0.217D-04
 Coeff-Com: -0.184D-03-0.592D-06 0.138D-02 0.136D-02-0.163D-03-0.179D-01
 Coeff-Com: -0.118D+00-0.669D-01 0.460D+00 0.740D+00
 Coeff:     -0.118D-03 0.143D-03 0.402D-04 0.723D-06-0.180D-04 0.217D-04
 Coeff:     -0.184D-03-0.592D-06 0.138D-02 0.136D-02-0.163D-03-0.179D-01
 Coeff:     -0.118D+00-0.669D-01 0.460D+00 0.740D+00
 Gap=     0.126 Goal=   None    Shift=    0.000
 Gap=     0.100 Goal=   None    Shift=    0.000
 RMSDP=2.03D-06 MaxDP=1.80D-04 DE=-1.25D-07 OVMax= 1.53D-04

 Cycle  17  Pass 1  IDiag  1:
 RMSU=  1.13D-06    CP:  6.34D-01  3.00D+00  6.51D-01  2.97D-01  7.83D-01
                    CP:  4.72D-01  9.00D-01  7.95D-01  1.18D+00  8.15D-01
                    CP:  8.30D-01  9.25D-01  1.35D+00  1.51D+00  1.55D+00
                    CP:  1.14D+00
 E= -3531.45030282889     Delta-E=       -0.000000050580 Rises=F Damp=F
 DIIS: error= 2.70D-06 at cycle  17 NSaved=  17.
 NSaved=17 IEnMin=17 EnMin= -3531.45030282889     IErMin=17 ErrMin= 2.70D-06
 ErrMax= 2.70D-06  0.00D+00 EMaxC= 1.00D-01 BMatC= 2.01D-08 BMatP= 7.62D-08
 IDIUse=1 WtCom= 1.00D+00 WtEn= 0.00D+00
 Coeff-Com: -0.257D-04 0.486D-04 0.703D-05-0.839D-06-0.107D-04-0.405D-04
 Coeff-Com: -0.408D-04 0.120D-03 0.939D-03 0.220D-02 0.784D-02 0.290D-02
 Coeff-Com: -0.683D-01-0.109D+00 0.543D-01 0.424D+00 0.685D+00
 Coeff:     -0.257D-04 0.486D-04 0.703D-05-0.839D-06-0.107D-04-0.405D-04
 Coeff:     -0.408D-04 0.120D-03 0.939D-03 0.220D-02 0.784D-02 0.290D-02
 Coeff:     -0.683D-01-0.109D+00 0.543D-01 0.424D+00 0.685D+00
 Gap=     0.126 Goal=   None    Shift=    0.000
 Gap=     0.100 Goal=   None    Shift=    0.000
 RMSDP=1.17D-06 MaxDP=1.93D-04 DE=-5.06D-08 OVMax= 7.51D-05

 Cycle  18  Pass 1  IDiag  1:
 RMSU=  5.78D-07    CP:  6.34D-01  3.00D+00  6.51D-01  2.97D-01  7.83D-01
                    CP:  4.72D-01  9.00D-01  7.95D-01  1.18D+00  8.16D-01
                    CP:  8.31D-01  9.30D-01  1.37D+00  1.59D+00  1.68D+00
                    CP:  1.40D+00  1.17D+00
 E= -3531.45030284355     Delta-E=       -0.000000014663 Rises=F Damp=F
 DIIS: error= 1.51D-06 at cycle  18 NSaved=  18.
 NSaved=18 IEnMin=18 EnMin= -3531.45030284355     IErMin=18 ErrMin= 1.51D-06
 ErrMax= 1.51D-06  0.00D+00 EMaxC= 1.00D-01 BMatC= 4.30D-09 BMatP= 2.01D-08
 IDIUse=1 WtCom= 1.00D+00 WtEn= 0.00D+00
 Coeff-Com:  0.240D-04-0.237D-04-0.834D-05-0.865D-07 0.495D-05-0.278D-04
 Coeff-Com:  0.569D-05 0.611D-04 0.215D-03 0.747D-03 0.372D-02 0.530D-02
 Coeff-Com: -0.625D-02-0.377D-01-0.859D-01 0.280D-01 0.335D+00 0.757D+00
 Coeff:      0.240D-04-0.237D-04-0.834D-05-0.865D-07 0.495D-05-0.278D-04
 Coeff:      0.569D-05 0.611D-04 0.215D-03 0.747D-03 0.372D-02 0.530D-02
 Coeff:     -0.625D-02-0.377D-01-0.859D-01 0.280D-01 0.335D+00 0.757D+00
 Gap=     0.126 Goal=   None    Shift=    0.000
 Gap=     0.100 Goal=   None    Shift=    0.000
 RMSDP=6.81D-07 MaxDP=8.05D-05 DE=-1.47D-08 OVMax= 4.68D-05

 Cycle  19  Pass 1  IDiag  1:
 RMSU=  2.48D-07    CP:  6.34D-01  3.00D+00  6.51D-01  2.97D-01  7.82D-01
                    CP:  4.72D-01  9.00D-01  7.95D-01  1.18D+00  8.15D-01
                    CP:  8.31D-01  9.32D-01  1.38D+00  1.63D+00  1.77D+00
                    CP:  1.54D+00  1.45D+00  1.26D+00
 E= -3531.45030284776     Delta-E=       -0.000000004204 Rises=F Damp=F
 DIIS: error= 8.88D-07 at cycle  19 NSaved=  19.
 NSaved=19 IEnMin=19 EnMin= -3531.45030284776     IErMin=19 ErrMin= 8.88D-07
 ErrMax= 8.88D-07  0.00D+00 EMaxC= 1.00D-01 BMatC= 1.26D-09 BMatP= 4.30D-09
 IDIUse=1 WtCom= 1.00D+00 WtEn= 0.00D+00
 Coeff-Com:  0.173D-04-0.220D-04-0.560D-05-0.152D-06 0.903D-05-0.123D-04
 Coeff-Com:  0.253D-05-0.352D-04-0.150D-03-0.387D-03-0.113D-02 0.728D-03
 Coeff-Com:  0.185D-01 0.190D-01-0.486D-01-0.122D+00-0.810D-01 0.269D+00
 Coeff-Com:  0.946D+00
 Coeff:      0.173D-04-0.220D-04-0.560D-05-0.152D-06 0.903D-05-0.123D-04
 Coeff:      0.253D-05-0.352D-04-0.150D-03-0.387D-03-0.113D-02 0.728D-03
 Coeff:      0.185D-01 0.190D-01-0.486D-01-0.122D+00-0.810D-01 0.269D+00
 Coeff:      0.946D+00
 Gap=     0.126 Goal=   None    Shift=    0.000
 Gap=     0.100 Goal=   None    Shift=    0.000
 RMSDP=4.96D-07 MaxDP=4.14D-05 DE=-4.20D-09 OVMax= 2.99D-05

 Cycle  20  Pass 1  IDiag  1:
 RMSU=  1.47D-07    CP:  6.34D-01  3.00D+00  6.51D-01  2.97D-01  7.82D-01
                    CP:  4.72D-01  9.00D-01  7.95D-01  1.18D+00  8.15D-01
                    CP:  8.31D-01  9.34D-01  1.39D+00  1.65D+00  1.82D+00
                    CP:  1.64D+00  1.66D+00  1.57D+00  1.40D+00
 E= -3531.45030284929     Delta-E=       -0.000000001536 Rises=F Damp=F
 DIIS: error= 5.48D-07 at cycle  20 NSaved=  20.
 NSaved=20 IEnMin=20 EnMin= -3531.45030284929     IErMin=20 ErrMin= 5.48D-07
 ErrMax= 5.48D-07  0.00D+00 EMaxC= 1.00D-01 BMatC= 5.50D-10 BMatP= 1.26D-09
 IDIUse=1 WtCom= 1.00D+00 WtEn= 0.00D+00
 Coeff-Com:  0.178D-05-0.244D-05-0.396D-06-0.520D-07 0.188D-05-0.926D-06
 Coeff-Com:  0.623D-05-0.331D-04-0.119D-03-0.369D-03-0.143D-02-0.799D-03
 Coeff-Com:  0.118D-01 0.197D-01-0.649D-02-0.764D-01-0.130D+00-0.472D-01
 Coeff-Com:  0.560D+00 0.672D+00
 Coeff:      0.178D-05-0.244D-05-0.396D-06-0.520D-07 0.188D-05-0.926D-06
 Coeff:      0.623D-05-0.331D-04-0.119D-03-0.369D-03-0.143D-02-0.799D-03
 Coeff:      0.118D-01 0.197D-01-0.649D-02-0.764D-01-0.130D+00-0.472D-01
 Coeff:      0.560D+00 0.672D+00
 Gap=     0.126 Goal=   None    Shift=    0.000
 Gap=     0.100 Goal=   None    Shift=    0.000
 RMSDP=2.27D-07 MaxDP=2.48D-05 DE=-1.54D-09 OVMax= 1.77D-05

 Cycle  21  Pass 1  IDiag  1:
 Restarting incremental Fock formation.
 E= -3531.45030284974     Delta-E=       -0.000000000443 Rises=F Damp=F
 DIIS: error= 2.62D-07 at cycle  21 NSaved=  20.
 NSaved=20 IEnMin=20 EnMin= -3531.45030284974     IErMin=20 ErrMin= 2.62D-07
 ErrMax= 2.62D-07  0.00D+00 EMaxC= 1.00D-01 BMatC= 1.60D-10 BMatP= 5.50D-10
 IDIUse=1 WtCom= 1.00D+00 WtEn= 0.00D+00
 Coeff-Com: -0.239D-05 0.222D-05 0.107D-05-0.179D-05 0.306D-05 0.307D-05
 Coeff-Com: -0.388D-05-0.589D-05-0.505D-04-0.357D-03-0.499D-03 0.112D-02
 Coeff-Com:  0.501D-02 0.101D-01-0.560D-02-0.484D-01-0.112D+00 0.414D-02
 Coeff-Com:  0.405D+00 0.742D+00
 Coeff:     -0.239D-05 0.222D-05 0.107D-05-0.179D-05 0.306D-05 0.307D-05
 Coeff:     -0.388D-05-0.589D-05-0.505D-04-0.357D-03-0.499D-03 0.112D-02
 Coeff:      0.501D-02 0.101D-01-0.560D-02-0.484D-01-0.112D+00 0.414D-02
 Coeff:      0.405D+00 0.742D+00
 Gap=     0.126 Goal=   None    Shift=    0.000
 Gap=     0.100 Goal=   None    Shift=    0.000
[...]
    13   Atom       -0.006409      0.000601      0.005808
    14   Atom        0.034913     -0.127274      0.092361
    15   Atom        0.089090     -0.044774     -0.044316
    16   Atom       -0.098818     -0.081871      0.180689
    17   Atom       -0.004593      0.010761     -0.006168
    18   Atom       -0.010664     -0.010245      0.020909
    19   Atom       -0.081480      0.192913     -0.111433
    20   Atom        0.001718      0.006042     -0.007760
    21   Atom       -0.000866     -0.001185      0.002051
    22   Atom        0.000965     -0.001721      0.000757
    23   Atom        0.003237     -0.002076     -0.001161
    24   Atom        0.008359     -0.004233     -0.004126
    25   Atom        0.008872     -0.011703      0.002831
    26   Atom        0.008917     -0.002845     -0.006072
    27   Atom        0.004063     -0.002868     -0.001196
    28   Atom        0.006093     -0.003130     -0.002963
    29   Atom        0.001313     -0.002670      0.001358
    30   Atom        0.001910     -0.001217     -0.000693
    31   Atom        0.002227      0.001083     -0.003310
    32   Atom       -0.002196      0.007447     -0.005250
    33   Atom       -0.011100      0.023746     -0.012646
    34   Atom       -0.004256      0.007491     -0.003235
    35   Atom       -0.004867      0.001416      0.003452
    36   Atom       -0.016189      0.000441      0.015748
    37   Atom       -0.003604     -0.003683      0.007287
    38   Atom        0.008272     -0.001705     -0.006568
    39   Atom        0.002140      0.001209     -0.003349
    40   Atom        0.002319      0.002219     -0.004539
    41   Atom       -0.002109      0.006867     -0.004757
    42   Atom        0.003143      0.001189     -0.004333
    43   Atom        0.001614      0.000879     -0.002492
    44   Atom       -0.001649      0.004820     -0.003171
    45   Atom       -0.003249      0.006428     -0.003178
    46   Atom       -0.005638      0.013895     -0.008257
 --------------------------------------------------------
                        XY            XZ            YZ
 --------------------------------------------------------
     1   Atom       -0.003618      0.003484      0.001259
     2   Atom       -0.009989      0.010761     -0.001112
     3   Atom       -0.015658      0.012340     -0.005749
     4   Atom       -0.004089      0.007699     -0.005439
     5   Atom       -0.005563      0.003071      0.001777
     6   Atom       -0.001215      0.004118     -0.001738
     7   Atom        0.003331      0.000321      0.008199
     8   Atom        0.004908     -0.015977     -0.003194
     9   Atom       -0.002687     -0.005135      0.001482
    10   Atom       -0.003366     -0.004644      0.002496
    11   Atom       -0.007621     -0.005477      0.007657
    12   Atom       -0.008198     -0.005605      0.012078
    13   Atom       -0.005050     -0.005975      0.011960
    14   Atom       -0.063918     -0.172649     -0.055138
    15   Atom       -0.075809     -0.096309      0.048920
    16   Atom       -0.038949      0.117797     -0.114729
    17   Atom       -0.006776     -0.002446      0.005451
    18   Atom        0.098683      0.108528      0.177358
    19   Atom        0.120318     -0.070600     -0.110840
    20   Atom       -0.025403      0.018521     -0.021665
    21   Atom       -0.003649      0.005295     -0.005047
    22   Atom       -0.001627      0.003234     -0.001289
    23   Atom       -0.000495      0.002243     -0.000290
    24   Atom        0.000165      0.001005     -0.000044
    25   Atom        0.000984     -0.015895     -0.001790
    26   Atom        0.006779     -0.004322     -0.000065
    27   Atom       -0.000375     -0.003609      0.000188
    28   Atom       -0.002284     -0.002191      0.000541
    29   Atom       -0.002372     -0.005058      0.002332
    30   Atom       -0.002150     -0.002648      0.001355
    31   Atom       -0.005864     -0.001787      0.001754
    32   Atom       -0.006218     -0.000835      0.001268
    33   Atom       -0.008706     -0.002872      0.007147
    34   Atom       -0.002514     -0.001103      0.004531
    35   Atom       -0.001757     -0.001909      0.007715
    36   Atom       -0.005243     -0.006388      0.024557
    37   Atom       -0.003471     -0.006701      0.006820
    38   Atom        0.011444     -0.007849     -0.003290
    39   Atom        0.004026     -0.001544      0.005021
    40   Atom        0.007401     -0.001918     -0.001708
    41   Atom        0.006990     -0.001658     -0.002852
    42   Atom        0.006516     -0.000023      0.000112
    43   Atom        0.004385     -0.001795     -0.001639
    44   Atom        0.003863     -0.000459     -0.001016
    45   Atom        0.005288     -0.002050     -0.005033
    46   Atom        0.009755     -0.000687     -0.001820
 --------------------------------------------------------


 ---------------------------------------------------------------------------------
              Anisotropic Spin Dipole Couplings in Principal Axis System
 ---------------------------------------------------------------------------------

       Atom             a.u.   MegaHertz   Gauss  10(-4) cm-1        Axes

              Baa    -0.0077    -1.038    -0.370    -0.346 -0.2715 -0.4815  0.8334
     1 C(13)  Bbb    -0.0032    -0.424    -0.151    -0.141  0.0995  0.8472  0.5219
              Bcc     0.0109     1.462     0.522     0.488  0.9573 -0.2245  0.1821
 
              Baa    -0.0150    -2.018    -0.720    -0.673  0.3814  0.8366 -0.3932
     2 C(13)  Bbb    -0.0096    -1.290    -0.460    -0.430 -0.1627  0.4795  0.8623
              Bcc     0.0247     3.308     1.180     1.103  0.9100 -0.2649  0.3190
 
              Baa    -0.0154    -2.066    -0.737    -0.689  0.6666  0.5958 -0.4479
     3 C(13)  Bbb    -0.0093    -1.251    -0.446    -0.417 -0.0134  0.6104  0.7920
              Bcc     0.0247     3.317     1.184     1.107  0.7453 -0.5219  0.4148
 
              Baa    -0.0075    -1.010    -0.360    -0.337 -0.1455  0.7799  0.6087
     4 C(13)  Bbb    -0.0049    -0.664    -0.237    -0.222  0.7302  0.4998 -0.4659
              Bcc     0.0125     1.674     0.597     0.558  0.6676 -0.3767  0.6422
 
              Baa    -0.0070    -0.942    -0.336    -0.314  0.6276  0.5217 -0.5779
     5 C(13)  Bbb     0.0003     0.042     0.015     0.014  0.3678  0.4555  0.8107
              Bcc     0.0067     0.899     0.321     0.300 -0.6862  0.7213 -0.0940
 
              Baa    -0.0048    -0.650    -0.232    -0.217 -0.1336  0.8138  0.5656
     6 C(13)  Bbb    -0.0026    -0.355    -0.127    -0.118 -0.4518 -0.5580  0.6961
              Bcc     0.0075     1.005     0.359     0.335  0.8821 -0.1626  0.4422
 
              Baa    -0.0374    -5.021    -1.792    -1.675  0.0107 -0.3738  0.9275
     7 C(13)  Bbb    -0.0138    -1.858    -0.663    -0.620 -0.0494  0.9262  0.3738
              Bcc     0.0513     6.879     2.454     2.294  0.9987  0.0498  0.0085
 
              Baa    -0.0144    -1.927    -0.687    -0.643  0.4044  0.2562  0.8780
     8 C(13)  Bbb    -0.0119    -1.597    -0.570    -0.533 -0.2503  0.9543 -0.1631
              Bcc     0.0263     3.523     1.257     1.175  0.8797  0.1538 -0.4500
 
              Baa    -0.0051    -0.688    -0.246    -0.230  0.3840 -0.1624  0.9089
     9 C(13)  Bbb    -0.0039    -0.527    -0.188    -0.176  0.2878  0.9564  0.0493
              Bcc     0.0091     1.215     0.433     0.405  0.8773 -0.2426 -0.4141
 
              Baa    -0.0041    -0.553    -0.197    -0.184  0.3998 -0.3473  0.8482
    10 C(13)  Bbb    -0.0036    -0.489    -0.175    -0.163  0.5176  0.8493  0.1038
              Bcc     0.0078     1.042     0.372     0.348  0.7564 -0.3976 -0.5194
 
              Baa    -0.0080    -1.073    -0.383    -0.358 -0.0920 -0.6433  0.7601
    11 C(13)  Bbb    -0.0062    -0.828    -0.295    -0.276  0.8279  0.3747  0.4173
              Bcc     0.0142     1.901     0.678     0.634 -0.5533  0.6677  0.4981
 
              Baa    -0.0108    -1.456    -0.519    -0.486  0.0451 -0.5397  0.8406
    12 C(13)  Bbb    -0.0086    -1.154    -0.412    -0.385  0.9225  0.3454  0.1722
              Bcc     0.0194     2.610     0.931     0.871 -0.3833  0.7677  0.5135
 
              Baa    -0.0092    -1.229    -0.439    -0.410  0.5581  0.7425 -0.3704
    13 C(13)  Bbb    -0.0088    -1.180    -0.421    -0.394  0.7714 -0.2999  0.5613
              Bcc     0.0180     2.409     0.860     0.804 -0.3057  0.5990  0.7401
 
              Baa    -0.2041    14.770     5.270     4.927  0.5128  0.7395  0.4361
    14 O(17)  Bbb    -0.0345     2.500     0.892     0.834 -0.5654  0.6732 -0.4767
              Bcc     0.2387   -17.269    -6.162    -5.760 -0.6461 -0.0022  0.7633
 
              Baa    -0.0982    -1.700    -0.607    -0.567  0.2953 -0.3827  0.8754
    15 Fe(57) Bbb    -0.0779    -1.349    -0.481    -0.450  0.4984  0.8434  0.2006
              Bcc     0.1761     3.049     1.088     1.017  0.8151 -0.3771 -0.4398
 
              Baa    -0.1422    -7.444    -2.656    -2.483  0.9143 -0.1356 -0.3817
    16 Cl(35) Bbb    -0.1237    -6.473    -2.310    -2.159  0.2459  0.9346  0.2571
              Bcc     0.2659    13.917     4.966     4.642  0.3219 -0.3289  0.8878
 
              Baa    -0.0080    -1.072    -0.383    -0.358  0.4458 -0.0975  0.8898
    17 C(13)  Bbb    -0.0070    -0.941    -0.336    -0.314  0.8261  0.4275 -0.3671
              Bcc     0.0150     2.013     0.718     0.672 -0.3446  0.8987  0.2712
 
              Baa    -0.1727    -9.039    -3.225    -3.015  0.0053  0.7359 -0.6771
    18 Cl(35) Bbb    -0.0895    -4.685    -1.672    -1.563  0.8808 -0.3240 -0.3453
              Bcc     0.2622    13.724     4.897     4.578  0.4735  0.5945  0.6499
 
              Baa    -0.1692    -8.857    -3.160    -2.954  0.5763  0.0580  0.8152
    19 Cl(35) Bbb    -0.1113    -5.828    -2.079    -1.944  0.7367 -0.4688 -0.4874
              Bcc     0.2806    14.685     5.240     4.898  0.3539  0.8814 -0.3129
 
              Baa    -0.0236   -12.590    -4.493    -4.200  0.0107  0.5960  0.8029
    20 H(1)   Bbb    -0.0212   -11.319    -4.039    -3.776  0.8078  0.4681 -0.3582
              Bcc     0.0448    23.910     8.532     7.975 -0.5894  0.6524 -0.4765
 
              Baa    -0.0050    -2.658    -0.948    -0.887 -0.5249  0.4532  0.7204
    21 H(1)   Bbb    -0.0047    -2.496    -0.891    -0.833  0.6729  0.7393  0.0251
              Bcc     0.0097     5.154     1.839     1.719  0.5213 -0.4979  0.6931
 
              Baa    -0.0026    -1.373    -0.490    -0.458  0.6400  0.6798 -0.3582
    22 H(1)   Bbb    -0.0022    -1.164    -0.415    -0.388 -0.3373  0.6674  0.6640
              Bcc     0.0048     2.538     0.905     0.846  0.6904 -0.3041  0.6564
 
              Baa    -0.0022    -1.169    -0.417    -0.390 -0.1893  0.7572  0.6252
    23 H(1)   Bbb    -0.0020    -1.088    -0.388    -0.363 -0.3490 -0.6470  0.6780
              Bcc     0.0042     2.257     0.805     0.753  0.9178 -0.0898  0.3867
 
              Baa    -0.0043    -2.283    -0.815    -0.762 -0.0590  0.7887  0.6120
    24 H(1)   Bbb    -0.0042    -2.221    -0.792    -0.741 -0.0550 -0.6147  0.7868
              Bcc     0.0084     4.504     1.607     1.502  0.9967  0.0127  0.0797
 
              Baa    -0.0121    -6.469    -2.308    -2.158  0.2064  0.9212  0.3297
    25 H(1)   Bbb    -0.0100    -5.343    -1.907    -1.782  0.6059 -0.3850  0.6962
              Bcc     0.0221    11.812     4.215     3.940  0.7683  0.0561 -0.6377
 
              Baa    -0.0082    -1.099    -0.392    -0.366  0.3901 -0.4855  0.7824
    26 C(13)  Bbb    -0.0047    -0.625    -0.223    -0.209 -0.2039  0.7830  0.5876
              Bcc     0.0128     1.724     0.615     0.575  0.8979  0.3888 -0.2065
 
              Baa    -0.0030    -1.618    -0.577    -0.540  0.4541  0.0176  0.8908
    27 H(1)   Bbb    -0.0029    -1.541    -0.550    -0.514  0.0345  0.9987 -0.0373
              Bcc     0.0059     3.158     1.127     1.054  0.8903 -0.0477 -0.4529
 
              Baa    -0.0037    -1.957    -0.698    -0.653  0.1990  0.9718 -0.1265
    28 H(1)   Bbb    -0.0035    -1.848    -0.659    -0.616  0.2402  0.0768  0.9677
              Bcc     0.0071     3.805     1.358     1.269  0.9501 -0.2230 -0.2182
 
              Baa    -0.0038    -2.017    -0.720    -0.673  0.5522  0.8155  0.1735
    29 H(1)   Bbb    -0.0037    -1.976    -0.705    -0.659  0.4946 -0.4880  0.7192
              Bcc     0.0075     3.992     1.425     1.332 -0.6712  0.3113  0.6728
 
              Baa    -0.0023    -1.252    -0.447    -0.418  0.3627 -0.3469  0.8649
    30 H(1)   Bbb    -0.0023    -1.233    -0.440    -0.411  0.5119  0.8497  0.1261
              Bcc     0.0047     2.485     0.887     0.829  0.7787 -0.3970 -0.4858
 
              Baa    -0.0043    -2.273    -0.811    -0.758  0.6180  0.7527 -0.2268
    31 H(1)   Bbb    -0.0038    -2.047    -0.730    -0.683  0.3105  0.0314  0.9501
              Bcc     0.0081     4.319     1.541     1.441  0.7223 -0.6576 -0.2143
 
              Baa    -0.0055    -2.947    -1.052    -0.983  0.5404  0.1787  0.8222
    32 H(1)   Bbb    -0.0051    -2.728    -0.973    -0.910  0.7178  0.4120 -0.5613
              Bcc     0.0106     5.675     2.025     1.893 -0.4391  0.8935  0.0944
 
              Baa    -0.0149    -7.926    -2.828    -2.644  0.5752 -0.0217  0.8177
    33 H(1)   Bbb    -0.0124    -6.616    -2.361    -2.207  0.7848  0.2966 -0.5442
              Bcc     0.0273    14.542     5.189     4.851 -0.2308  0.9547  0.1876
 
              Baa    -0.0050    -2.678    -0.956    -0.893  0.5880 -0.1684  0.7911
    34 H(1)   Bbb    -0.0047    -2.491    -0.889    -0.831  0.7855  0.3521 -0.5089
              Bcc     0.0097     5.169     1.844     1.724 -0.1928  0.9207  0.3393
 
              Baa    -0.0054    -2.876    -1.026    -0.959  0.5568  0.6817 -0.4746
    35 H(1)   Bbb    -0.0053    -2.806    -1.001    -0.936  0.8141 -0.3344  0.4747
              Bcc     0.0106     5.682     2.027     1.895 -0.1649  0.6507  0.7412
 
              Baa    -0.0180    -9.608    -3.428    -3.205  0.6520  0.6665 -0.3615
    36 H(1)   Bbb    -0.0171    -9.143    -3.262    -3.050  0.7414 -0.4606  0.4880
              Bcc     0.0351    18.751     6.691     6.255 -0.1587  0.5862  0.7945
 
              Baa    -0.0071    -3.804    -1.357    -1.269  0.5871  0.8025 -0.1068
    37 H(1)   Bbb    -0.0067    -3.569    -1.274    -1.191  0.7053 -0.4423  0.5540
              Bcc     0.0138     7.374     2.631     2.460 -0.3973  0.4005  0.8257
 
              Baa    -0.0108     0.778     0.278     0.260  0.5600 -0.4570  0.6910
    38 O(17)  Bbb    -0.0078     0.565     0.202     0.189 -0.2040  0.7323  0.6497
              Bcc     0.0186    -1.343    -0.479    -0.448  0.8030  0.5048 -0.3169
 
              Baa    -0.0079     0.569     0.203     0.190  0.3438 -0.5670  0.7485
    39 O(17)  Bbb     0.0015    -0.106    -0.038    -0.035  0.7221 -0.3500 -0.5967
              Bcc     0.0064    -0.463    -0.165    -0.154  0.6003  0.7457  0.2891
 
              Baa    -0.0052    -0.700    -0.250    -0.233  0.6652 -0.5449  0.5105
    40 C(13)  Bbb    -0.0049    -0.658    -0.235    -0.220 -0.2599  0.4720  0.8424
              Bcc     0.0101     1.358     0.485     0.453  0.7000  0.6930 -0.1724
 
              Baa    -0.0059    -0.797    -0.285    -0.266  0.8809 -0.4447  0.1619
    41 C(13)  Bbb    -0.0054    -0.727    -0.259    -0.243 -0.0500  0.2528  0.9662
              Bcc     0.0114     1.524     0.544     0.508  0.4706  0.8593 -0.2005
 
              Baa    -0.0045    -2.394    -0.854    -0.799 -0.5461  0.6376 -0.5435
    42 H(1)   Bbb    -0.0043    -2.277    -0.813    -0.760 -0.3574  0.4094  0.8394
              Bcc     0.0088     4.672     1.667     1.558  0.7577  0.6526  0.0043
 
              Baa    -0.0032    -1.690    -0.603    -0.564  0.5216 -0.2327  0.8209
    43 H(1)   Bbb    -0.0031    -1.680    -0.599    -0.560 -0.4736  0.7213  0.5054
              Bcc     0.0063     3.370     1.203     1.124  0.7097  0.6524 -0.2660
 
              Baa    -0.0035    -1.843    -0.658    -0.615  0.8983 -0.4303 -0.0887
    44 H(1)   Bbb    -0.0033    -1.758    -0.627    -0.586  0.1279  0.0630  0.9898
              Bcc     0.0067     3.601     1.285     1.201  0.4203  0.9005 -0.1116
 
              Baa    -0.0056    -3.007    -1.073    -1.003  0.7966 -0.4943 -0.3478
    45 H(1)   Bbb    -0.0052    -2.787    -0.994    -0.930  0.4758  0.1578  0.8653
              Bcc     0.0109     5.794     2.067     1.933  0.3729  0.8548 -0.3609
 
              Baa    -0.0097    -5.164    -1.843    -1.722  0.9216 -0.3851 -0.0477
    46 H(1)   Bbb    -0.0084    -4.481    -1.599    -1.495  0.0723  0.0497  0.9961
              Bcc     0.0181     9.645     3.441     3.217  0.3812  0.9215 -0.0736
 

 ---------------------------------------------------------------------------------

 No NMR shielding tensors so no spin-rotation constants.
 Leave Link  601 at Sun Jun 20 22:50:16 2021, MaxMem=  2147483648 cpu:             101.8 elap:               6.6
 (Enter /SFS/product/gaussian/g16.a03/x86_64/avx/g16/l9999.exe)
 1\1\GINC-WPPHPCPX013\SP\UB3LYP\Jul-CC-pVDZ\C17H22Cl3Fe1O3(6)\KWANEU\20
 -Jun-2021\0\\#p ub3lyp jul-cc-pvdz pop=cm5 scrf=(pcm,solvent=water) gu
 ess=read geom=allcheck\\title\\0,6\C,0,2.7162069962,-0.18351964,1.4969
 531887\C,0,1.4227542898,-0.6033707325,1.1165190166\C,0,0.6594500644,-1
 .3777400899,2.0177686576\C,0,1.1775453979,-1.7261757125,3.2607198978\C
 ,0,2.4577024556,-1.2961463031,3.6313860045\C,0,3.2214530231,-0.5219893
 88,2.7507288447\C,0,0.8329602231,-0.2383711066,-0.1804386718\C,0,1.655
 0627157,0.3522715737,-1.3290800902\C,0,2.8269999211,-0.5130074872,-1.8
 411097948\C,0,2.3406568783,-1.7378161268,-2.6414270848\C,0,1.501130906
 3,-2.6684573972,-1.8077755782\C,0,0.1637060175,-2.8272115984,-1.843611
 8459\C,0,-0.7541267998,-2.1992403001,-2.8592878561\O,0,-0.3938275471,-
 0.3828444993,-0.3861381004\Fe,0,-2.1780328848,0.2301123914,0.295525626
 \Cl,0,-3.1961427593,1.0691365241,-1.4571497457\C,0,-0.5206224247,-3.77
 13168129,-0.887815624\Cl,0,-1.7016735943,1.7123551458,1.8493964881\Cl,
 0,-3.183963729,-1.5511121884,1.1148952171\H,0,-0.3362903771,-1.7138771
 003,1.7344917586\H,0,0.5803559838,-2.3285525957,3.9455796495\H,0,2.860
 1897183,-1.563918218,4.609734327\H,0,4.2147455364,-0.1793756529,3.0420
 389932\H,0,3.3230668477,0.4276846946,0.8328759598\H,0,0.9228876199,0.4
 773913404,-2.1374988776\C,0,2.0975519377,1.7845525946,-0.9677018912\H,
 0,3.4559122944,0.1259185705,-2.4755060272\H,0,3.4618806561,-0.83659781
 37,-1.0071699478\H,0,1.7942685788,-1.3930078981,-3.530137346\H,0,3.230
 4341831,-2.271502289,-3.0118589222\H,0,2.0520646054,-3.2232503881,-1.0
 401169803\H,0,0.188578946,-4.2264810922,-0.1838520662\H,0,-1.306576576
 2,-3.2552437422,-0.3156853573\H,0,-1.0234828629,-4.5811695121,-1.44094
 6799\H,0,-1.2198772606,-2.9884969952,-3.4714691894\H,0,-1.5775335925,-
 1.6606228055,-2.3694733561\H,0,-0.2501045887,-1.5024843081,-3.53798594
 71\O,0,1.0282928488,2.5768251533,-0.8399548009\O,0,3.2480362572,2.1439
 962242,-0.8397564117\C,0,1.2772726206,3.9740351436,-0.4929644291\C,0,-
 0.0580877696,4.6872984777,-0.4870053508\H,0,1.7675111662,3.9928144613,
 0.4897585053\H,0,1.9752680804,4.3870670469,-1.2329285644\H,0,0.0994307
 378,5.741684967,-0.2178713402\H,0,-0.5293096092,4.6490922598,-1.478537
 8411\H,0,-0.7414601316,4.236081225,0.2439027032\\Version=ES64L-G16RevA
 .03\State=6-A\HF=-3531.4701881\S2=8.761505\S2-1=0.\S2A=8.750041\RMSD=4
 .120e-09\Dipole=3.6215476,-0.6363453,0.1788889\Quadrupole=-14.3240601,
 5.8542004,8.4698598,-2.1397708,6.8116397,-3.9656619\PG=C01 [X(C17H22Cl
 3Fe1O3)]\\@


 THE MORE POWERFUL THE METHOD, THE MORE CATASTROPHIC THE ERRORS.
     -- M.D. KAMEN
 Job cpu time:       0 days  5 hours 45 minutes 32.1 seconds.
 Elapsed time:       0 days  0 hours 21 minutes 39.9 seconds.
 File lengths (MBytes):  RWF=    678 Int=      0 D2E=      0 Chk=     57 Scr=      1
 Normal termination of Gaussian 16 at Sun Jun 20 22:50:17 2021.
