 Entering Gaussian System, Link 0=g16
 Input=prenyl-first_betaine_grid-CC_210_CO_280-b3lyp_d3bj-juldz-gas.gjf
 Output=prenyl-first_betaine_grid-CC_210_CO_280-b3lyp_d3bj-juldz-gas.out
 Initial command:
 /SFS/product/gaussian/g16.a03/x86_64/avx/g16/l1.exe "/scratch/kwaneu.2874288.bmbhpcps002/Gau-39445.inp" -scrdir="/scratch/kwaneu.2874288.bmbhpcps002/"
 Entering Link 1 = /SFS/product/gaussian/g16.a03/x86_64/avx/g16/l1.exe PID=     39448.
  
 Copyright (c) 1988,1990,1992,1993,1995,1998,2003,2009,2016,
            Gaussian, Inc.  All Rights Reserved.
  
 This is part of the Gaussian(R) 16 program.  It is based on
 the Gaussian(R) 09 system (copyright 2009, Gaussian, Inc.),
 the Gaussian(R) 03 system (copyright 2003, Gaussian, Inc.),
 the Gaussian(R) 98 system (copyright 1998, Gaussian, Inc.),
 the Gaussian(R) 94 system (copyright 1995, Gaussian, Inc.),
 the Gaussian 92(TM) system (copyright 1992, Gaussian, Inc.),
 the Gaussian 90(TM) system (copyright 1990, Gaussian, Inc.),
 the Gaussian 88(TM) system (copyright 1988, Gaussian, Inc.),
 the Gaussian 86(TM) system (copyright 1986, Carnegie Mellon
 University), and the Gaussian 82(TM) system (copyright 1983,
 Carnegie Mellon University). Gaussian is a federally registered
 trademark of Gaussian, Inc.
  
 This software contains proprietary and confidential information,
 including trade secrets, belonging to Gaussian, Inc.
  
 This software is provided under written license and may be
 used, copied, transmitted, or stored only in accord with that
 written license.
  
 The following legend is applicable only to US Government
 contracts under FAR:
  
                    RESTRICTED RIGHTS LEGEND
  
 Use, reproduction and disclosure by the US Government is
 subject to restrictions as set forth in subparagraphs (a)
 and (c) of the Commercial Computer Software - Restricted
 Rights clause in FAR 52.227-19.
  
 Gaussian, Inc.
 340 Quinnipiac St., Bldg. 40, Wallingford CT 06492
  
  
 ---------------------------------------------------------------
 Warning -- This program may not be used in any manner that
 competes with the business of Gaussian, Inc. or will provide
 assistance to any competitor of Gaussian, Inc.  The licensee
 of this program is prohibited from giving any competitor of
 Gaussian, Inc. access to this program.  By using this program,
 the user acknowledges that Gaussian, Inc. is engaged in the
 business of creating and licensing software in the field of
 computational chemistry and represents and warrants to the
 licensee that it is not a competitor of Gaussian, Inc. and that
 it will not use this program in any manner prohibited above.
 ---------------------------------------------------------------
  

 Cite this work as:
 Gaussian 16, Revision A.03,
 M. J. Frisch, G. W. Trucks, H. B. Schlegel, G. E. Scuseria, 
 M. A. Robb, J. R. Cheeseman, G. Scalmani, V. Barone, 
 G. A. Petersson, H. Nakatsuji, X. Li, M. Caricato, A. V. Marenich, 
 J. Bloino, B. G. Janesko, R. Gomperts, B. Mennucci, H. P. Hratchian, 
 J. V. Ortiz, A. F. Izmaylov, J. L. Sonnenberg, D. Williams-Young, 
 F. Ding, F. Lipparini, F. Egidi, J. Goings, B. Peng, A. Petrone, 
 T. Henderson, D. Ranasinghe, V. G. Zakrzewski, J. Gao, N. Rega, 
 G. Zheng, W. Liang, M. Hada, M. Ehara, K. Toyota, R. Fukuda, 
 J. Hasegawa, M. Ishida, T. Nakajima, Y. Honda, O. Kitao, H. Nakai, 
 T. Vreven, K. Throssell, J. A. Montgomery, Jr., J. E. Peralta, 
 F. Ogliaro, M. J. Bearpark, J. J. Heyd, E. N. Brothers, K. N. Kudin, 
 V. N. Staroverov, T. A. Keith, R. Kobayashi, J. Normand, 
 K. Raghavachari, A. P. Rendell, J. C. Burant, S. S. Iyengar, 
 J. Tomasi, M. Cossi, J. M. Millam, M. Klene, C. Adamo, R. Cammi, 
 J. W. Ochterski, R. L. Martin, K. Morokuma, O. Farkas, 
 J. B. Foresman, and D. J. Fox, Gaussian, Inc., Wallingford CT, 2016.
 
 ******************************************
 Gaussian 16:  ES64L-G16RevA.03 25-Dec-2016
                19-Jun-2021 
 ******************************************
 %chk=checkpoint.chk
 %nprocshared=16
 Will use up to   16 processors via shared memory.
 %mem=16GB
 -----------------------------------------------------------
 #p opt=modredundant freq=noraman ub3lyp jul-cc-pvdz pop=cm5
 -----------------------------------------------------------
 1/18=120,19=15,26=3,38=1/1,3;
 2/9=110,12=2,17=6,18=5,40=1/2;
 3/5=16,7=50,11=2,25=1,30=1,71=1,74=-5,116=2/1,2,3;
 4//1;
 5/5=2,38=5/2;
 6/7=2,8=2,9=2,10=2,28=1,79=1/1;
 7//1,2,3,16;
 1/18=20,19=15,26=3/3(2);
 2/9=110/2;
 99//99;
 2/9=110/2;
 3/5=16,7=50,11=2,25=1,30=1,71=1,74=-5,116=2/1,2,3;
 4/5=5,16=3,69=1/1;
 5/5=2,38=5/2;
 7//1,2,3,16;
 1/18=20,19=15,26=3/3(-5);
 2/9=110/2;
 6/7=2,8=2,9=2,10=2,19=2,28=1,79=1/1;
 99/9=1/99;
 Leave Link    1 at Sat Jun 19 21:34:56 2021, MaxMem=  2147483648 cpu:               1.5 elap:               0.1
 (Enter /SFS/product/gaussian/g16.a03/x86_64/avx/g16/l101.exe)
 -----
 title
 -----
 Symbolic Z-matrix:
 Charge =  0 Multiplicity = 6
 6                    -3.13871   0.1622    0.36268 
 6                    -1.78667   0.39422   0.67766 
 6                    -1.40581   0.45285   2.02885 
 6                    -2.35303   0.29108   3.03856 
 6                    -3.69236   0.07032   2.71593 
 6                    -4.08064   0.00141   1.37464 
 6                    -0.72596   0.53824  -0.37804 
 6                    -0.83891  -0.25945  -1.72237 
 6                    -1.53465   0.51067  -2.84635 
 6                    -1.06629   1.95847  -2.70574 
 6                    -1.32532   2.34345  -1.26799 
 6                    -0.5831    3.21489  -0.50489 
 6                     0.81939   3.59134  -0.82606 
 8                     0.48148   0.68732   0.05909 
 26                    2.19026  -0.12448   0.34038 
 17                    2.84209  -1.07933  -1.53794 
 6                    -1.10975   3.70572   0.80675 
 17                    1.9692   -1.52222   2.02512 
 17                    3.51711   1.55416   0.88627 
 1                    -0.36192   0.59484   2.27976 
 1                    -2.03893   0.32837   4.07757 
 1                    -4.43016  -0.05716   3.50321 
 1                    -5.11897  -0.18376   1.11517 
 1                    -3.46011   0.0868   -0.67007 
 1                     0.20626  -0.41854  -2.0065 
 6                    -1.44812  -1.64863  -1.5018 
 1                    -1.27697   0.07827  -3.8179 
 1                    -2.62282   0.4392   -2.74848 
 1                    -0.0046    2.03873  -2.95981 
 1                    -1.61741   2.62508  -3.38149 
 1                    -2.37034   2.25224  -0.98147 
 1                    -2.12541   3.3629    1.01314 
 1                    -0.45005   3.3718    1.62089 
 1                    -1.09459   4.80338   0.82884 
 1                     1.06436   4.58633  -0.44092 
 1                     1.4888    2.88412  -0.30766 
 1                     1.05528   3.54712  -1.89083 
 8                    -0.64024  -2.40223  -0.74905 
 8                    -2.50763  -2.01408  -1.96607 
 6                    -1.08553  -3.75747  -0.46166 
 6                     0.06523  -4.48875   0.19955 
 1                    -1.96562  -3.69123   0.18646 
 1                    -1.39294  -4.22241  -1.40248 
 1                    -0.24701  -5.50934   0.44788 
 1                     0.92816  -4.54322  -0.47097 
 1                     0.37805  -3.98287   1.11709 
 
 The following ModRedundant input section has been read:
 B       7      11 F                                                           
 B      12      14 F                                                           
 
 ITRead=  0  0  0  0  0  0  0  0  0  0  0  0  0  0  0  0  0  0  0  0
 ITRead=  0  0  0  0  0  0  0  0  0  0  0  0  0  0  0  0  0  0  0  0
 ITRead=  0  0  0  0  0  0
 MicOpt= -1 -1 -1 -1 -1 -1 -1 -1 -1 -1 -1 -1 -1 -1 -1 -1 -1 -1 -1 -1
 MicOpt= -1 -1 -1 -1 -1 -1 -1 -1 -1 -1 -1 -1 -1 -1 -1 -1 -1 -1 -1 -1
 MicOpt= -1 -1 -1 -1 -1 -1
 NAtoms=     46 NQM=       46 NQMF=       0 NMMI=      0 NMMIF=      0
                NMic=       0 NMicF=      0.
                    Isotopes and Nuclear Properties:
 (Nuclear quadrupole moments (NQMom) in fm**2, nuclear magnetic moments (NMagM)
  in nuclear magnetons)

  Atom         1           2           3           4           5           6           7           8           9          10
 IAtWgt=          12          12          12          12          12          12          12          12          12          12
 AtmWgt=  12.0000000  12.0000000  12.0000000  12.0000000  12.0000000  12.0000000  12.0000000  12.0000000  12.0000000  12.0000000
 NucSpn=           0           0           0           0           0           0           0           0           0           0
 AtZEff=  -0.0000000  -0.0000000  -0.0000000  -0.0000000  -0.0000000  -0.0000000  -0.0000000  -0.0000000  -0.0000000  -0.0000000
 NQMom=    0.0000000   0.0000000   0.0000000   0.0000000   0.0000000   0.0000000   0.0000000   0.0000000   0.0000000   0.0000000
 NMagM=    0.0000000   0.0000000   0.0000000   0.0000000   0.0000000   0.0000000   0.0000000   0.0000000   0.0000000   0.0000000
 AtZNuc=   6.0000000   6.0000000   6.0000000   6.0000000   6.0000000   6.0000000   6.0000000   6.0000000   6.0000000   6.0000000

  Atom        11          12          13          14          15          16          17          18          19          20
 IAtWgt=          12          12          12          16          56          35          12          35          35           1
 AtmWgt=  12.0000000  12.0000000  12.0000000  15.9949146  55.9349393  34.9688527  12.0000000  34.9688527  34.9688527   1.0078250
 NucSpn=           0           0           0           0           0           3           0           3           3           1
 AtZEff=  -0.0000000  -0.0000000  -0.0000000  -0.0000000  -0.0000000  -0.0000000  -0.0000000  -0.0000000  -0.0000000  -0.0000000
 NQMom=    0.0000000   0.0000000   0.0000000   0.0000000   0.0000000  -8.1650000   0.0000000  -8.1650000  -8.1650000   0.0000000
 NMagM=    0.0000000   0.0000000   0.0000000   0.0000000   0.0000000   0.8218740   0.0000000   0.8218740   0.8218740   2.7928460
 AtZNuc=   6.0000000   6.0000000   6.0000000   8.0000000  26.0000000  17.0000000   6.0000000  17.0000000  17.0000000   1.0000000

  Atom        21          22          23          24          25          26          27          28          29          30
 IAtWgt=           1           1           1           1           1          12           1           1           1           1
 AtmWgt=   1.0078250   1.0078250   1.0078250   1.0078250   1.0078250  12.0000000   1.0078250   1.0078250   1.0078250   1.0078250
 NucSpn=           1           1           1           1           1           0           1           1           1           1
 AtZEff=  -0.0000000  -0.0000000  -0.0000000  -0.0000000  -0.0000000  -0.0000000  -0.0000000  -0.0000000  -0.0000000  -0.0000000
 NQMom=    0.0000000   0.0000000   0.0000000   0.0000000   0.0000000   0.0000000   0.0000000   0.0000000   0.0000000   0.0000000
 NMagM=    2.7928460   2.7928460   2.7928460   2.7928460   2.7928460   0.0000000   2.7928460   2.7928460   2.7928460   2.7928460
 AtZNuc=   1.0000000   1.0000000   1.0000000   1.0000000   1.0000000   6.0000000   1.0000000   1.0000000   1.0000000   1.0000000

  Atom        31          32          33          34          35          36          37          38          39          40
 IAtWgt=           1           1           1           1           1           1           1          16          16          12
 AtmWgt=   1.0078250   1.0078250   1.0078250   1.0078250   1.0078250   1.0078250   1.0078250  15.9949146  15.9949146  12.0000000
 NucSpn=           1           1           1           1           1           1           1           0           0           0
 AtZEff=  -0.0000000  -0.0000000  -0.0000000  -0.0000000  -0.0000000  -0.0000000  -0.0000000  -0.0000000  -0.0000000  -0.0000000
 NQMom=    0.0000000   0.0000000   0.0000000   0.0000000   0.0000000   0.0000000   0.0000000   0.0000000   0.0000000   0.0000000
 NMagM=    2.7928460   2.7928460   2.7928460   2.7928460   2.7928460   2.7928460   2.7928460   0.0000000   0.0000000   0.0000000
 AtZNuc=   1.0000000   1.0000000   1.0000000   1.0000000   1.0000000   1.0000000   1.0000000   8.0000000   8.0000000   6.0000000

  Atom        41          42          43          44          45          46
 IAtWgt=          12           1           1           1           1           1
 AtmWgt=  12.0000000   1.0078250   1.0078250   1.0078250   1.0078250   1.0078250
 NucSpn=           0           1           1           1           1           1
 AtZEff=  -0.0000000  -0.0000000  -0.0000000  -0.0000000  -0.0000000  -0.0000000
 NQMom=    0.0000000   0.0000000   0.0000000   0.0000000   0.0000000   0.0000000
 NMagM=    0.0000000   2.7928460   2.7928460   2.7928460   2.7928460   2.7928460
 AtZNuc=   6.0000000   1.0000000   1.0000000   1.0000000   1.0000000   1.0000000
 Leave Link  101 at Sat Jun 19 21:34:57 2021, MaxMem=  2147483648 cpu:               5.4 elap:               0.4
 (Enter /SFS/product/gaussian/g16.a03/x86_64/avx/g16/l103.exe)

 GradGradGradGradGradGradGradGradGradGradGradGradGradGradGradGradGradGrad
 Berny optimization.
 Initialization pass.
                           ----------------------------
                           !    Initial Parameters    !
                           ! (Angstroms and Degrees)  !
 --------------------------                            --------------------------
 ! Name  Definition              Value          Derivative Info.                !
 --------------------------------------------------------------------------------
 ! R1    R(1,2)                  1.4075         estimate D2E/DX2                !
 ! R2    R(1,6)                  1.3918         estimate D2E/DX2                !
 ! R3    R(1,24)                 1.0842         estimate D2E/DX2                !
 ! R4    R(2,3)                  1.4051         estimate D2E/DX2                !
 ! R5    R(2,7)                  1.5034         estimate D2E/DX2                !
 ! R6    R(3,4)                  1.3939         estimate D2E/DX2                !
 ! R7    R(3,20)                 1.083          estimate D2E/DX2                !
 ! R8    R(4,5)                  1.3952         estimate D2E/DX2                !
 ! R9    R(4,21)                 1.0861         estimate D2E/DX2                !
 ! R10   R(5,6)                  1.3981         estimate D2E/DX2                !
 ! R11   R(5,22)                 1.0865         estimate D2E/DX2                !
 ! R12   R(6,23)                 1.0862         estimate D2E/DX2                !
 ! R13   R(7,8)                  1.5673         estimate D2E/DX2                !
 ! R14   R(7,11)                 2.1            Frozen                          !
 ! R15   R(7,14)                 1.2928         estimate D2E/DX2                !
 ! R16   R(8,9)                  1.5299         estimate D2E/DX2                !
 ! R17   R(8,25)                 1.0947         estimate D2E/DX2                !
 ! R18   R(8,26)                 1.5328         estimate D2E/DX2                !
 ! R19   R(9,10)                 1.5282         estimate D2E/DX2                !
 ! R20   R(9,27)                 1.0942         estimate D2E/DX2                !
 ! R21   R(9,28)                 1.0949         estimate D2E/DX2                !
 ! R22   R(10,11)                1.5108         estimate D2E/DX2                !
 ! R23   R(10,29)                1.0946         estimate D2E/DX2                !
 ! R24   R(10,30)                1.0976         estimate D2E/DX2                !
 ! R25   R(11,12)                1.3757         estimate D2E/DX2                !
 ! R26   R(11,31)                1.0874         estimate D2E/DX2                !
 ! R27   R(12,13)                1.4872         estimate D2E/DX2                !
 ! R28   R(12,14)                2.8            Frozen                          !
 ! R29   R(12,17)                1.4962         estimate D2E/DX2                !
 ! R30   R(13,35)                1.0947         estimate D2E/DX2                !
 ! R31   R(13,36)                1.1032         estimate D2E/DX2                !
 ! R32   R(13,37)                1.0915         estimate D2E/DX2                !
 ! R33   R(14,15)                1.9126         estimate D2E/DX2                !
 ! R34   R(15,16)                2.2056         estimate D2E/DX2                !
 ! R35   R(15,18)                2.2002         estimate D2E/DX2                !
 ! R36   R(15,19)                2.2082         estimate D2E/DX2                !
 ! R37   R(17,32)                1.0916         estimate D2E/DX2                !
 ! R38   R(17,33)                1.0998         estimate D2E/DX2                !
 ! R39   R(17,34)                1.098          estimate D2E/DX2                !
 ! R40   R(26,38)                1.3369         estimate D2E/DX2                !
 ! R41   R(26,39)                1.2131         estimate D2E/DX2                !
 ! R42   R(38,40)                1.4552         estimate D2E/DX2                !
 ! R43   R(40,41)                1.5153         estimate D2E/DX2                !
 ! R44   R(40,42)                1.095          estimate D2E/DX2                !
 ! R45   R(40,43)                1.0935         estimate D2E/DX2                !
 ! R46   R(41,44)                1.0958         estimate D2E/DX2                !
 ! R47   R(41,45)                1.0942         estimate D2E/DX2                !
 ! R48   R(41,46)                1.0935         estimate D2E/DX2                !
 ! A1    A(2,1,6)              120.4263         estimate D2E/DX2                !
 ! A2    A(2,1,24)             120.6226         estimate D2E/DX2                !
 ! A3    A(6,1,24)             118.9407         estimate D2E/DX2                !
 ! A4    A(1,2,3)              118.8465         estimate D2E/DX2                !
 ! A5    A(1,2,7)              122.437          estimate D2E/DX2                !
 ! A6    A(3,2,7)              118.6871         estimate D2E/DX2                !
 ! A7    A(2,3,4)              120.5022         estimate D2E/DX2                !
 ! A8    A(2,3,20)             119.3111         estimate D2E/DX2                !
 ! A9    A(4,3,20)             120.1601         estimate D2E/DX2                !
 ! A10   A(3,4,5)              120.2109         estimate D2E/DX2                !
 ! A11   A(3,4,21)             119.5035         estimate D2E/DX2                !
 ! A12   A(5,4,21)             120.2828         estimate D2E/DX2                !
 ! A13   A(4,5,6)              119.7527         estimate D2E/DX2                !
 ! A14   A(4,5,22)             120.1905         estimate D2E/DX2                !
 ! A15   A(6,5,22)             120.0542         estimate D2E/DX2                !
 ! A16   A(1,6,5)              120.2586         estimate D2E/DX2                !
 ! A17   A(1,6,23)             119.5359         estimate D2E/DX2                !
 ! A18   A(5,6,23)             120.2046         estimate D2E/DX2                !
 ! A19   A(2,7,8)              120.1788         estimate D2E/DX2                !
 ! A20   A(2,7,14)             115.6307         estimate D2E/DX2                !
 ! A21   A(8,7,14)             114.5856         estimate D2E/DX2                !
 ! A22   A(7,8,9)              114.001          estimate D2E/DX2                !
 ! A23   A(7,8,25)             103.1669         estimate D2E/DX2                !
 ! A24   A(7,8,26)             111.4994         estimate D2E/DX2                !
 ! A25   A(9,8,25)             108.4605         estimate D2E/DX2                !
 ! A26   A(9,8,26)             112.4073         estimate D2E/DX2                !
 ! A27   A(25,8,26)            106.5643         estimate D2E/DX2                !
 ! A28   A(8,9,10)             105.6606         estimate D2E/DX2                !
 ! A29   A(8,9,27)             110.262          estimate D2E/DX2                !
 ! A30   A(8,9,28)             110.6979         estimate D2E/DX2                !
 ! A31   A(10,9,27)            112.5769         estimate D2E/DX2                !
 ! A32   A(10,9,28)            110.9911         estimate D2E/DX2                !
 ! A33   A(27,9,28)            106.7158         estimate D2E/DX2                !
 ! A34   A(9,10,11)            106.0478         estimate D2E/DX2                !
 ! A35   A(9,10,29)            110.2048         estimate D2E/DX2                !
 ! A36   A(9,10,30)            111.3982         estimate D2E/DX2                !
 ! A37   A(11,10,29)           111.6237         estimate D2E/DX2                !
 ! A38   A(11,10,30)           110.1849         estimate D2E/DX2                !
 ! A39   A(29,10,30)           107.4324         estimate D2E/DX2                !
 ! A40   A(10,11,12)           126.6405         estimate D2E/DX2                !
 ! A41   A(10,11,31)           113.2129         estimate D2E/DX2                !
 ! A42   A(12,11,31)           115.1793         estimate D2E/DX2                !
 ! A43   A(11,12,13)           123.3204         estimate D2E/DX2                !
 ! A44   A(11,12,17)           120.2758         estimate D2E/DX2                !
 ! A45   A(13,12,17)           115.9895         estimate D2E/DX2                !
 ! A46   A(12,13,35)           111.4151         estimate D2E/DX2                !
 ! A47   A(12,13,36)           107.9678         estimate D2E/DX2                !
 ! A48   A(12,13,37)           113.8426         estimate D2E/DX2                !
 ! A49   A(35,13,36)           106.3539         estimate D2E/DX2                !
 ! A50   A(35,13,37)           109.3699         estimate D2E/DX2                !
 ! A51   A(36,13,37)           107.5354         estimate D2E/DX2                !
 ! A52   A(7,14,15)            146.6421         estimate D2E/DX2                !
 ! A53   A(14,15,16)           108.8168         estimate D2E/DX2                !
 ! A54   A(14,15,18)           107.0069         estimate D2E/DX2                !
 ! A55   A(14,15,19)           104.5093         estimate D2E/DX2                !
 ! A56   A(16,15,18)           114.0017         estimate D2E/DX2                !
 ! A57   A(16,15,19)           111.2255         estimate D2E/DX2                !
 ! A58   A(18,15,19)           110.732          estimate D2E/DX2                !
 ! A59   A(12,17,32)           112.9672         estimate D2E/DX2                !
 ! A60   A(12,17,33)           109.7673         estimate D2E/DX2                !
 ! A61   A(12,17,34)           109.9213         estimate D2E/DX2                !
 ! A62   A(32,17,33)           108.8318         estimate D2E/DX2                !
 ! A63   A(32,17,34)           108.8438         estimate D2E/DX2                !
 ! A64   A(33,17,34)           106.2815         estimate D2E/DX2                !
 ! A65   A(8,26,38)            110.5926         estimate D2E/DX2                !
 ! A66   A(8,26,39)            124.4066         estimate D2E/DX2                !
 ! A67   A(38,26,39)           124.9918         estimate D2E/DX2                !
 ! A68   A(26,38,40)           116.8257         estimate D2E/DX2                !
 ! A69   A(38,40,41)           107.6527         estimate D2E/DX2                !
 ! A70   A(38,40,42)           107.8487         estimate D2E/DX2                !
 ! A71   A(38,40,43)           108.1843         estimate D2E/DX2                !
 ! A72   A(41,40,42)           112.4138         estimate D2E/DX2                !
 ! A73   A(41,40,43)           112.5637         estimate D2E/DX2                !
 ! A74   A(42,40,43)           107.9997         estimate D2E/DX2                !
 ! A75   A(40,41,44)           109.3881         estimate D2E/DX2                !
 ! A76   A(40,41,45)           110.8264         estimate D2E/DX2                !
 ! A77   A(40,41,46)           111.1082         estimate D2E/DX2                !
 ! A78   A(44,41,45)           108.4962         estimate D2E/DX2                !
 ! A79   A(44,41,46)           108.7993         estimate D2E/DX2                !
 ! A80   A(45,41,46)           108.1574         estimate D2E/DX2                !
 ! D1    D(6,1,2,3)              0.349          estimate D2E/DX2                !
 ! D2    D(6,1,2,7)            178.3484         estimate D2E/DX2                !
 ! D3    D(24,1,2,3)          -178.4655         estimate D2E/DX2                !
 ! D4    D(24,1,2,7)            -0.4661         estimate D2E/DX2                !
 ! D5    D(2,1,6,5)              0.0659         estimate D2E/DX2                !
 ! D6    D(2,1,6,23)          -179.5836         estimate D2E/DX2                !
 ! D7    D(24,1,6,5)           178.9002         estimate D2E/DX2                !
 ! D8    D(24,1,6,23)           -0.7493         estimate D2E/DX2                !
 ! D9    D(1,2,3,4)             -0.3454         estimate D2E/DX2                !
 ! D10   D(1,2,3,20)           177.7811         estimate D2E/DX2                !
 ! D11   D(7,2,3,4)           -178.4207         estimate D2E/DX2                !
 ! D12   D(7,2,3,20)            -0.2941         estimate D2E/DX2                !
 ! D13   D(1,2,7,8)            -32.5882         estimate D2E/DX2                !
 ! D14   D(1,2,7,14)          -176.9599         estimate D2E/DX2                !
 ! D15   D(3,2,7,8)            145.4142         estimate D2E/DX2                !
 ! D16   D(3,2,7,14)             1.0426         estimate D2E/DX2                !
 ! D17   D(2,3,4,5)             -0.0736         estimate D2E/DX2                !
 ! D18   D(2,3,4,21)           179.3221         estimate D2E/DX2                !
 ! D19   D(20,3,4,5)          -178.1842         estimate D2E/DX2                !
 ! D20   D(20,3,4,21)            1.2115         estimate D2E/DX2                !
 ! D21   D(3,4,5,6)              0.4928         estimate D2E/DX2                !
 ! D22   D(3,4,5,22)           179.9116         estimate D2E/DX2                !
 ! D23   D(21,4,5,6)          -178.8982         estimate D2E/DX2                !
 ! D24   D(21,4,5,22)            0.5206         estimate D2E/DX2                !
 ! D25   D(4,5,6,1)             -0.4891         estimate D2E/DX2                !
 ! D26   D(4,5,6,23)           179.158          estimate D2E/DX2                !
 ! D27   D(22,5,6,1)          -179.9088         estimate D2E/DX2                !
 ! D28   D(22,5,6,23)           -0.2616         estimate D2E/DX2                !
 ! D29   D(2,7,8,9)             92.8154         estimate D2E/DX2                !
 ! D30   D(2,7,8,25)          -149.7885         estimate D2E/DX2                !
 ! D31   D(2,7,8,26)           -35.7826         estimate D2E/DX2                !
 ! D32   D(14,7,8,9)          -122.4642         estimate D2E/DX2                !
 ! D33   D(14,7,8,25)           -5.0682         estimate D2E/DX2                !
 ! D34   D(14,7,8,26)          108.9378         estimate D2E/DX2                !
 ! D35   D(2,7,14,15)          104.616          estimate D2E/DX2                !
 ! D36   D(8,7,14,15)          -41.7576         estimate D2E/DX2                !
 ! D37   D(7,8,9,10)            38.0136         estimate D2E/DX2                !
 ! D38   D(7,8,9,27)           159.9189         estimate D2E/DX2                !
 ! D39   D(7,8,9,28)           -82.2265         estimate D2E/DX2                !
 ! D40   D(25,8,9,10)          -76.2862         estimate D2E/DX2                !
 ! D41   D(25,8,9,27)           45.6191         estimate D2E/DX2                !
 ! D42   D(25,8,9,28)          163.4737         estimate D2E/DX2                !
 ! D43   D(26,8,9,10)          166.1493         estimate D2E/DX2                !
 ! D44   D(26,8,9,27)          -71.9454         estimate D2E/DX2                !
 ! D45   D(26,8,9,28)           45.9091         estimate D2E/DX2                !
 ! D46   D(7,8,26,38)          -64.9685         estimate D2E/DX2                !
 ! D47   D(7,8,26,39)          116.0784         estimate D2E/DX2                !
 ! D48   D(9,8,26,38)          165.5904         estimate D2E/DX2                !
 ! D49   D(9,8,26,39)          -13.3627         estimate D2E/DX2                !
 ! D50   D(25,8,26,38)          46.9064         estimate D2E/DX2                !
 ! D51   D(25,8,26,39)        -132.0468         estimate D2E/DX2                !
 ! D52   D(8,9,10,11)          -52.1685         estimate D2E/DX2                !
 ! D53   D(8,9,10,29)           68.7926         estimate D2E/DX2                !
 ! D54   D(8,9,10,30)         -172.059          estimate D2E/DX2                !
 ! D55   D(27,9,10,11)        -172.5716         estimate D2E/DX2                !
 ! D56   D(27,9,10,29)         -51.6104         estimate D2E/DX2                !
 ! D57   D(27,9,10,30)          67.538          estimate D2E/DX2                !
 ! D58   D(28,9,10,11)          67.8794         estimate D2E/DX2                !
 ! D59   D(28,9,10,29)        -171.1595         estimate D2E/DX2                !
 ! D60   D(28,9,10,30)         -52.011          estimate D2E/DX2                !
 ! D61   D(9,10,11,12)         147.6645         estimate D2E/DX2                !
 ! D62   D(9,10,11,31)         -58.7105         estimate D2E/DX2                !
 ! D63   D(29,10,11,12)         27.6238         estimate D2E/DX2                !
 ! D64   D(29,10,11,31)       -178.7511         estimate D2E/DX2                !
 ! D65   D(30,10,11,12)        -91.6562         estimate D2E/DX2                !
 ! D66   D(30,10,11,31)         61.9688         estimate D2E/DX2                !
 ! D67   D(10,11,12,13)        -19.8805         estimate D2E/DX2                !
 ! D68   D(10,11,12,17)        167.8085         estimate D2E/DX2                !
 ! D69   D(31,11,12,13)       -173.0631         estimate D2E/DX2                !
 ! D70   D(31,11,12,17)         14.6258         estimate D2E/DX2                !
 ! D71   D(11,12,13,35)        152.6667         estimate D2E/DX2                !
 ! D72   D(11,12,13,36)        -90.9006         estimate D2E/DX2                !
 ! D73   D(11,12,13,37)         28.4148         estimate D2E/DX2                !
 ! D74   D(17,12,13,35)        -34.7189         estimate D2E/DX2                !
 ! D75   D(17,12,13,36)         81.7138         estimate D2E/DX2                !
 ! D76   D(17,12,13,37)       -158.9708         estimate D2E/DX2                !
 ! D77   D(11,12,17,32)         -4.464          estimate D2E/DX2                !
 ! D78   D(11,12,17,33)        117.1934         estimate D2E/DX2                !
 ! D79   D(11,12,17,34)       -126.2478         estimate D2E/DX2                !
 ! D80   D(13,12,17,32)       -177.3191         estimate D2E/DX2                !
 ! D81   D(13,12,17,33)        -55.6617         estimate D2E/DX2                !
 ! D82   D(13,12,17,34)         60.8971         estimate D2E/DX2                !
 ! D83   D(7,14,15,16)          50.4721         estimate D2E/DX2                !
 ! D84   D(7,14,15,18)         -73.1427         estimate D2E/DX2                !
 ! D85   D(7,14,15,19)         169.371          estimate D2E/DX2                !
 ! D86   D(8,26,38,40)        -179.6117         estimate D2E/DX2                !
 ! D87   D(39,26,38,40)         -0.6659         estimate D2E/DX2                !
 ! D88   D(26,38,40,41)        170.9614         estimate D2E/DX2                !
 ! D89   D(26,38,40,42)        -67.5158         estimate D2E/DX2                !
 ! D90   D(26,38,40,43)         49.0659         estimate D2E/DX2                !
 ! D91   D(38,40,41,44)        178.8312         estimate D2E/DX2                !
 ! D92   D(38,40,41,45)        -61.5853         estimate D2E/DX2                !
 ! D93   D(38,40,41,46)         58.6954         estimate D2E/DX2                !
 ! D94   D(42,40,41,44)         60.1987         estimate D2E/DX2                !
 ! D95   D(42,40,41,45)        179.7822         estimate D2E/DX2                !
 ! D96   D(42,40,41,46)        -59.9371         estimate D2E/DX2                !
 ! D97   D(43,40,41,44)        -62.0336         estimate D2E/DX2                !
 ! D98   D(43,40,41,45)         57.5499         estimate D2E/DX2                !
 ! D99   D(43,40,41,46)        177.8306         estimate D2E/DX2                !
 --------------------------------------------------------------------------------
 Trust Radius=3.00D-01 FncErr=1.00D-07 GrdErr=1.00D-06 EigMax=2.50D+02 EigMin=1.00D-04
 Number of steps in this run=    237 maximum allowed number of steps=    276.
 GradGradGradGradGradGradGradGradGradGradGradGradGradGradGradGradGradGrad

 Leave Link  103 at Sat Jun 19 21:34:57 2021, MaxMem=  2147483648 cpu:               0.2 elap:               0.1
 (Enter /SFS/product/gaussian/g16.a03/x86_64/avx/g16/l202.exe)
                          Input orientation:                          
 ---------------------------------------------------------------------
 Center     Atomic      Atomic             Coordinates (Angstroms)
 Number     Number       Type             X           Y           Z
 ---------------------------------------------------------------------
      1          6           0       -3.138708    0.162200    0.362677
      2          6           0       -1.786671    0.394221    0.677657
      3          6           0       -1.405813    0.452847    2.028847
      4          6           0       -2.353031    0.291083    3.038561
      5          6           0       -3.692360    0.070317    2.715926
      6          6           0       -4.080642    0.001409    1.374640
      7          6           0       -0.725956    0.538241   -0.378043
      8          6           0       -0.838912   -0.259452   -1.722367
      9          6           0       -1.534649    0.510673   -2.846351
     10          6           0       -1.066286    1.958472   -2.705738
     11          6           0       -1.325318    2.343447   -1.267987
     12          6           0       -0.583104    3.214885   -0.504886
     13          6           0        0.819387    3.591335   -0.826057
     14          8           0        0.481479    0.687318    0.059088
     15         26           0        2.190260   -0.124477    0.340376
     16         17           0        2.842091   -1.079329   -1.537935
     17          6           0       -1.109752    3.705722    0.806751
     18         17           0        1.969195   -1.522216    2.025118
     19         17           0        3.517109    1.554155    0.886266
     20          1           0       -0.361916    0.594843    2.279756
     21          1           0       -2.038932    0.328370    4.077574
     22          1           0       -4.430159   -0.057155    3.503211
     23          1           0       -5.118971   -0.183757    1.115172
     24          1           0       -3.460111    0.086796   -0.670068
     25          1           0        0.206261   -0.418544   -2.006503
     26          6           0       -1.448123   -1.648626   -1.501802
     27          1           0       -1.276969    0.078266   -3.817902
     28          1           0       -2.622815    0.439204   -2.748476
     29          1           0       -0.004603    2.038729   -2.959810
     30          1           0       -1.617414    2.625081   -3.381492
     31          1           0       -2.370336    2.252238   -0.981469
     32          1           0       -2.125414    3.362903    1.013141
     33          1           0       -0.450045    3.371803    1.620887
     34          1           0       -1.094591    4.803381    0.828839
     35          1           0        1.064358    4.586325   -0.440918
     36          1           0        1.488798    2.884118   -0.307664
     37          1           0        1.055284    3.547123   -1.890828
     38          8           0       -0.640243   -2.402230   -0.749047
     39          8           0       -2.507626   -2.014079   -1.966069
     40          6           0       -1.085527   -3.757467   -0.461656
     41          6           0        0.065230   -4.488754    0.199554
     42          1           0       -1.965622   -3.691229    0.186464
     43          1           0       -1.392936   -4.222405   -1.402483
     44          1           0       -0.247011   -5.509340    0.447880
     45          1           0        0.928162   -4.543216   -0.470972
     46          1           0        0.378049   -3.982868    1.117095
 ---------------------------------------------------------------------
                    Distance matrix (angstroms):
                    1          2          3          4          5
     1  C    0.000000
     2  C    1.407498   0.000000
     3  C    2.421471   1.405064   0.000000
     4  C    2.791819   2.430076   1.393884   0.000000
     5  C    2.419247   2.809111   2.417996   1.395218   0.000000
     6  C    1.391820   2.429483   2.790429   2.416026   1.398056
     7  C    2.551753   1.503450   2.502522   3.792314   4.311746
     8  C    3.132772   2.661889   3.860098   5.026140   5.286715
     9  C    3.604483   3.534927   4.877243   5.945600   5.982354
    10  C    4.115422   3.796472   4.979807   6.118241   6.313148
    11  C    3.271893   2.792465   3.801311   4.880036   5.161547
    12  C    4.074637   3.286811   3.837383   4.923137   5.470778
    13  C    5.370156   4.390243   4.790835   5.990924   6.730459
    14  O    3.670650   2.369185   2.738028   4.131429   4.986021
    15  Fe   5.336720   4.024772   4.014471   5.300414   6.347157
    16  Cl   6.397162   5.339067   5.754493   7.057736   7.881375
    17  C    4.107361   3.382443   3.487458   4.264561   4.850874
    18  Cl   5.629533   4.426614   3.910443   4.795493   5.921704
    19  Cl   6.819940   5.433143   5.172382   6.378579   7.584581
    20  H    3.401903   2.153346   1.082977   2.152346   3.399592
    21  H    3.877832   3.409898   2.147933   1.086092   2.157429
    22  H    3.402781   3.895578   3.403016   2.156764   1.086469
    23  H    2.146480   3.410235   3.876546   3.402253   2.159210
    24  H    1.084227   2.170547   3.411492   3.875731   3.393990
    25  H    4.139939   3.440506   4.431947   5.701422   6.143254
    26  C    3.100556   3.006307   4.108949   5.019584   5.077459
    27  H    4.577156   4.535380   5.860152   6.943651   6.965995
    28  H    3.165778   3.526974   4.929918   5.795215   5.580295
    29  H    4.937904   4.371652   5.418958   6.674566   7.048984
    30  H    4.732750   4.634876   5.833965   6.870645   6.928977
    31  H    2.601035   2.558435   3.637323   4.472926   4.492133
    32  H    3.419703   3.006721   3.165108   3.686491   4.024415
    33  H    4.371905   3.397388   3.098423   3.888700   4.755158
    34  H    5.092768   4.465705   4.523718   5.179515   5.719388
    35  H    6.155031   5.191658   5.411758   6.498802   7.279173
    36  H    5.410361   4.230738   4.444000   5.716704   6.626007
    37  H    5.841708   4.961312   5.567351   6.820358   7.473318
    38  O    3.748941   3.342143   4.056385   4.953136   5.237838
    39  O    3.249233   3.648146   4.822766   5.512168   5.260169
    40  C    4.500985   4.361898   4.902237   5.499895   5.616452
    41  C    5.650062   5.244193   5.470804   6.062573   6.421584
    42  H    4.031885   4.118761   4.569587   4.913588   4.850673
    43  H    5.038677   5.078902   5.799325   6.404391   6.377782
    44  H    6.366752   6.105357   6.276142   6.692672   6.938806
    45  H    6.274977   5.750474   6.054517   6.815680   7.265688
    46  H    5.488016   4.902859   4.867137   5.423789   5.962617
                    6          7          8          9         10
     6  C    0.000000
     7  C    3.822827   0.000000
     8  C    4.490915   1.567252   0.000000
     9  C    4.955623   2.597554   1.529864   0.000000
    10  C    5.437455   2.747916   2.436782   1.528155   0.000000
    11  C    4.478887   2.100001   2.686659   2.427779   1.510772
    12  C    5.108015   2.683453   3.690354   3.701440   2.579881
    13  C    6.460721   3.451114   4.287410   4.371905   3.123332
    14  O    4.797301   1.292752   2.411097   3.540840   3.414040
    15  Fe   6.356867   3.075652   3.667289   4.943035   4.921644
    16  Cl   7.587840   4.085687   3.775711   4.836932   5.086001
    17  C    4.782324   3.403523   4.710881   4.871758   3.923309
    18  Cl   6.272566   4.157464   4.850122   6.335674   6.611379
    19  Cl   7.770158   4.542484   5.391573   6.367224   5.837249
    20  H    3.873025   2.683212   4.119992   5.259217   5.216394
    21  H    3.403136   4.649782   5.951882   6.944658   7.043905
    22  H    2.157871   5.398125   6.343867   7.001667   7.343667
    23  H    1.086157   4.695695   5.135783   5.387324   5.967642
    24  H    2.138500   2.786518   2.845682   2.936543   3.657529
    25  H    5.475950   2.106264   1.094728   2.144658   2.785410
    26  C    4.233992   2.562566   1.532838   2.545166   3.821834
    27  H    5.901608   3.513947   2.167306   1.094206   2.194646
    28  H    4.395112   3.037571   2.173322   1.094894   2.175496
    29  H    6.289056   3.072025   2.740250   2.165380   1.094607
    30  H    5.964222   3.764346   3.417498   2.182647   1.097612
    31  H    3.680031   2.450693   3.033608   2.684997   2.181731
    32  H    3.905540   3.445663   4.718002   4.835276   4.113908
    33  H    4.959983   3.478638   4.951220   5.414670   4.593141
    34  H    5.680962   4.447907   5.675060   5.668158   4.537350
    35  H    7.126621   4.426755   5.361539   5.399249   4.071199
    36  H    6.492982   3.226953   4.159525   4.606452   3.624367
    37  H    7.043657   3.809817   4.255158   4.103755   2.772896
    38  O    4.703602   2.965023   2.361846   3.699142   4.798528
    39  O    4.206769   3.494354   2.433662   2.845339   4.290190
    40  C    5.145080   4.311541   3.726435   4.909735   6.140703
    41  C    6.223395   5.121550   4.732679   6.068890   7.161548
    42  H    4.418218   4.443406   4.085365   5.199970   6.410363
    43  H    5.725101   4.915088   4.014258   4.950441   6.325220
    44  H    6.776722   6.122481   5.711536   6.982158   8.147683
    45  H    7.010565   5.344712   4.799914   6.103250   7.158488
    46  H    5.985041   4.888220   4.838116   6.289613   7.211080
                   11         12         13         14         15
    11  C    0.000000
    12  C    1.375721   0.000000
    13  C    2.520374   1.487228   0.000000
    14  O    2.787186   2.800000   3.054665   0.000000
    15  Fe   4.586586   4.422370   4.128816   1.912607   0.000000
    16  Cl   5.399589   5.589224   5.139378   3.353209   2.205602
    17  C    2.491345   1.496219   2.529965   3.493104   5.077205
    18  Cl   6.053239   5.946030   5.966545   3.310682   2.200204
    19  Cl   5.358441   4.637356   3.789440   3.263538   2.208241
    20  H    4.070902   3.829853   4.474429   2.377232   3.285151
    21  H    5.757152   5.608061   6.546948   4.757052   5.661959
    22  H    6.177966   6.447551   7.720866   6.044867   7.337439
    23  H    5.143735   5.894866   7.299574   5.765338   7.350420
    24  H    3.163435   4.253163   5.533555   4.053200   5.743895
    25  H    3.243414   4.009957   4.224749   2.359098   3.087162
    26  C    4.000800   5.039428   5.749385   3.408280   4.353674
    27  H    3.411077   4.614748   5.068284   4.300481   5.417938
    28  H    2.738884   4.110781   5.047809   4.192925   5.746689
    29  H    2.167811   2.782923   2.764498   3.343102   4.515320
    30  H    2.152102   3.113283   3.660860   4.471898   5.992558
    31  H    1.087416   2.085190   3.462899   3.415345   5.309904
    32  H    2.623545   2.169109   3.479466   3.855498   5.589228
    33  H    3.188920   2.135706   2.765355   3.242439   4.564525
    34  H    3.240554   2.136296   2.805539   4.474202   5.942443
    35  H    3.380103   2.144544   1.094691   3.973916   4.906091
    36  H    3.022217   2.107387   1.103176   2.444408   3.156525
    37  H    2.739349   2.171528   1.091485   3.508548   4.443770
    38  O    4.822870   5.622709   6.169220   3.384767   3.792987
    39  O    4.568720   5.760287   6.617349   4.509274   5.564209
    40  C    6.158638   6.990564   7.600419   4.741603   4.957081
    41  C    7.125045   7.762901   8.179760   5.194681   4.856181
    42  H    6.240411   7.076986   7.862392   5.017589   5.478756
    43  H    6.567577   7.534905   8.141325   5.454815   5.715756
    44  H    8.110068   8.782529   9.251076   6.251434   5.911734
    45  H    7.289687   7.903999   8.143024   5.276265   4.666522
    46  H    6.972255   7.440584   7.831933   4.789647   4.332965
                   16         17         18         19         20
    16  Cl   0.000000
    17  C    6.634103   0.000000
    18  Cl   3.695057   6.188349   0.000000
    19  Cl   3.642477   5.103274   3.627269   0.000000
    20  H    5.257687   3.522296   3.159250   4.231894   0.000000
    21  H    7.572314   4.792511   4.868503   6.523541   2.472962
    22  H    8.907503   5.696950   6.729257   8.520786   4.297970
    23  H    8.439167   5.594373   7.270596   8.812186   4.959037
    24  H    6.467673   4.560900   6.271388   7.297734   4.307944
    25  H    2.757498   5.162931   4.536518   4.818855   4.440923
    26  C    4.327972   5.840630   4.912556   6.372927   4.529148
    27  H    4.848188   5.879950   6.873137   6.876818   6.187536
    28  H    5.799703   5.059559   6.908033   7.221713   5.515343
    29  H    4.455074   4.264646   6.436281   5.237325   5.446607
    30  H    6.083465   4.355099   7.700342   6.761950   6.143930
    31  H    6.211150   2.626674   6.489807   6.215928   4.173284
    32  H    7.135651   1.091646   6.454015   5.926697   3.518010
    33  H    6.374080   1.099788   5.474262   4.425135   2.855413
    34  H    7.463602   1.097986   7.129589   5.641679   4.511515
    35  H    6.038495   2.656858   6.649386   4.119643   5.036691
    36  H    4.365075   2.944387   5.008835   2.703390   3.919268
    37  H    4.972049   3.462581   6.470554   4.212452   5.302658
    38  O    3.807763   6.320445   3.908911   5.967479   4.270077
    39  O    5.447617   6.508357   6.017759   7.560790   5.425641
    40  C    4.874114   7.570247   4.528986   7.156429   5.194377
    41  C    4.728002   8.300525   3.969649   6.993125   5.509324
    42  H    5.736696   7.472092   4.854694   7.619981   5.032311
    43  H    5.275673   8.235053   5.508484   7.919316   6.150428
    44  H    5.754217   9.262315   4.826635   8.015843   6.374168
    45  H    4.098786   8.592476   4.054708   6.761854   5.969125
    46  H    4.642330   7.837364   3.067745   6.369113   4.780666
                   21         22         23         24         25
    21  H    0.000000
    22  H    2.489275   0.000000
    23  H    4.304038   2.488618   0.000000
    24  H    4.961674   4.286954   2.451958   0.000000
    25  H    6.527999   7.209989   6.177222   3.934935   0.000000
    26  C    5.948698   6.039493   4.740202   2.784164   2.122454
    27  H    7.936100   7.972430   6.258183   3.830802   2.393315
    28  H    6.851873   6.526596   4.641837   2.268267   3.047938
    29  H    7.522539   8.108571   6.906640   4.581866   2.644135
    30  H    7.816024   7.906014   6.353775   4.146112   3.805265
    31  H    5.422639   5.448717   4.229062   2.444119   3.850016
    32  H    4.313539   4.817582   4.642261   3.917587   5.371620
    33  H    4.221653   5.580520   5.890384   5.010014   5.287289
    34  H    5.609972   6.473260   6.414762   5.485306   6.082753
    35  H    6.940991   8.204132   7.962955   6.385068   5.313765
    36  H    6.181184   7.629411   7.422865   5.696319   3.929190
    37  H    7.453614   8.495679   7.815173   5.818325   4.057183
    38  O    5.719159   6.159914   5.334411   3.762066   2.496553
    39  O    6.498643   6.118718   4.434326   2.645850   3.148420
    40  C    6.181234   6.371738   5.614843   4.523322   3.899189
    41  C    6.532321   7.124727   6.800536   5.841227   4.631758
    42  H    5.594934   5.502840   4.807127   4.152182   4.498516
    43  H    7.152474   7.116169   6.044220   4.835169   4.170327
    44  H    7.103838   7.520645   7.248662   6.549088   5.669714
    45  H    7.295565   8.039308   7.621585   6.382287   4.460035
    46  H    5.761337   6.650085   6.682101   5.872613   4.742445
                   26         27         28         29         30
    26  C    0.000000
    27  H    2.894092   0.000000
    28  H    2.700580   1.756488   0.000000
    29  H    4.219730   2.489709   3.075415   0.000000
    30  H    4.671880   2.606266   2.487890   1.767140   0.000000
    31  H    4.042025   3.737239   2.544239   3.091296   2.542836
    32  H    5.647927   5.903192   4.790113   4.694211   4.485002
    33  H    5.996003   6.411834   5.693189   4.791481   5.190774
    34  H    6.869153   6.629644   5.846255   4.815105   4.769195
    35  H    6.805340   6.099871   6.009882   3.738682   4.436818
    36  H    5.531477   5.276746   5.370338   3.158925   4.377679
    37  H    5.780501   4.602824   4.891128   2.131041   3.196178
    38  O    1.336873   3.997018   4.000257   5.001363   5.758341
    39  O    1.213114   3.053148   2.577601   4.865994   4.931299
    40  C    2.379199   5.100381   5.020443   6.403519   7.038840
    41  C    3.640217   6.228894   6.340445   7.252206   8.140137
    42  H    2.700051   5.542408   5.109428   6.824738   7.262736
    43  H    2.576286   4.933910   5.005487   6.599586   7.131264
    44  H    4.488768   7.104861   7.158653   8.285195   9.094553
    45  H    3.884326   6.117405   6.528474   7.098335   8.144665
    46  H    3.955024   6.601976   6.595646   7.281978   8.239184
                   31         32         33         34         35
    31  H    0.000000
    32  H    2.296091   0.000000
    33  H    3.422455   1.782217   0.000000
    34  H    3.378324   1.780882   1.758464   0.000000
    35  H    4.187754   3.712909   2.831876   2.514052   0.000000
    36  H    3.968148   3.877665   2.777815   3.413079   1.759379
    37  H    3.773398   4.310895   3.824774   3.687375   1.783890
    38  O    4.971048   6.208687   6.244375   7.390331   7.200035
    39  O    4.380610   6.159035   6.790259   7.502396   7.658361
    40  C    6.167454   7.345479   7.454349   8.657573   8.616339
    41  C    7.264143   8.192030   8.004627   9.385359   9.152351
    42  H    6.070639   7.104203   7.364847   8.563279   8.836984
    43  H    6.561522   7.994289   8.228111   9.302291   9.195468
    44  H    8.172738   9.086507   8.960573  10.354503  10.219203
    45  H    7.570924   8.604280   8.301979   9.650902   9.130606
    46  H    7.129806   7.761346   7.418270   8.913469   8.736675
                   36         37         38         39         40
    36  H    0.000000
    37  H    1.770288   0.000000
    38  O    5.716040   6.290729   0.000000
    39  O    6.535598   6.605071   2.262504   0.000000
    40  C    7.124712   7.744846   1.455177   2.706478   0.000000
    41  C    7.526158   8.362130   2.398149   4.175348   1.515329
    42  H    7.443948   8.113862   2.072035   2.782085   1.094995
    43  H    7.746334   8.160749   2.075226   2.537098   1.093537
    44  H    8.604302   9.443784   3.352819   4.811900   2.144627
    45  H    7.450253   8.214970   2.668528   4.520673   2.161581
    46  H    7.100648   8.136769   2.649117   4.659308   2.164559
                   41         42         43         44         45
    41  C    0.000000
    42  H    2.181875   0.000000
    43  H    2.182593   1.770556   0.000000
    44  H    1.095790   2.515450   2.528476   0.000000
    45  H    1.094177   3.087408   2.521533   1.777278   0.000000
    46  H    1.093461   2.538488   3.089019   1.780075   1.771601
                   46
    46  H    0.000000
 Stoichiometry    C17H22Cl3FeO3(6)
 Framework group  C1[X(C17H22Cl3FeO3)]
 Deg. of freedom   132
 Full point group                 C1      NOp   1
 Largest Abelian subgroup         C1      NOp   1
 Largest concise Abelian subgroup C1      NOp   1
                         Standard orientation:                         
 ---------------------------------------------------------------------
 Center     Atomic      Atomic             Coordinates (Angstroms)
 Number     Number       Type             X           Y           Z
 ---------------------------------------------------------------------
      1          6           0        3.138708   -0.162201    0.362677
      2          6           0        1.786671   -0.394221    0.677657
      3          6           0        1.405813   -0.452847    2.028847
      4          6           0        2.353031   -0.291083    3.038561
      5          6           0        3.692360   -0.070318    2.715926
      6          6           0        4.080642   -0.001410    1.374640
      7          6           0        0.725956   -0.538241   -0.378043
      8          6           0        0.838912    0.259452   -1.722367
      9          6           0        1.534649   -0.510673   -2.846351
     10          6           0        1.066286   -1.958472   -2.705738
     11          6           0        1.325318   -2.343447   -1.267987
     12          6           0        0.583103   -3.214885   -0.504886
     13          6           0       -0.819388   -3.591335   -0.826057
     14          8           0       -0.481479   -0.687318    0.059088
     15         26           0       -2.190260    0.124478    0.340376
     16         17           0       -2.842091    1.079330   -1.537935
     17          6           0        1.109751   -3.705722    0.806751
     18         17           0       -1.969195    1.522217    2.025118
     19         17           0       -3.517109   -1.554154    0.886266
     20          1           0        0.361916   -0.594843    2.279756
     21          1           0        2.038932   -0.328370    4.077574
     22          1           0        4.430159    0.057154    3.503211
     23          1           0        5.118971    0.183756    1.115172
     24          1           0        3.460111   -0.086797   -0.670068
     25          1           0       -0.206261    0.418544   -2.006503
     26          6           0        1.448123    1.648626   -1.501802
     27          1           0        1.276969   -0.078266   -3.817902
     28          1           0        2.622815   -0.439204   -2.748476
     29          1           0        0.004603   -2.038729   -2.959810
     30          1           0        1.617414   -2.625081   -3.381492
     31          1           0        2.370336   -2.252238   -0.981469
     32          1           0        2.125413   -3.362903    1.013141
     33          1           0        0.450044   -3.371803    1.620887
     34          1           0        1.094590   -4.803381    0.828839
     35          1           0       -1.064359   -4.586325   -0.440918
     36          1           0       -1.488799   -2.884118   -0.307664
     37          1           0       -1.055285   -3.547123   -1.890828
     38          8           0        0.640244    2.402230   -0.749047
     39          8           0        2.507626    2.014079   -1.966069
     40          6           0        1.085528    3.757467   -0.461656
     41          6           0       -0.065229    4.488754    0.199554
     42          1           0        1.965623    3.691229    0.186464
     43          1           0        1.392937    4.222405   -1.402483
     44          1           0        0.247012    5.509340    0.447880
     45          1           0       -0.928161    4.543216   -0.470972
     46          1           0       -0.378048    3.982868    1.117095
 ---------------------------------------------------------------------
 Rotational constants (GHZ):           0.1955676           0.1644914           0.1378564
 Leave Link  202 at Sat Jun 19 21:34:57 2021, MaxMem=  2147483648 cpu:               0.2 elap:               0.0
 (Enter /SFS/product/gaussian/g16.a03/x86_64/avx/g16/l301.exe)
 Standard basis: Jul-CC-pVDZ (5D, 7F)
 Ernie: Thresh=  0.10000D-02 Tol=  0.10000D-05 Strict=F.
 Ernie:  134 primitive shells out of 958 were deleted.
 There are   766 symmetry adapted cartesian basis functions of A   symmetry.
 There are   710 symmetry adapted basis functions of A   symmetry.
   710 basis functions,  1571 primitive gaussians,   766 cartesian basis functions
   115 alpha electrons      110 beta electrons
       nuclear repulsion energy      3328.2866560855 Hartrees.
 IExCor=  402 DFT=T Ex+Corr=B3LYP ExCW=0 ScaHFX=  0.200000
 ScaDFX=  0.800000  0.720000  1.000000  0.810000 ScalE2=  1.000000  1.000000
 IRadAn=      5 IRanWt=     -1 IRanGd=            0 ICorTp=0 IEmpDi=  4
 NAtoms=   46 NActive=   46 NUniq=   46 SFac= 1.00D+00 NAtFMM=   60 NAOKFM=F Big=F
 Integral buffers will be    131072 words long.
 Raffenetti 2 integral format.
 Two-electron integral symmetry is turned on.
 Leave Link  301 at Sat Jun 19 21:34:57 2021, MaxMem=  2147483648 cpu:               1.0 elap:               0.1
 (Enter /SFS/product/gaussian/g16.a03/x86_64/avx/g16/l302.exe)
 NPDir=0 NMtPBC=     1 NCelOv=     1 NCel=       1 NClECP=     1 NCelD=      1
         NCelK=      1 NCelE2=     1 NClLst=     1 CellRange=     0.0.
 One-electron integrals computed using PRISM.
 One-electron integral symmetry used in STVInt
 NBasis=   710 RedAO= T EigKep=  1.39D-06  NBF=   710
 NBsUse=   710 1.00D-06 EigRej= -1.00D+00 NBFU=   710
 Precomputing XC quadrature grid using
 IXCGrd= 4 IRadAn=           5 IRanWt=          -1 IRanGd=           0 AccXCQ= 0.00D+00.
 Generated NRdTot=       0 NPtTot=           0 NUsed=           0 NTot=          32
 NSgBfM=   765   765   765   765   765 MxSgAt=    46 MxSgA2=    46.
 Leave Link  302 at Sat Jun 19 21:34:59 2021, MaxMem=  2147483648 cpu:              18.5 elap:               1.2
 (Enter /SFS/product/gaussian/g16.a03/x86_64/avx/g16/l303.exe)
 DipDrv:  MaxL=1.
 Leave Link  303 at Sat Jun 19 21:34:59 2021, MaxMem=  2147483648 cpu:               2.8 elap:               0.2
 (Enter /SFS/product/gaussian/g16.a03/x86_64/avx/g16/l401.exe)
 ExpMin= 1.40D-02 ExpMax= 4.32D+06 ExpMxC= 4.91D+03 IAcc=3 IRadAn=         5 AccDes= 0.00D+00
 Harris functional with IExCor=  402 and IRadAn=       5 diagonalized for initial guess.
 HarFok:  IExCor=  402 AccDes= 0.00D+00 IRadAn=         5 IDoV= 1 UseB2=F ITyADJ=14
 ICtDFT=  3500011 ScaDFX=  1.000000  1.000000  1.000000  1.000000
 FoFCou: FMM=F IPFlag=           0 FMFlag=      100000 FMFlg1=           0
         NFxFlg=           0 DoJE=T BraDBF=F KetDBF=T FulRan=T
         wScrn=  0.000000 ICntrl=       500 IOpCl=  0 I1Cent=   200000004 NGrid=           0
         NMat0=    1 NMatS0=      1 NMatT0=    0 NMatD0=    1 NMtDS0=    0 NMtDT0=    0
 Petite list used in FoFCou.
 Harris En= -3531.11064358567    
 JPrj=0 DoOrth=F DoCkMO=F.
 Initial guess <Sx>= 0.0000 <Sy>= 0.0000 <Sz>= 2.5000 <S**2>= 8.7500 S= 2.5000
 Leave Link  401 at Sat Jun 19 21:35:06 2021, MaxMem=  2147483648 cpu:             115.3 elap:               7.3
 (Enter /SFS/product/gaussian/g16.a03/x86_64/avx/g16/l502.exe)
 Integral symmetry usage will be decided dynamically.
 UHF open shell SCF:
 Using DIIS extrapolation, IDIIS=  1040.
 NGot=  2147483648 LenX=  2146290678 LenY=  2145703156
 Requested convergence on RMS density matrix=1.00D-08 within 128 cycles.
 Requested convergence on MAX density matrix=1.00D-06.
 Requested convergence on             energy=1.00D-06.
 No special actions if energy rises.
 Fock matrices will be formed incrementally for  20 cycles.

 Cycle   1  Pass 1  IDiag  1:
 FoFJK:  IHMeth= 1 ICntrl=       0 DoSepK=F KAlg= 0 I1Cent=           0 FoldK=F
 IRaf= 920000000 NMat=       1 IRICut=       1 DoRegI=T DoRafI=F ISym2E= 0 IDoP0=0 IntGTp=1.
 FoFCou: FMM=F IPFlag=           0 FMFlag=      100000 FMFlg1=           0
         NFxFlg=           0 DoJE=F BraDBF=F KetDBF=F FulRan=T
         wScrn=  0.000000 ICntrl=         0 IOpCl=  1 I1Cent=           0 NGrid=           0
         NMat0=    1 NMatS0=      1 NMatT0=    0 NMatD0=    1 NMtDS0=    0 NMtDT0=    0
 Symmetry not used in FoFCou.
 E= -3530.38274640139    
 DIIS: error= 1.73D-02 at cycle   1 NSaved=   1.
 NSaved= 1 IEnMin= 1 EnMin= -3530.38274640139     IErMin= 1 ErrMin= 1.73D-02
 ErrMax= 1.73D-02  0.00D+00 EMaxC= 1.00D-01 BMatC= 4.46D+00 BMatP= 4.46D+00
 IDIUse=3 WtCom= 8.27D-01 WtEn= 1.73D-01
 Coeff-Com:  0.100D+01
 Coeff-En:   0.100D+01
 Coeff:      0.100D+01
 Gap=     0.165 Goal=   None    Shift=    0.000
 Gap=     0.131 Goal=   None    Shift=    0.000
 GapD=    0.131 DampG=1.000 DampE=0.250 DampFc=0.2500 IDamp=-1.
 Damping current iteration by 2.50D-01
 RMSDP=3.63D-02 MaxDP=1.22D+01              OVMax= 7.98D-01

 Cycle   2  Pass 1  IDiag  1:
 RMSU=  4.73D-03    CP:  9.14D-01
 E= -3530.41075594198     Delta-E=       -0.028009540583 Rises=F Damp=T
 DIIS: error= 1.11D-02 at cycle   2 NSaved=   2.
 NSaved= 2 IEnMin= 2 EnMin= -3530.41075594198     IErMin= 2 ErrMin= 1.11D-02
 ErrMax= 1.11D-02  0.00D+00 EMaxC= 1.00D-01 BMatC= 1.42D+00 BMatP= 4.46D+00
 IDIUse=3 WtCom= 8.89D-01 WtEn= 1.11D-01
 Coeff-Com:  0.271D+00 0.729D+00
 Coeff-En:   0.488D+00 0.512D+00
 Coeff:      0.295D+00 0.705D+00
 Gap=     0.325 Goal=   None    Shift=    0.000
 Gap=     0.023 Goal=   None    Shift=    0.000
 RMSDP=2.70D-02 MaxDP=9.25D+00 DE=-2.80D-02 OVMax= 9.62D-01

 Cycle   3  Pass 1  IDiag  1:
 RMSU=  8.61D-03    CP:  6.31D-01  1.10D+00
 E= -3529.94329793659     Delta-E=        0.467458005382 Rises=F Damp=F
 DIIS: error= 3.95D-02 at cycle   3 NSaved=   3.
 NSaved= 3 IEnMin= 2 EnMin= -3530.41075594198     IErMin= 2 ErrMin= 1.11D-02
 ErrMax= 3.95D-02  0.00D+00 EMaxC= 1.00D-01 BMatC= 6.62D+00 BMatP= 1.42D+00
 IDIUse=2 WtCom= 0.00D+00 WtEn= 1.00D+00
 EnCoef did     4 forward-backward iterations
 Coeff-En:   0.114D+00 0.543D+00 0.343D+00
 Coeff:      0.114D+00 0.543D+00 0.343D+00
 Gap=    -0.041 Goal=   None    Shift=    0.000
 Gap=     0.218 Goal=   None    Shift=    0.000
 RMSDP=7.12D-03 MaxDP=9.23D-01 DE= 4.67D-01 OVMax= 6.41D-01

 Cycle   4  Pass 1  IDiag  1:
 RMSU=  4.61D-03    CP:  6.55D-01  1.58D+00  4.84D-01
 E= -3527.22409291676     Delta-E=        2.719205019829 Rises=F Damp=F
 DIIS: error= 8.42D-02 at cycle   4 NSaved=   4.
 NSaved= 4 IEnMin= 2 EnMin= -3530.41075594198     IErMin= 2 ErrMin= 1.11D-02
 ErrMax= 8.42D-02  0.00D+00 EMaxC= 1.00D-01 BMatC= 2.61D+01 BMatP= 1.42D+00
 IDIUse=2 WtCom= 0.00D+00 WtEn= 1.00D+00
 EnCoef did     5 forward-backward iterations
 Coeff-En:   0.224D+00 0.000D+00 0.473D+00 0.303D+00
 Coeff:      0.224D+00 0.000D+00 0.473D+00 0.303D+00
 Gap=     0.131 Goal=   None    Shift=    0.000
 Gap=    -0.025 Goal=   None    Shift=    0.000
 RMSDP=4.39D-03 MaxDP=9.24D-01 DE= 2.72D+00 OVMax= 7.44D-01

 Cycle   5  Pass 1  IDiag  1:
 RMSU=  2.63D-03    CP:  6.70D-01  1.03D+00  6.12D-01  6.59D-01
 E= -3531.35343070326     Delta-E=       -4.129337786499 Rises=F Damp=F
 DIIS: error= 3.58D-03 at cycle   5 NSaved=   5.
 NSaved= 5 IEnMin= 5 EnMin= -3531.35343070326     IErMin= 5 ErrMin= 3.58D-03
 ErrMax= 3.58D-03  0.00D+00 EMaxC= 1.00D-01 BMatC= 2.88D-01 BMatP= 1.42D+00
 IDIUse=3 WtCom= 9.64D-01 WtEn= 3.58D-02
 Coeff-Com: -0.569D-01 0.379D+00 0.208D+00 0.123D-02 0.469D+00
 Coeff-En:   0.000D+00 0.000D+00 0.000D+00 0.000D+00 0.100D+01
 Coeff:     -0.548D-01 0.365D+00 0.200D+00 0.119D-02 0.488D+00
 Gap=     0.083 Goal=   None    Shift=    0.000
 Gap=     0.196 Goal=   None    Shift=    0.000
 RMSDP=2.30D-03 MaxDP=2.39D-01 DE=-4.13D+00 OVMax= 1.09D-01

 Cycle   6  Pass 1  IDiag  1:
 RMSU=  1.94D-03    CP:  6.67D-01  1.05D+00  6.52D-01  6.32D-01  5.64D-01
 E= -3531.34643386167     Delta-E=        0.006996841594 Rises=F Damp=F
 DIIS: error= 5.63D-03 at cycle   6 NSaved=   6.
 NSaved= 6 IEnMin= 5 EnMin= -3531.35343070326     IErMin= 5 ErrMin= 3.58D-03
 ErrMax= 5.63D-03  0.00D+00 EMaxC= 1.00D-01 BMatC= 3.47D-01 BMatP= 2.88D-01
 IDIUse=3 WtCom= 9.64D-01 WtEn= 3.58D-02
 Coeff-Com: -0.684D-01 0.143D+00 0.825D-01-0.157D-01 0.455D+00 0.404D+00
 Coeff-En:   0.000D+00 0.000D+00 0.000D+00 0.000D+00 0.521D+00 0.479D+00
 Coeff:     -0.659D-01 0.138D+00 0.796D-01-0.152D-01 0.457D+00 0.406D+00
 Gap=     0.124 Goal=   None    Shift=    0.000
 Gap=     0.132 Goal=   None    Shift=    0.000
 RMSDP=1.13D-03 MaxDP=1.89D-01 DE= 7.00D-03 OVMax= 9.15D-02

 Cycle   7  Pass 1  IDiag  1:
 RMSU=  8.81D-04    CP:  6.71D-01  1.03D+00  6.32D-01  6.11D-01  6.81D-01
                    CP:  7.61D-01
 E= -3531.42273479087     Delta-E=       -0.076300929204 Rises=F Damp=F
 DIIS: error= 1.39D-03 at cycle   7 NSaved=   7.
 NSaved= 7 IEnMin= 7 EnMin= -3531.42273479087     IErMin= 7 ErrMin= 1.39D-03
 ErrMax= 1.39D-03  0.00D+00 EMaxC= 1.00D-01 BMatC= 2.10D-02 BMatP= 2.88D-01
 IDIUse=3 WtCom= 9.86D-01 WtEn= 1.39D-02
 Coeff-Com: -0.305D-01 0.474D-01 0.146D-01-0.239D-02 0.184D+00 0.191D+00
 Coeff-Com:  0.596D+00
 Coeff-En:   0.000D+00 0.000D+00 0.000D+00 0.000D+00 0.000D+00 0.000D+00
 Coeff-En:   0.100D+01
 Coeff:     -0.300D-01 0.468D-01 0.144D-01-0.236D-02 0.181D+00 0.189D+00
 Coeff:      0.601D+00
 Gap=     0.148 Goal=   None    Shift=    0.000
 Gap=     0.136 Goal=   None    Shift=    0.000
 RMSDP=5.58D-04 MaxDP=1.63D-01 DE=-7.63D-02 OVMax= 2.46D-02

 Cycle   8  Pass 1  IDiag  1:
 RMSU=  4.48D-04    CP:  6.69D-01  1.02D+00  6.24D-01  6.29D-01  7.08D-01
                    CP:  6.55D-01  9.67D-01
 E= -3531.42564403853     Delta-E=       -0.002909247660 Rises=F Damp=F
 DIIS: error= 9.57D-04 at cycle   8 NSaved=   8.
 NSaved= 8 IEnMin= 8 EnMin= -3531.42564403853     IErMin= 8 ErrMin= 9.57D-04
 ErrMax= 9.57D-04  0.00D+00 EMaxC= 1.00D-01 BMatC= 9.50D-03 BMatP= 2.10D-02
 IDIUse=3 WtCom= 9.90D-01 WtEn= 9.57D-03
 Coeff-Com: -0.107D-01 0.171D-01-0.115D-01 0.404D-02 0.348D-03 0.225D-01
 Coeff-Com:  0.362D+00 0.616D+00
 Coeff-En:   0.000D+00 0.000D+00 0.000D+00 0.000D+00 0.000D+00 0.000D+00
 Coeff-En:   0.120D+00 0.880D+00
 Coeff:     -0.106D-01 0.169D-01-0.114D-01 0.400D-02 0.344D-03 0.223D-01
 Coeff:      0.360D+00 0.619D+00
 Gap=     0.146 Goal=   None    Shift=    0.000
 Gap=     0.134 Goal=   None    Shift=    0.000
 RMSDP=2.82D-04 MaxDP=7.79D-02 DE=-2.91D-03 OVMax= 1.02D-02

 Cycle   9  Pass 1  IDiag  1:
 RMSU=  1.91D-04    CP:  6.70D-01  1.02D+00  6.23D-01  6.37D-01  7.01D-01
                    CP:  7.19D-01  1.09D+00  8.97D-01
 E= -3531.42714805170     Delta-E=       -0.001504013167 Rises=F Damp=F
 DIIS: error= 5.19D-04 at cycle   9 NSaved=   9.
 NSaved= 9 IEnMin= 9 EnMin= -3531.42714805170     IErMin= 9 ErrMin= 5.19D-04
 ErrMax= 5.19D-04  0.00D+00 EMaxC= 1.00D-01 BMatC= 2.40D-03 BMatP= 9.50D-03
 IDIUse=3 WtCom= 9.95D-01 WtEn= 5.19D-03
 Coeff-Com: -0.694D-02 0.131D-01-0.703D-02 0.280D-02-0.209D-01-0.397D-02
 Coeff-Com:  0.530D-01 0.305D+00 0.664D+00
 Coeff-En:   0.000D+00 0.000D+00 0.000D+00 0.000D+00 0.000D+00 0.000D+00
 Coeff-En:   0.000D+00 0.000D+00 0.100D+01
 Coeff:     -0.691D-02 0.130D-01-0.699D-02 0.278D-02-0.208D-01-0.395D-02
 Coeff:      0.528D-01 0.304D+00 0.666D+00
 Gap=     0.150 Goal=   None    Shift=    0.000
 Gap=     0.134 Goal=   None    Shift=    0.000
 RMSDP=1.47D-04 MaxDP=1.47D-02 DE=-1.50D-03 OVMax= 7.94D-03

 Cycle  10  Pass 1  IDiag  1:
 RMSU=  1.24D-04    CP:  6.70D-01  1.03D+00  6.23D-01  6.38D-01  6.95D-01
                    CP:  7.21D-01  1.13D+00  9.25D-01  6.99D-01
 E= -3531.42742482512     Delta-E=       -0.000276773420 Rises=F Damp=F
 DIIS: error= 3.48D-04 at cycle  10 NSaved=  10.
 NSaved=10 IEnMin=10 EnMin= -3531.42742482512     IErMin=10 ErrMin= 3.48D-04
 ErrMax= 3.48D-04  0.00D+00 EMaxC= 1.00D-01 BMatC= 1.17D-03 BMatP= 2.40D-03
 IDIUse=3 WtCom= 9.97D-01 WtEn= 3.48D-03
 Coeff-Com: -0.620D-02 0.104D-01 0.137D-02 0.377D-03 0.240D-02 0.624D-02
 Coeff-Com: -0.116D+00-0.971D-01 0.459D+00 0.739D+00
 Coeff-En:   0.000D+00 0.000D+00 0.000D+00 0.000D+00 0.000D+00 0.000D+00
 Coeff-En:   0.000D+00 0.000D+00 0.182D+00 0.818D+00
 Coeff:     -0.618D-02 0.103D-01 0.137D-02 0.376D-03 0.240D-02 0.622D-02
 Coeff:     -0.116D+00-0.968D-01 0.458D+00 0.740D+00
 Gap=     0.149 Goal=   None    Shift=    0.000
 Gap=     0.132 Goal=   None    Shift=    0.000
 RMSDP=1.15D-04 MaxDP=1.61D-02 DE=-2.77D-04 OVMax= 7.66D-03

 Cycle  11  Pass 1  IDiag  1:
 RMSU=  6.65D-05    CP:  6.70D-01  1.03D+00  6.19D-01  6.38D-01  6.97D-01
                    CP:  7.25D-01  1.14D+00  9.66D-01  9.27D-01  6.84D-01
 E= -3531.42765824920     Delta-E=       -0.000233424083 Rises=F Damp=F
 DIIS: error= 9.21D-05 at cycle  11 NSaved=  11.
 NSaved=11 IEnMin=11 EnMin= -3531.42765824920     IErMin=11 ErrMin= 9.21D-05
 ErrMax= 9.21D-05  0.00D+00 EMaxC= 1.00D-01 BMatC= 1.44D-04 BMatP= 1.17D-03
 IDIUse=1 WtCom= 1.00D+00 WtEn= 0.00D+00
 Coeff-Com: -0.312D-02 0.390D-02 0.153D-02-0.345D-04 0.733D-02 0.415D-02
 Coeff-Com: -0.770D-01-0.109D+00 0.166D+00 0.465D+00 0.541D+00
 Coeff:     -0.312D-02 0.390D-02 0.153D-02-0.345D-04 0.733D-02 0.415D-02
 Coeff:     -0.770D-01-0.109D+00 0.166D+00 0.465D+00 0.541D+00
 Gap=     0.149 Goal=   None    Shift=    0.000
 Gap=     0.132 Goal=   None    Shift=    0.000
 RMSDP=3.99D-05 MaxDP=3.76D-03 DE=-2.33D-04 OVMax= 3.49D-03

 Cycle  12  Pass 1  IDiag  1:
 RMSU=  3.21D-05    CP:  6.70D-01  1.03D+00  6.19D-01  6.39D-01  6.97D-01
                    CP:  7.25D-01  1.14D+00  9.93D-01  9.26D-01  7.87D-01
                    CP:  7.82D-01
 E= -3531.42769248891     Delta-E=       -0.000034239707 Rises=F Damp=F
 DIIS: error= 5.04D-05 at cycle  12 NSaved=  12.
 NSaved=12 IEnMin=12 EnMin= -3531.42769248891     IErMin=12 ErrMin= 5.04D-05
 ErrMax= 5.04D-05  0.00D+00 EMaxC= 1.00D-01 BMatC= 2.51D-05 BMatP= 1.44D-04
 IDIUse=1 WtCom= 1.00D+00 WtEn= 0.00D+00
 Coeff-Com: -0.622D-03 0.302D-03 0.410D-03-0.232D-04 0.343D-02-0.119D-03
 Coeff-Com: -0.183D-01-0.317D-01 0.244D-01 0.138D+00 0.302D+00 0.582D+00
 Coeff:     -0.622D-03 0.302D-03 0.410D-03-0.232D-04 0.343D-02-0.119D-03
 Coeff:     -0.183D-01-0.317D-01 0.244D-01 0.138D+00 0.302D+00 0.582D+00
 Gap=     0.149 Goal=   None    Shift=    0.000
 Gap=     0.132 Goal=   None    Shift=    0.000
 RMSDP=1.72D-05 MaxDP=2.52D-03 DE=-3.42D-05 OVMax= 1.80D-03

 Cycle  13  Pass 1  IDiag  1:
 RMSU=  1.27D-05    CP:  6.70D-01  1.03D+00  6.19D-01  6.38D-01  6.98D-01
                    CP:  7.23D-01  1.14D+00  9.87D-01  9.24D-01  8.02D-01
                    CP:  8.87D-01  8.80D-01
 E= -3531.42769815455     Delta-E=       -0.000005665637 Rises=F Damp=F
 DIIS: error= 2.20D-05 at cycle  13 NSaved=  13.
 NSaved=13 IEnMin=13 EnMin= -3531.42769815455     IErMin=13 ErrMin= 2.20D-05
 ErrMax= 2.20D-05  0.00D+00 EMaxC= 1.00D-01 BMatC= 5.83D-06 BMatP= 2.51D-05
 IDIUse=1 WtCom= 1.00D+00 WtEn= 0.00D+00
 Coeff-Com:  0.771D-04-0.163D-03 0.725D-04-0.293D-04 0.309D-03-0.106D-02
 Coeff-Com: -0.216D-03 0.219D-03 0.559D-03 0.261D-01 0.942D-01 0.306D+00
 Coeff-Com:  0.574D+00
 Coeff:      0.771D-04-0.163D-03 0.725D-04-0.293D-04 0.309D-03-0.106D-02
 Coeff:     -0.216D-03 0.219D-03 0.559D-03 0.261D-01 0.942D-01 0.306D+00
 Coeff:      0.574D+00
 Gap=     0.149 Goal=   None    Shift=    0.000
 Gap=     0.132 Goal=   None    Shift=    0.000
 RMSDP=7.13D-06 MaxDP=1.42D-03 DE=-5.67D-06 OVMax= 7.05D-04

 Cycle  14  Pass 1  IDiag  1:
 RMSU=  6.52D-06    CP:  6.70D-01  1.03D+00  6.19D-01  6.38D-01  6.98D-01
                    CP:  7.23D-01  1.14D+00  9.87D-01  9.22D-01  8.05D-01
                    CP:  8.92D-01  9.30D-01  9.43D-01
 E= -3531.42769984071     Delta-E=       -0.000001686162 Rises=F Damp=F
 DIIS: error= 7.70D-06 at cycle  14 NSaved=  14.
 NSaved=14 IEnMin=14 EnMin= -3531.42769984071     IErMin=14 ErrMin= 7.70D-06
 ErrMax= 7.70D-06  0.00D+00 EMaxC= 1.00D-01 BMatC= 1.01D-06 BMatP= 5.83D-06
 IDIUse=1 WtCom= 1.00D+00 WtEn= 0.00D+00
 Coeff-Com:  0.270D-03-0.254D-03-0.928D-04-0.801D-06-0.845D-03-0.403D-03
 Coeff-Com:  0.364D-02 0.749D-02-0.572D-03-0.158D-01-0.369D-01-0.346D-01
 Coeff-Com:  0.237D+00 0.841D+00
 Coeff:      0.270D-03-0.254D-03-0.928D-04-0.801D-06-0.845D-03-0.403D-03
 Coeff:      0.364D-02 0.749D-02-0.572D-03-0.158D-01-0.369D-01-0.346D-01
 Coeff:      0.237D+00 0.841D+00
 Gap=     0.149 Goal=   None    Shift=    0.000
 Gap=     0.132 Goal=   None    Shift=    0.000
 RMSDP=5.85D-06 MaxDP=1.08D-03 DE=-1.69D-06 OVMax= 6.71D-04

 Cycle  15  Pass 1  IDiag  1:
 RMSU=  4.49D-06    CP:  6.70D-01  1.03D+00  6.19D-01  6.38D-01  6.97D-01
                    CP:  7.23D-01  1.14D+00  9.87D-01  9.24D-01  8.06D-01
                    CP:  9.11D-01  9.93D-01  1.07D+00  1.30D+00
 E= -3531.42770049791     Delta-E=       -0.000000657199 Rises=F Damp=F
 DIIS: error= 4.99D-06 at cycle  15 NSaved=  15.
 NSaved=15 IEnMin=15 EnMin= -3531.42770049791     IErMin=15 ErrMin= 4.99D-06
 ErrMax= 4.99D-06  0.00D+00 EMaxC= 1.00D-01 BMatC= 2.68D-07 BMatP= 1.01D-06
 IDIUse=1 WtCom= 1.00D+00 WtEn= 0.00D+00
 Coeff-Com:  0.648D-04 0.396D-04 0.825D-05-0.680D-05-0.423D-03 0.360D-03
 Coeff-Com:  0.440D-03 0.709D-03 0.120D-02-0.118D-01-0.482D-01-0.126D+00
 Coeff-Com: -0.120D+00 0.410D+00 0.893D+00
 Coeff:      0.648D-04 0.396D-04 0.825D-05-0.680D-05-0.423D-03 0.360D-03
 Coeff:      0.440D-03 0.709D-03 0.120D-02-0.118D-01-0.482D-01-0.126D+00
 Coeff:     -0.120D+00 0.410D+00 0.893D+00
 Gap=     0.149 Goal=   None    Shift=    0.000
 Gap=     0.132 Goal=   None    Shift=    0.000
 RMSDP=5.22D-06 MaxDP=9.72D-04 DE=-6.57D-07 OVMax= 5.74D-04

 Cycle  16  Pass 1  IDiag  1:
 RMSU=  2.55D-06    CP:  6.70D-01  1.03D+00  6.19D-01  6.38D-01  6.97D-01
                    CP:  7.23D-01  1.14D+00  9.87D-01  9.28D-01  8.16D-01
                    CP:  9.29D-01  1.02D+00  1.20D+00  1.74D+00  1.45D+00
 E= -3531.42770081610     Delta-E=       -0.000000318190 Rises=F Damp=F
 DIIS: error= 2.39D-06 at cycle  16 NSaved=  16.
 NSaved=16 IEnMin=16 EnMin= -3531.42770081610     IErMin=16 ErrMin= 2.39D-06
 ErrMax= 2.39D-06  0.00D+00 EMaxC= 1.00D-01 BMatC= 8.21D-08 BMatP= 2.68D-07
 IDIUse=1 WtCom= 1.00D+00 WtEn= 0.00D+00
 Coeff-Com: -0.168D-04 0.252D-04 0.149D-04 0.474D-06-0.386D-04 0.185D-03
 Coeff-Com: -0.344D-03-0.128D-02-0.555D-03-0.407D-02-0.160D-01-0.529D-01
 Coeff-Com: -0.136D+00-0.308D-01 0.466D+00 0.776D+00
 Coeff:     -0.168D-04 0.252D-04 0.149D-04 0.474D-06-0.386D-04 0.185D-03
 Coeff:     -0.344D-03-0.128D-02-0.555D-03-0.407D-02-0.160D-01-0.529D-01
 Coeff:     -0.136D+00-0.308D-01 0.466D+00 0.776D+00
 Gap=     0.149 Goal=   None    Shift=    0.000
 Gap=     0.132 Goal=   None    Shift=    0.000
 RMSDP=3.00D-06 MaxDP=5.10D-04 DE=-3.18D-07 OVMax= 3.58D-04

 Cycle  17  Pass 1  IDiag  1:
 RMSU=  1.10D-06    CP:  6.70D-01  1.03D+00  6.19D-01  6.38D-01  6.97D-01
                    CP:  7.23D-01  1.14D+00  9.87D-01  9.30D-01  8.20D-01
                    CP:  9.36D-01  1.06D+00  1.26D+00  1.98D+00  1.80D+00
                    CP:  1.21D+00
 E= -3531.42770090210     Delta-E=       -0.000000086000 Rises=F Damp=F
 DIIS: error= 1.06D-06 at cycle  17 NSaved=  17.
 NSaved=17 IEnMin=17 EnMin= -3531.42770090210     IErMin=17 ErrMin= 1.06D-06
 ErrMax= 1.06D-06  0.00D+00 EMaxC= 1.00D-01 BMatC= 2.35D-08 BMatP= 8.21D-08
 IDIUse=1 WtCom= 1.00D+00 WtEn= 0.00D+00
 Coeff-Com: -0.206D-04 0.160D-04 0.119D-04 0.152D-05 0.302D-04-0.272D-05
 Coeff-Com: -0.152D-03-0.595D-03-0.115D-02-0.123D-02-0.323D-03-0.491D-02
 Coeff-Com: -0.435D-01-0.778D-01 0.641D-01 0.389D+00 0.676D+00
 Coeff:     -0.206D-04 0.160D-04 0.119D-04 0.152D-05 0.302D-04-0.272D-05
 Coeff:     -0.152D-03-0.595D-03-0.115D-02-0.123D-02-0.323D-03-0.491D-02
 Coeff:     -0.435D-01-0.778D-01 0.641D-01 0.389D+00 0.676D+00
 Gap=     0.149 Goal=   None    Shift=    0.000
 Gap=     0.132 Goal=   None    Shift=    0.000
 RMSDP=1.12D-06 MaxDP=1.81D-04 DE=-8.60D-08 OVMax= 1.44D-04

 Cycle  18  Pass 1  IDiag  1:
 RMSU=  4.69D-07    CP:  6.70D-01  1.03D+00  6.19D-01  6.38D-01  6.97D-01
                    CP:  7.23D-01  1.14D+00  9.87D-01  9.30D-01  8.20D-01
                    CP:  9.41D-01  1.06D+00  1.28D+00  2.06D+00  1.94D+00
                    CP:  1.31D+00  1.06D+00
 E= -3531.42770091596     Delta-E=       -0.000000013863 Rises=F Damp=F
 DIIS: error= 8.00D-07 at cycle  18 NSaved=  18.
 NSaved=18 IEnMin=18 EnMin= -3531.42770091596     IErMin=18 ErrMin= 8.00D-07
 ErrMax= 8.00D-07  0.00D+00 EMaxC= 1.00D-01 BMatC= 7.88D-09 BMatP= 2.35D-08
 IDIUse=1 WtCom= 1.00D+00 WtEn= 0.00D+00
 Coeff-Com: -0.327D-05 0.128D-06-0.595D-06 0.568D-06 0.278D-04-0.409D-04
 Coeff-Com:  0.127D-03 0.136D-03-0.102D-02-0.640D-03 0.333D-02 0.110D-01
 Coeff-Com:  0.171D-01-0.246D-01-0.103D+00-0.120D-01 0.340D+00 0.770D+00
 Coeff:     -0.327D-05 0.128D-06-0.595D-06 0.568D-06 0.278D-04-0.409D-04
 Coeff:      0.127D-03 0.136D-03-0.102D-02-0.640D-03 0.333D-02 0.110D-01
 Coeff:      0.171D-01-0.246D-01-0.103D+00-0.120D-01 0.340D+00 0.770D+00
 Gap=     0.149 Goal=   None    Shift=    0.000
 Gap=     0.132 Goal=   None    Shift=    0.000
 RMSDP=6.33D-07 MaxDP=1.29D-04 DE=-1.39D-08 OVMax= 8.21D-05

 Cycle  19  Pass 1  IDiag  1:
 RMSU=  2.71D-07    CP:  6.70D-01  1.03D+00  6.19D-01  6.38D-01  6.97D-01
                    CP:  7.23D-01  1.14D+00  9.87D-01  9.31D-01  8.21D-01
                    CP:  9.43D-01  1.07D+00  1.29D+00  2.09D+00  1.99D+00
                    CP:  1.42D+00  1.20D+00  1.14D+00
 E= -3531.42770092041     Delta-E=       -0.000000004445 Rises=F Damp=F
 DIIS: error= 3.02D-07 at cycle  19 NSaved=  19.
 NSaved=19 IEnMin=19 EnMin= -3531.42770092041     IErMin=19 ErrMin= 3.02D-07
 ErrMax= 3.02D-07  0.00D+00 EMaxC= 1.00D-01 BMatC= 1.55D-09 BMatP= 7.88D-09
 IDIUse=1 WtCom= 1.00D+00 WtEn= 0.00D+00
 Coeff-Com:  0.224D-05 0.960D-06-0.183D-05-0.504D-06 0.935D-05-0.156D-04
 Coeff-Com:  0.110D-03 0.210D-03-0.369D-03-0.131D-03 0.183D-02 0.722D-02
 Coeff-Com:  0.208D-01 0.677D-02-0.744D-01-0.992D-01 0.145D-01 0.426D+00
 Coeff-Com:  0.696D+00
 Coeff:      0.224D-05 0.960D-06-0.183D-05-0.504D-06 0.935D-05-0.156D-04
 Coeff:      0.110D-03 0.210D-03-0.369D-03-0.131D-03 0.183D-02 0.722D-02
 Coeff:      0.208D-01 0.677D-02-0.744D-01-0.992D-01 0.145D-01 0.426D+00
 Coeff:      0.696D+00
 Gap=     0.149 Goal=   None    Shift=    0.000
 Gap=     0.132 Goal=   None    Shift=    0.000
 RMSDP=2.83D-07 MaxDP=4.18D-05 DE=-4.44D-09 OVMax= 3.33D-05

 Cycle  20  Pass 1  IDiag  1:
 RMSU=  1.35D-07    CP:  6.70D-01  1.03D+00  6.19D-01  6.38D-01  6.97D-01
                    CP:  7.23D-01  1.14D+00  9.87D-01  9.31D-01  8.22D-01
                    CP:  9.45D-01  1.07D+00  1.29D+00  2.10D+00  2.01D+00
                    CP:  1.44D+00  1.29D+00  1.31D+00  1.20D+00
 E= -3531.42770092141     Delta-E=       -0.000000001007 Rises=F Damp=F
 DIIS: error= 1.27D-07 at cycle  20 NSaved=  20.
 NSaved=20 IEnMin=20 EnMin= -3531.42770092141     IErMin=20 ErrMin= 1.27D-07
 ErrMax= 1.27D-07  0.00D+00 EMaxC= 1.00D-01 BMatC= 2.82D-10 BMatP= 1.55D-09
 IDIUse=1 WtCom= 1.00D+00 WtEn= 0.00D+00
 Coeff-Com:  0.225D-05-0.132D-05-0.161D-05-0.116D-06-0.211D-05 0.757D-06
 Coeff-Com:  0.312D-04 0.893D-04 0.677D-04 0.108D-03 0.102D-03 0.856D-03
 Coeff-Com:  0.580D-02 0.835D-02-0.138D-01-0.445D-01-0.673D-01 0.405D-01
 Coeff-Com:  0.344D+00 0.725D+00
 Coeff:      0.225D-05-0.132D-05-0.161D-05-0.116D-06-0.211D-05 0.757D-06
 Coeff:      0.312D-04 0.893D-04 0.677D-04 0.108D-03 0.102D-03 0.856D-03
 Coeff:      0.580D-02 0.835D-02-0.138D-01-0.445D-01-0.673D-01 0.405D-01
 Coeff:      0.344D+00 0.725D+00
 Gap=     0.149 Goal=   None    Shift=    0.000
 Gap=     0.132 Goal=   None    Shift=    0.000
 RMSDP=1.23D-07 MaxDP=2.01D-05 DE=-1.01D-09 OVMax= 1.40D-05

 Cycle  21  Pass 1  IDiag  1:
 Restarting incremental Fock formation.
 E= -3531.42770092149     Delta-E=       -0.000000000077 Rises=F Damp=F
 DIIS: error= 5.22D-08 at cycle  21 NSaved=  20.
 NSaved=20 IEnMin=20 EnMin= -3531.42770092149     IErMin=20 ErrMin= 5.22D-08
 ErrMax= 5.22D-08  0.00D+00 EMaxC= 1.00D-01 BMatC= 5.13D-11 BMatP= 2.82D-10
 IDIUse=1 WtCom= 1.00D+00 WtEn= 0.00D+00
 Coeff-Com:  0.167D-06-0.152D-06-0.802D-07-0.338D-05 0.309D-05-0.141D-04
 Coeff-Com: -0.324D-05 0.127D-03 0.123D-03-0.300D-03-0.103D-02-0.185D-02
 Coeff-Com:  0.211D-02 0.887D-02 0.252D-03-0.325D-01-0.687D-01 0.132D-01
 Coeff-Com:  0.330D+00 0.750D+00
 Coeff:      0.167D-06-0.152D-06-0.802D-07-0.338D-05 0.309D-05-0.141D-04
 Coeff:     -0.324D-05 0.127D-03 0.123D-03-0.300D-03-0.103D-02-0.185D-02
 Coeff:      0.211D-02 0.887D-02 0.252D-03-0.325D-01-0.687D-01 0.132D-01
 Coeff:      0.330D+00 0.750D+00
 Gap=     0.149 Goal=   None    Shift=    0.000
 Gap=     0.132 Goal=   None    Shift=    0.000
[...]
    14   Atom       -0.024109     -0.018898      0.043008
    15   Atom        0.089412      0.041918     -0.131330
    16   Atom       -0.125163     -0.082879      0.208042
    17   Atom       -0.000662      0.005407     -0.004745
    18   Atom       -0.128965      0.035463      0.093503
    19   Atom        0.000933      0.102166     -0.103099
    20   Atom        0.011861     -0.014232      0.002371
    21   Atom        0.002503     -0.003488      0.000986
    22   Atom        0.002555     -0.001739     -0.000816
    23   Atom        0.003579     -0.001749     -0.001831
    24   Atom        0.007087     -0.003615     -0.003473
    25   Atom        0.007604     -0.023050      0.015446
    26   Atom        0.009802     -0.005788     -0.004014
    27   Atom        0.000593     -0.004434      0.003841
    28   Atom        0.003715     -0.003412     -0.000303
    29   Atom       -0.004150     -0.001061      0.005210
    30   Atom       -0.000468     -0.000720      0.001188
    31   Atom        0.006029     -0.001113     -0.004916
    32   Atom        0.002258      0.001412     -0.003670
    33   Atom       -0.001576      0.006162     -0.004586
    34   Atom       -0.001204      0.004371     -0.003167
    35   Atom       -0.004962      0.010951     -0.005989
    36   Atom       -0.016880      0.037512     -0.020632
    37   Atom       -0.006779      0.009618     -0.002839
    38   Atom        0.010625     -0.002468     -0.008157
    39   Atom        0.004566     -0.003307     -0.001259
    40   Atom        0.003651      0.000977     -0.004628
    41   Atom        0.000003      0.005171     -0.005174
    42   Atom        0.004285     -0.000558     -0.003727
    43   Atom        0.001797      0.000719     -0.002515
    44   Atom       -0.000219      0.003344     -0.003125
    45   Atom       -0.003220      0.009066     -0.005846
    46   Atom        0.000563      0.006026     -0.006589
 --------------------------------------------------------
                        XY            XZ            YZ
 --------------------------------------------------------
     1   Atom       -0.002066     -0.000165      0.000200
     2   Atom       -0.005678      0.009896      0.000192
     3   Atom       -0.005571      0.011535     -0.001707
     4   Atom       -0.001847      0.005765     -0.000887
     5   Atom       -0.000744      0.002742     -0.000196
     6   Atom       -0.000943      0.001689     -0.000145
     7   Atom       -0.007669     -0.025229     -0.002749
     8   Atom        0.000564     -0.021652     -0.004860
     9   Atom       -0.002581     -0.008341      0.002700
    10   Atom       -0.005866     -0.006928      0.005510
    11   Atom       -0.015914     -0.009904      0.014185
    12   Atom       -0.021619     -0.009128      0.023916
    13   Atom       -0.005933     -0.001852      0.006901
    14   Atom       -0.181559      0.136423     -0.043087
    15   Atom       -0.100387     -0.023089     -0.004828
    16   Atom       -0.033277      0.071807     -0.156340
    17   Atom       -0.007552      0.001065     -0.001110
    18   Atom        0.079611      0.067862      0.195588
    19   Atom        0.229162     -0.065227     -0.098282
    20   Atom       -0.010851      0.023896     -0.007062
    21   Atom       -0.001230      0.005431     -0.000924
    22   Atom       -0.000455      0.001903     -0.000177
    23   Atom       -0.000479      0.000413     -0.000031
    24   Atom       -0.001410     -0.002095      0.000291
    25   Atom        0.000246     -0.032344     -0.004213
    26   Atom        0.005618     -0.008792     -0.002670
    27   Atom       -0.001121     -0.006558      0.001024
    28   Atom       -0.001692     -0.005201      0.001074
    29   Atom       -0.005688     -0.007025      0.009482
    30   Atom       -0.003125     -0.003802      0.003503
    31   Atom       -0.005857     -0.003188      0.002358
    32   Atom       -0.006049      0.001512     -0.001194
    33   Atom       -0.008336      0.002891     -0.005203
    34   Atom       -0.004177      0.000499     -0.001213
    35   Atom       -0.002343     -0.000593      0.002111
    36   Atom       -0.008258     -0.002702      0.009501
    37   Atom       -0.003280     -0.001603      0.009844
    38   Atom        0.013646     -0.007674     -0.004484
    39   Atom        0.003347     -0.002849     -0.000542
    40   Atom        0.007400     -0.002053     -0.001585
    41   Atom        0.008084     -0.000509     -0.000582
    42   Atom        0.005101     -0.000653     -0.000346
    43   Atom        0.004836     -0.002375     -0.002118
    44   Atom        0.004482      0.000039      0.000100
    45   Atom        0.007529     -0.001059     -0.002389
    46   Atom        0.010754      0.001771      0.002677
 --------------------------------------------------------


 ---------------------------------------------------------------------------------
              Anisotropic Spin Dipole Couplings in Principal Axis System
 ---------------------------------------------------------------------------------

       Atom             a.u.   MegaHertz   Gauss  10(-4) cm-1        Axes

              Baa    -0.0080    -1.071    -0.382    -0.357  0.1021  0.9936 -0.0490
     1 C(13)  Bbb    -0.0043    -0.574    -0.205    -0.191  0.0161  0.0476  0.9987
              Bcc     0.0123     1.645     0.587     0.549  0.9946 -0.1027 -0.0112
 
              Baa    -0.0151    -2.023    -0.722    -0.675 -0.2916 -0.4008  0.8685
     2 C(13)  Bbb    -0.0106    -1.424    -0.508    -0.475  0.0278  0.9040  0.4266
              Bcc     0.0257     3.448     1.230     1.150  0.9561 -0.1485  0.2525
 
              Baa    -0.0118    -1.580    -0.564    -0.527  0.3076  0.9212 -0.2382
     3 C(13)  Bbb    -0.0089    -1.193    -0.426    -0.398 -0.3566  0.3437  0.8688
              Bcc     0.0207     2.774     0.990     0.925  0.8822 -0.1823  0.4342
 
              Baa    -0.0049    -0.656    -0.234    -0.219 -0.5237 -0.1527  0.8381
     4 C(13)  Bbb    -0.0037    -0.502    -0.179    -0.168  0.0635  0.9741  0.2172
              Bcc     0.0086     1.158     0.413     0.386  0.8495 -0.1670  0.5004
 
              Baa    -0.0043    -0.574    -0.205    -0.191  0.0824  0.9966 -0.0088
     5 C(13)  Bbb    -0.0019    -0.253    -0.090    -0.084 -0.3655  0.0384  0.9300
              Bcc     0.0062     0.827     0.295     0.276  0.9272 -0.0734  0.3674
 
              Baa    -0.0037    -0.491    -0.175    -0.164 -0.1993 -0.0205  0.9797
     6 C(13)  Bbb    -0.0016    -0.209    -0.075    -0.070  0.1352  0.9896  0.0482
              Bcc     0.0052     0.700     0.250     0.234  0.9706 -0.1420  0.1945
 
              Baa    -0.0403    -5.407    -1.929    -1.803  0.1775  0.8704  0.4592
     7 C(13)  Bbb    -0.0295    -3.953    -1.411    -1.319  0.1926 -0.4883  0.8512
              Bcc     0.0698     9.360     3.340     3.122  0.9651 -0.0626 -0.2543
 
              Baa    -0.0181    -2.433    -0.868    -0.811  0.3778  0.7741  0.5081
     8 C(13)  Bbb    -0.0115    -1.550    -0.553    -0.517 -0.5619  0.6278 -0.5386
              Bcc     0.0297     3.982     1.421     1.328  0.7359  0.0820 -0.6721
 
              Baa    -0.0063    -0.846    -0.302    -0.282  0.6818 -0.0903  0.7259
     9 C(13)  Bbb    -0.0050    -0.669    -0.239    -0.223  0.2326  0.9676 -0.0981
              Bcc     0.0113     1.516     0.541     0.506  0.6935 -0.2357 -0.6808
 
              Baa    -0.0067    -0.905    -0.323    -0.302  0.7984  0.2958  0.5245
    10 C(13)  Bbb    -0.0055    -0.741    -0.265    -0.247  0.0972  0.7963 -0.5970
              Bcc     0.0123     1.646     0.587     0.549 -0.5943  0.5276  0.6070
 
              Baa    -0.0157    -2.107    -0.752    -0.703  0.3260 -0.2925  0.8990
    11 C(13)  Bbb    -0.0134    -1.796    -0.641    -0.599  0.7972  0.5962 -0.0952
              Bcc     0.0291     3.903     1.393     1.302 -0.5081  0.7477  0.4276
 
              Baa    -0.0245    -3.283    -1.172    -1.095 -0.5581 -0.5348  0.6344
    12 C(13)  Bbb    -0.0224    -3.007    -1.073    -1.003  0.7482  0.0063  0.6635
              Bcc     0.0469     6.290     2.244     2.098 -0.3588  0.8450  0.3966
 
              Baa    -0.0103    -1.383    -0.494    -0.461  0.1392 -0.2256  0.9642
    13 C(13)  Bbb    -0.0085    -1.147    -0.409    -0.383  0.9625  0.2596 -0.0782
              Bcc     0.0189     2.531     0.903     0.844 -0.2327  0.9390  0.2533
 
              Baa    -0.2230    16.139     5.759     5.383  0.7454  0.6029 -0.2846
    14 O(17)  Bbb    -0.0208     1.507     0.538     0.503 -0.1800  0.5930  0.7848
              Bcc     0.2439   -17.646    -6.297    -5.886  0.6419 -0.5338  0.5505
 
              Baa    -0.1354    -2.345    -0.837    -0.782  0.1509  0.1122  0.9822
    15 Fe(57) Bbb    -0.0342    -0.591    -0.211    -0.197  0.5995  0.7796 -0.1812
              Bcc     0.1696     2.936     1.048     0.979  0.7860 -0.6162 -0.0504
 
              Baa    -0.1513    -7.916    -2.825    -2.641  0.1586  0.9166  0.3671
    16 Cl(35) Bbb    -0.1399    -7.322    -2.613    -2.442  0.9695 -0.0743 -0.2335
              Bcc     0.2912    15.239     5.438     5.083  0.1867 -0.3930  0.9004
 
              Baa    -0.0058    -0.783    -0.280    -0.261  0.8126  0.5198 -0.2636
    17 C(13)  Bbb    -0.0048    -0.647    -0.231    -0.216  0.1662  0.2268  0.9596
              Bcc     0.0107     1.431     0.510     0.477 -0.5586  0.8236 -0.0979
 
              Baa    -0.1627    -8.518    -3.039    -2.841  0.8601 -0.4890  0.1454
    18 Cl(35) Bbb    -0.1251    -6.550    -2.337    -2.185 -0.4496 -0.5919  0.6690
              Bcc     0.2879    15.067     5.376     5.026  0.2410  0.6408  0.7289
 
              Baa    -0.1853    -9.698    -3.460    -3.235  0.7324 -0.6515 -0.1978
    19 Cl(35) Bbb    -0.1337    -6.995    -2.496    -2.333  0.3240  0.0781  0.9428
              Bcc     0.3189    16.693     5.957     5.568  0.5988  0.7546 -0.2683
 
              Baa    -0.0188   -10.041    -3.583    -3.349  0.5628  0.7276 -0.3922
    20 H(1)   Bbb    -0.0160    -8.556    -3.053    -2.854 -0.3431  0.6373  0.6900
              Bcc     0.0349    18.597     6.636     6.203  0.7520 -0.2538  0.6084
 
              Baa    -0.0038    -2.045    -0.730    -0.682  0.5671  0.6418 -0.5162
    21 H(1)   Bbb    -0.0036    -1.927    -0.687    -0.643 -0.3448  0.7542  0.5589
              Bcc     0.0074     3.971     1.417     1.325  0.7480 -0.1390  0.6490
 
              Baa    -0.0018    -0.955    -0.341    -0.319  0.1680  0.9742 -0.1508
    22 H(1)   Bbb    -0.0017    -0.890    -0.317    -0.297 -0.3836  0.2055  0.9003
              Bcc     0.0035     1.845     0.658     0.615  0.9081 -0.0934  0.4082
 
              Baa    -0.0019    -0.994    -0.355    -0.331 -0.0818 -0.0728  0.9940
    23 H(1)   Bbb    -0.0018    -0.956    -0.341    -0.319  0.0826  0.9934  0.0795
              Bcc     0.0037     1.949     0.696     0.650  0.9932 -0.0886  0.0753
 
              Baa    -0.0039    -2.069    -0.738    -0.690  0.1507 -0.2490  0.9567
    24 H(1)   Bbb    -0.0038    -2.024    -0.722    -0.675  0.1675  0.9602  0.2235
              Bcc     0.0077     4.093     1.460     1.365  0.9743 -0.1265 -0.1864
 
              Baa    -0.0250   -13.315    -4.751    -4.442  0.3895  0.8304  0.3984
    25 H(1)   Bbb    -0.0193   -10.305    -3.677    -3.437  0.6415 -0.5550  0.5296
              Bcc     0.0443    23.620     8.428     7.879 -0.6609 -0.0493  0.7488
 
              Baa    -0.0083    -1.113    -0.397    -0.371  0.4535 -0.0702  0.8885
    26 C(13)  Bbb    -0.0076    -1.016    -0.363    -0.339 -0.2159  0.9586  0.1859
              Bcc     0.0159     2.129     0.760     0.710  0.8647  0.2761 -0.4196
 
              Baa    -0.0048    -2.572    -0.918    -0.858  0.5724  0.7437  0.3454
    27 H(1)   Bbb    -0.0043    -2.304    -0.822    -0.768 -0.5433  0.6594 -0.5196
              Bcc     0.0091     4.876     1.740     1.626 -0.6142  0.1097  0.7815
 
              Baa    -0.0039    -2.085    -0.744    -0.695  0.5678  0.4609  0.6820
    28 H(1)   Bbb    -0.0037    -1.994    -0.712    -0.665 -0.1345  0.8694 -0.4755
              Bcc     0.0076     4.079     1.455     1.360  0.8121 -0.1783 -0.5556
 
              Baa    -0.0085    -4.544    -1.621    -1.516  0.7317  0.6754 -0.0921
    29 H(1)   Bbb    -0.0076    -4.040    -1.442    -1.348  0.5465 -0.5004  0.6715
              Bcc     0.0161     8.584     3.063     2.863 -0.4075  0.5417  0.7352
 
              Baa    -0.0037    -1.995    -0.712    -0.665  0.7716  0.6165  0.1571
    30 H(1)   Bbb    -0.0033    -1.779    -0.635    -0.593  0.3258 -0.5950  0.7347
              Bcc     0.0071     3.774     1.347     1.259 -0.5464  0.5157  0.6599
 
              Baa    -0.0061    -3.238    -1.155    -1.080  0.0722 -0.3577  0.9311
    31 H(1)   Bbb    -0.0043    -2.276    -0.812    -0.759  0.5376  0.8002  0.2657
              Bcc     0.0103     5.514     1.967     1.839  0.8401 -0.4814 -0.2501
 
              Baa    -0.0043    -2.296    -0.819    -0.766  0.6637  0.6128 -0.4289
    32 H(1)   Bbb    -0.0039    -2.084    -0.744    -0.695  0.1903  0.4162  0.8891
              Bcc     0.0082     4.380     1.563     1.461  0.7234 -0.6718  0.1596
 
              Baa    -0.0071    -3.792    -1.353    -1.265  0.6340  0.5929  0.4965
    33 H(1)   Bbb    -0.0063    -3.379    -1.206    -1.127 -0.5846 -0.0529  0.8096
              Bcc     0.0134     7.172     2.559     2.392 -0.5063  0.8035 -0.3131
 
              Baa    -0.0035    -1.883    -0.672    -0.628  0.6922  0.4524  0.5623
    34 H(1)   Bbb    -0.0032    -1.733    -0.618    -0.578 -0.5509 -0.1720  0.8166
              Bcc     0.0068     3.616     1.290     1.206 -0.4661  0.8751 -0.1302
 
              Baa    -0.0063    -3.380    -1.206    -1.128  0.2778 -0.0793  0.9574
    35 H(1)   Bbb    -0.0052    -2.786    -0.994    -0.929  0.9498  0.1717 -0.2614
              Bcc     0.0116     6.167     2.200     2.057 -0.1437  0.9819  0.1230
 
              Baa    -0.0226   -12.038    -4.296    -4.016  0.2917 -0.1102  0.9502
    36 H(1)   Bbb    -0.0178    -9.471    -3.379    -3.159  0.9449  0.1873 -0.2683
              Bcc     0.0403    21.509     7.675     7.175 -0.1484  0.9761  0.1587
 
              Baa    -0.0083    -4.425    -1.579    -1.476 -0.1849 -0.4991  0.8466
    37 H(1)   Bbb    -0.0073    -3.916    -1.397    -1.306  0.9695  0.0481  0.2402
              Bcc     0.0156     8.340     2.976     2.782 -0.1606  0.8652  0.4750
 
              Baa    -0.0112     0.813     0.290     0.271 -0.5771  0.6370 -0.5111
    38 O(17)  Bbb    -0.0106     0.768     0.274     0.256 -0.0791  0.5793  0.8113
              Bcc     0.0218    -1.581    -0.564    -0.527  0.8128  0.5086 -0.2839
 
              Baa    -0.0046     0.335     0.119     0.112 -0.3855  0.9048 -0.1808
    39 O(17)  Bbb    -0.0022     0.158     0.057     0.053  0.2465  0.2898  0.9248
              Bcc     0.0068    -0.493    -0.176    -0.164  0.8892  0.3120 -0.3348
 
              Baa    -0.0053    -0.706    -0.252    -0.235  0.6256 -0.6229  0.4697
    40 C(13)  Bbb    -0.0050    -0.674    -0.241    -0.225 -0.1897  0.4626  0.8660
              Bcc     0.0103     1.380     0.492     0.460  0.7568  0.6309 -0.1712
 
              Baa    -0.0059    -0.793    -0.283    -0.264  0.8064 -0.5834  0.0963
    41 C(13)  Bbb    -0.0052    -0.698    -0.249    -0.233 -0.0501  0.0949  0.9942
              Bcc     0.0111     1.491     0.532     0.497  0.5892  0.8066 -0.0472
 
              Baa    -0.0038    -2.047    -0.730    -0.683  0.4283 -0.5948  0.6802
    42 H(1)   Bbb    -0.0037    -1.986    -0.709    -0.662 -0.3238  0.6018  0.7301
              Bcc     0.0076     4.032     1.439     1.345  0.8436  0.5330 -0.0652
 
              Baa    -0.0036    -1.925    -0.687    -0.642 -0.6867  0.7207 -0.0954
    43 H(1)   Bbb    -0.0036    -1.900    -0.678    -0.634  0.1646  0.2819  0.9452
              Bcc     0.0072     3.825     1.365     1.276  0.7081  0.6334 -0.3122
 
              Baa    -0.0033    -1.742    -0.621    -0.581  0.8144 -0.5549  0.1697
    44 H(1)   Bbb    -0.0031    -1.666    -0.594    -0.556 -0.1466  0.0863  0.9854
              Bcc     0.0064     3.408     1.216     1.137  0.5615  0.8274  0.0111
 
              Baa    -0.0068    -3.629    -1.295    -1.211  0.8913 -0.4396 -0.1110
    45 H(1)   Bbb    -0.0062    -3.308    -1.180    -1.104  0.1597  0.0752  0.9843
              Bcc     0.0130     6.937     2.475     2.314  0.4244  0.8950 -0.1373
 
              Baa    -0.0079    -4.201    -1.499    -1.401  0.7306 -0.6202  0.2856
    46 H(1)   Bbb    -0.0070    -3.731    -1.331    -1.245 -0.3148  0.0653  0.9469
              Bcc     0.0149     7.932     2.830     2.646  0.6060  0.7817  0.1475
 

 ---------------------------------------------------------------------------------

 No NMR shielding tensors so no spin-rotation constants.
 Leave Link  601 at Sun Jun 20 10:22:00 2021, MaxMem=  2147483648 cpu:              89.7 elap:               5.8
 (Enter /SFS/product/gaussian/g16.a03/x86_64/avx/g16/l9999.exe)
 1\1\GINC-KTCHPCPX044\SP\UB3LYP\Jul-CC-pVDZ\C17H22Cl3Fe1O3(6)\KWANEU\20
 -Jun-2021\0\\#p ub3lyp jul-cc-pvdz pop=cm5 scrf=(pcm,solvent=water) gu
 ess=read geom=allcheck\\title\\0,6\C,0,-3.0990471747,0.1601740678,0.36
 65437734\C,0,-1.74270502,0.3785882166,0.6745086492\C,0,-1.348046246,0.
 3985738544,2.0232760928\C,0,-2.2880455736,0.2156185785,3.0395768151\C,
 0,-3.6339977488,0.0100664059,2.7246137436\C,0,-4.0352377115,-0.0220270
 316,1.3832936953\C,0,-0.6919593703,0.5363493202,-0.3914664495\C,0,-0.8
 144040909,-0.2712639984,-1.7305217843\C,0,-1.4704255751,0.5112637116,-
 2.8701817017\C,0,-0.9992163097,1.9553884082,-2.7090342075\C,0,-1.31494
 82976,2.3331180776,-1.2822593407\C,0,-0.6194979338,3.2172197096,-0.490
 5469214\C,0,0.7738277367,3.6436791428,-0.7784079734\O,0,0.5126428585,0
 .7102911477,0.0324863901\Fe,0,2.2928505821,-0.056575479,0.2263406582\C
 l,0,2.8805456626,-0.9286359328,-1.7218957027\C,0,-1.195848263,3.687319
 1667,0.8060375431\Cl,0,2.1673497292,-1.5287726516,1.8641377309\Cl,0,3.
 5820175756,1.654951089,0.7861529931\H,0,-0.2960994192,0.5271672088,2.2
 692270525\H,0,-1.9627467829,0.223732329,4.0805873221\H,0,-4.3680570496
 ,-0.1345727663,3.5187688809\H,0,-5.0811629158,-0.1959585894,1.12778802
 41\H,0,-3.4333006783,0.116729858,-0.6685759657\H,0,0.2334174684,-0.462
 1716058,-1.9967751525\C,0,-1.4547368173,-1.6448501037,-1.515322457\H,0
 ,-1.1869529872,0.0801784441,-3.8387010617\H,0,-2.5647319141,0.44680698
 58,-2.8016594948\H,0,0.0749871675,2.0331791551,-2.9202168489\H,0,-1.52
 31669123,2.6275546181,-3.4055168411\H,0,-2.3667910955,2.2068737145,-1.
 0233297166\H,0,-2.1894387874,3.2731871286,1.0063653847\H,0,-0.51867876
 97,3.4242050836,1.6354828188\H,0,-1.2632291603,4.7869707389,0.80169186
 91\H,0,0.9748029087,4.6440869728,-0.3724768286\H,0,1.4596208221,2.9503
 815688,-0.2549245943\H,0,1.0304366437,3.6214532465,-1.8422607091\O,0,-
 0.6879830841,-2.4084778617,-0.7285648337\O,0,-2.5000545934,-2.00187545
 41,-2.0179635015\C,0,-1.1662785553,-3.7588676157,-0.4580232078\C,0,-0.
 0940445789,-4.4761280415,0.3348741338\H,0,-2.1130737374,-3.6769942015,
 0.0935726294\H,0,-1.3739091377,-4.2447700282,-1.4203401514\H,0,-0.4379
 008645,-5.4950045787,0.5650806577\H,0,0.8397410915,-4.5439511507,-0.23
 8937801\H,0,0.1185739091,-3.9538498585,1.2764533889\\Version=ES64L-G16
 RevA.03\State=6-A\HF=-3531.4526933\S2=8.761559\S2-1=0.\S2A=8.750042\RM
 SD=2.754e-09\Dipole=-4.2817482,2.4046191,-0.2969544\Quadrupole=-16.882
 6206,15.5759141,1.3067065,-4.315578,-8.7249885,-4.9554277\PG=C01 [X(C1
 7H22Cl3Fe1O3)]\\@


 THE WHOLE OF SCIENCE IS NOTHING MORE THAN A REFINEMENT OF EVERYDAY THINKING.
                                                              -- A. EINSTEIN
 Job cpu time:       0 days  5 hours 55 minutes 28.4 seconds.
 Elapsed time:       0 days  0 hours 22 minutes 18.5 seconds.
 File lengths (MBytes):  RWF=    667 Int=      0 D2E=      0 Chk=     57 Scr=      1
 Normal termination of Gaussian 16 at Sun Jun 20 10:22:00 2021.
