 Entering Gaussian System, Link 0=g16
 Input=prenyl-first_betaine_grid-CC_150_CO_150-b3lyp_d3bj-juldz-gas.gjf
 Output=prenyl-first_betaine_grid-CC_150_CO_150-b3lyp_d3bj-juldz-gas.out
 Initial command:
 /SFS/product/gaussian/g16.a03/x86_64/avx/g16/l1.exe "/scratch/kwaneu.2874193.bmbhpcps002/Gau-61275.inp" -scrdir="/scratch/kwaneu.2874193.bmbhpcps002/"
 Entering Link 1 = /SFS/product/gaussian/g16.a03/x86_64/avx/g16/l1.exe PID=     61284.
  
 Copyright (c) 1988,1990,1992,1993,1995,1998,2003,2009,2016,
            Gaussian, Inc.  All Rights Reserved.
  
 This is part of the Gaussian(R) 16 program.  It is based on
 the Gaussian(R) 09 system (copyright 2009, Gaussian, Inc.),
 the Gaussian(R) 03 system (copyright 2003, Gaussian, Inc.),
 the Gaussian(R) 98 system (copyright 1998, Gaussian, Inc.),
 the Gaussian(R) 94 system (copyright 1995, Gaussian, Inc.),
 the Gaussian 92(TM) system (copyright 1992, Gaussian, Inc.),
 the Gaussian 90(TM) system (copyright 1990, Gaussian, Inc.),
 the Gaussian 88(TM) system (copyright 1988, Gaussian, Inc.),
 the Gaussian 86(TM) system (copyright 1986, Carnegie Mellon
 University), and the Gaussian 82(TM) system (copyright 1983,
 Carnegie Mellon University). Gaussian is a federally registered
 trademark of Gaussian, Inc.
  
 This software contains proprietary and confidential information,
 including trade secrets, belonging to Gaussian, Inc.
  
 This software is provided under written license and may be
 used, copied, transmitted, or stored only in accord with that
 written license.
  
 The following legend is applicable only to US Government
 contracts under FAR:
  
                    RESTRICTED RIGHTS LEGEND
  
 Use, reproduction and disclosure by the US Government is
 subject to restrictions as set forth in subparagraphs (a)
 and (c) of the Commercial Computer Software - Restricted
 Rights clause in FAR 52.227-19.
  
 Gaussian, Inc.
 340 Quinnipiac St., Bldg. 40, Wallingford CT 06492
  
  
 ---------------------------------------------------------------
 Warning -- This program may not be used in any manner that
 competes with the business of Gaussian, Inc. or will provide
 assistance to any competitor of Gaussian, Inc.  The licensee
 of this program is prohibited from giving any competitor of
 Gaussian, Inc. access to this program.  By using this program,
 the user acknowledges that Gaussian, Inc. is engaged in the
 business of creating and licensing software in the field of
 computational chemistry and represents and warrants to the
 licensee that it is not a competitor of Gaussian, Inc. and that
 it will not use this program in any manner prohibited above.
 ---------------------------------------------------------------
  

 Cite this work as:
 Gaussian 16, Revision A.03,
 M. J. Frisch, G. W. Trucks, H. B. Schlegel, G. E. Scuseria, 
 M. A. Robb, J. R. Cheeseman, G. Scalmani, V. Barone, 
 G. A. Petersson, H. Nakatsuji, X. Li, M. Caricato, A. V. Marenich, 
 J. Bloino, B. G. Janesko, R. Gomperts, B. Mennucci, H. P. Hratchian, 
 J. V. Ortiz, A. F. Izmaylov, J. L. Sonnenberg, D. Williams-Young, 
 F. Ding, F. Lipparini, F. Egidi, J. Goings, B. Peng, A. Petrone, 
 T. Henderson, D. Ranasinghe, V. G. Zakrzewski, J. Gao, N. Rega, 
 G. Zheng, W. Liang, M. Hada, M. Ehara, K. Toyota, R. Fukuda, 
 J. Hasegawa, M. Ishida, T. Nakajima, Y. Honda, O. Kitao, H. Nakai, 
 T. Vreven, K. Throssell, J. A. Montgomery, Jr., J. E. Peralta, 
 F. Ogliaro, M. J. Bearpark, J. J. Heyd, E. N. Brothers, K. N. Kudin, 
 V. N. Staroverov, T. A. Keith, R. Kobayashi, J. Normand, 
 K. Raghavachari, A. P. Rendell, J. C. Burant, S. S. Iyengar, 
 J. Tomasi, M. Cossi, J. M. Millam, M. Klene, C. Adamo, R. Cammi, 
 J. W. Ochterski, R. L. Martin, K. Morokuma, O. Farkas, 
 J. B. Foresman, and D. J. Fox, Gaussian, Inc., Wallingford CT, 2016.
 
 ******************************************
 Gaussian 16:  ES64L-G16RevA.03 25-Dec-2016
                19-Jun-2021 
 ******************************************
 %chk=checkpoint.chk
 %nprocshared=16
 Will use up to   16 processors via shared memory.
 %mem=16GB
 -----------------------------------------------------------
 #p opt=modredundant freq=noraman ub3lyp jul-cc-pvdz pop=cm5
 -----------------------------------------------------------
 1/18=120,19=15,26=3,38=1/1,3;
 2/9=110,12=2,17=6,18=5,40=1/2;
 3/5=16,7=50,11=2,25=1,30=1,71=1,74=-5,116=2/1,2,3;
 4//1;
 5/5=2,38=5/2;
 6/7=2,8=2,9=2,10=2,28=1,79=1/1;
 7//1,2,3,16;
 1/18=20,19=15,26=3/3(2);
 2/9=110/2;
 99//99;
 2/9=110/2;
 3/5=16,7=50,11=2,25=1,30=1,71=1,74=-5,116=2/1,2,3;
 4/5=5,16=3,69=1/1;
 5/5=2,38=5/2;
 7//1,2,3,16;
 1/18=20,19=15,26=3/3(-5);
 2/9=110/2;
 6/7=2,8=2,9=2,10=2,19=2,28=1,79=1/1;
 99/9=1/99;
 Leave Link    1 at Sat Jun 19 21:33:30 2021, MaxMem=  2147483648 cpu:               1.4 elap:               0.1
 (Enter /SFS/product/gaussian/g16.a03/x86_64/avx/g16/l101.exe)
 -----
 title
 -----
 Symbolic Z-matrix:
 Charge =  0 Multiplicity = 6
 6                     1.65383  -2.20215   1.68533 
 6                     1.15325  -1.07702   1.0182 
 6                     1.23479   0.17223   1.6522 
 6                     1.77168   0.28498   2.93224 
 6                     2.26199  -0.84372   3.59127 
 6                     2.21006  -2.08507   2.96028 
 6                     0.59323  -1.19031  -0.38179 
 6                     1.51238  -0.62995  -1.52814 
 6                     2.102    -1.916    -2.14043 
 6                     0.94973  -2.93892  -2.10548 
 6                     0.10539  -2.51708  -0.88348 
 6                    -1.31779  -1.91394  -1.05997 
 6                    -1.83771  -1.7109   -2.47333 
 8                    -0.81716  -0.61801  -0.49436 
 26                   -1.94952   0.87184   0.29049 
 17                   -3.80023   0.87017  -0.88907 
 6                    -2.36159  -2.53164  -0.14092 
 17                   -0.90265   2.77673   0.03645 
 17                   -2.36289   0.37493   2.37754 
 1                     0.88179   1.06617   1.14827 
 1                     1.80653   1.25843   3.41246 
 1                     2.68418  -0.75428   4.58815 
 1                     2.59745  -2.96927   3.45853 
 1                     1.63145  -3.17952   1.21378 
 1                     0.86206  -0.11971  -2.24429 
 6                     2.61364   0.33815  -1.11071 
 1                     2.49806  -1.74387  -3.14598 
 1                     2.93868  -2.24075  -1.51355 
 1                     0.36411  -2.90086  -3.02839 
 1                     1.31671  -3.96495  -2.00762 
 1                     0.08259  -3.29727  -0.12139 
 1                    -2.57509  -3.55126  -0.4832 
 1                    -2.00162  -2.58071   0.89075 
 1                    -3.2983   -1.9667   -0.1608 
 1                    -2.0724   -2.68439  -2.91889 
 1                    -2.75265  -1.11378  -2.45777 
 1                    -1.11023  -1.20514  -3.11355 
 8                     2.23426   1.61336  -1.29102 
 8                     3.70101  -0.00236  -0.69609 
 6                     3.20443   2.62972  -0.92341 
 6                     2.64421   3.97351  -1.34601 
 1                     3.36819   2.56994   0.15731 
 1                     4.1523    2.39713  -1.41785 
 1                     3.3482    4.76682  -1.07141 
 1                     2.49078   4.00965  -2.42931 
 1                     1.68701   4.16994  -0.8549 
 
 The following ModRedundant input section has been read:
 B       7      11 F                                                           
 B      12      14 F                                                           
 
 ITRead=  0  0  0  0  0  0  0  0  0  0  0  0  0  0  0  0  0  0  0  0
 ITRead=  0  0  0  0  0  0  0  0  0  0  0  0  0  0  0  0  0  0  0  0
 ITRead=  0  0  0  0  0  0
 MicOpt= -1 -1 -1 -1 -1 -1 -1 -1 -1 -1 -1 -1 -1 -1 -1 -1 -1 -1 -1 -1
 MicOpt= -1 -1 -1 -1 -1 -1 -1 -1 -1 -1 -1 -1 -1 -1 -1 -1 -1 -1 -1 -1
 MicOpt= -1 -1 -1 -1 -1 -1
 NAtoms=     46 NQM=       46 NQMF=       0 NMMI=      0 NMMIF=      0
                NMic=       0 NMicF=      0.
                    Isotopes and Nuclear Properties:
 (Nuclear quadrupole moments (NQMom) in fm**2, nuclear magnetic moments (NMagM)
  in nuclear magnetons)

  Atom         1           2           3           4           5           6           7           8           9          10
 IAtWgt=          12          12          12          12          12          12          12          12          12          12
 AtmWgt=  12.0000000  12.0000000  12.0000000  12.0000000  12.0000000  12.0000000  12.0000000  12.0000000  12.0000000  12.0000000
 NucSpn=           0           0           0           0           0           0           0           0           0           0
 AtZEff=  -0.0000000  -0.0000000  -0.0000000  -0.0000000  -0.0000000  -0.0000000  -0.0000000  -0.0000000  -0.0000000  -0.0000000
 NQMom=    0.0000000   0.0000000   0.0000000   0.0000000   0.0000000   0.0000000   0.0000000   0.0000000   0.0000000   0.0000000
 NMagM=    0.0000000   0.0000000   0.0000000   0.0000000   0.0000000   0.0000000   0.0000000   0.0000000   0.0000000   0.0000000
 AtZNuc=   6.0000000   6.0000000   6.0000000   6.0000000   6.0000000   6.0000000   6.0000000   6.0000000   6.0000000   6.0000000

  Atom        11          12          13          14          15          16          17          18          19          20
 IAtWgt=          12          12          12          16          56          35          12          35          35           1
 AtmWgt=  12.0000000  12.0000000  12.0000000  15.9949146  55.9349393  34.9688527  12.0000000  34.9688527  34.9688527   1.0078250
 NucSpn=           0           0           0           0           0           3           0           3           3           1
 AtZEff=  -0.0000000  -0.0000000  -0.0000000  -0.0000000  -0.0000000  -0.0000000  -0.0000000  -0.0000000  -0.0000000  -0.0000000
 NQMom=    0.0000000   0.0000000   0.0000000   0.0000000   0.0000000  -8.1650000   0.0000000  -8.1650000  -8.1650000   0.0000000
 NMagM=    0.0000000   0.0000000   0.0000000   0.0000000   0.0000000   0.8218740   0.0000000   0.8218740   0.8218740   2.7928460
 AtZNuc=   6.0000000   6.0000000   6.0000000   8.0000000  26.0000000  17.0000000   6.0000000  17.0000000  17.0000000   1.0000000

  Atom        21          22          23          24          25          26          27          28          29          30
 IAtWgt=           1           1           1           1           1          12           1           1           1           1
 AtmWgt=   1.0078250   1.0078250   1.0078250   1.0078250   1.0078250  12.0000000   1.0078250   1.0078250   1.0078250   1.0078250
 NucSpn=           1           1           1           1           1           0           1           1           1           1
 AtZEff=  -0.0000000  -0.0000000  -0.0000000  -0.0000000  -0.0000000  -0.0000000  -0.0000000  -0.0000000  -0.0000000  -0.0000000
 NQMom=    0.0000000   0.0000000   0.0000000   0.0000000   0.0000000   0.0000000   0.0000000   0.0000000   0.0000000   0.0000000
 NMagM=    2.7928460   2.7928460   2.7928460   2.7928460   2.7928460   0.0000000   2.7928460   2.7928460   2.7928460   2.7928460
 AtZNuc=   1.0000000   1.0000000   1.0000000   1.0000000   1.0000000   6.0000000   1.0000000   1.0000000   1.0000000   1.0000000

  Atom        31          32          33          34          35          36          37          38          39          40
 IAtWgt=           1           1           1           1           1           1           1          16          16          12
 AtmWgt=   1.0078250   1.0078250   1.0078250   1.0078250   1.0078250   1.0078250   1.0078250  15.9949146  15.9949146  12.0000000
 NucSpn=           1           1           1           1           1           1           1           0           0           0
 AtZEff=  -0.0000000  -0.0000000  -0.0000000  -0.0000000  -0.0000000  -0.0000000  -0.0000000  -0.0000000  -0.0000000  -0.0000000
 NQMom=    0.0000000   0.0000000   0.0000000   0.0000000   0.0000000   0.0000000   0.0000000   0.0000000   0.0000000   0.0000000
 NMagM=    2.7928460   2.7928460   2.7928460   2.7928460   2.7928460   2.7928460   2.7928460   0.0000000   0.0000000   0.0000000
 AtZNuc=   1.0000000   1.0000000   1.0000000   1.0000000   1.0000000   1.0000000   1.0000000   8.0000000   8.0000000   6.0000000

  Atom        41          42          43          44          45          46
 IAtWgt=          12           1           1           1           1           1
 AtmWgt=  12.0000000   1.0078250   1.0078250   1.0078250   1.0078250   1.0078250
 NucSpn=           0           1           1           1           1           1
 AtZEff=  -0.0000000  -0.0000000  -0.0000000  -0.0000000  -0.0000000  -0.0000000
 NQMom=    0.0000000   0.0000000   0.0000000   0.0000000   0.0000000   0.0000000
 NMagM=    0.0000000   2.7928460   2.7928460   2.7928460   2.7928460   2.7928460
 AtZNuc=   6.0000000   1.0000000   1.0000000   1.0000000   1.0000000   1.0000000
 Leave Link  101 at Sat Jun 19 21:33:30 2021, MaxMem=  2147483648 cpu:               5.2 elap:               0.4
 (Enter /SFS/product/gaussian/g16.a03/x86_64/avx/g16/l103.exe)

 GradGradGradGradGradGradGradGradGradGradGradGradGradGradGradGradGradGrad
 Berny optimization.
 Initialization pass.
                           ----------------------------
                           !    Initial Parameters    !
                           ! (Angstroms and Degrees)  !
 --------------------------                            --------------------------
 ! Name  Definition              Value          Derivative Info.                !
 --------------------------------------------------------------------------------
 ! R1    R(1,2)                  1.4006         estimate D2E/DX2                !
 ! R2    R(1,6)                  1.3959         estimate D2E/DX2                !
 ! R3    R(1,24)                 1.0854         estimate D2E/DX2                !
 ! R4    R(2,3)                  1.4033         estimate D2E/DX2                !
 ! R5    R(2,7)                  1.5121         estimate D2E/DX2                !
 ! R6    R(3,4)                  1.3926         estimate D2E/DX2                !
 ! R7    R(3,20)                 1.0852         estimate D2E/DX2                !
 ! R8    R(4,5)                  1.396          estimate D2E/DX2                !
 ! R9    R(4,21)                 1.086          estimate D2E/DX2                !
 ! R10   R(5,6)                  1.3935         estimate D2E/DX2                !
 ! R11   R(5,22)                 1.0863         estimate D2E/DX2                !
 ! R12   R(6,23)                 1.0863         estimate D2E/DX2                !
 ! R13   R(7,8)                  1.5726         estimate D2E/DX2                !
 ! R14   R(7,11)                 1.5            Frozen                          !
 ! R15   R(7,14)                 1.5262         estimate D2E/DX2                !
 ! R16   R(8,9)                  1.5416         estimate D2E/DX2                !
 ! R17   R(8,25)                 1.0937         estimate D2E/DX2                !
 ! R18   R(8,26)                 1.5245         estimate D2E/DX2                !
 ! R19   R(9,10)                 1.5412         estimate D2E/DX2                !
 ! R20   R(9,27)                 1.0944         estimate D2E/DX2                !
 ! R21   R(9,28)                 1.0948         estimate D2E/DX2                !
 ! R22   R(10,11)                1.5441         estimate D2E/DX2                !
 ! R23   R(10,29)                1.0937         estimate D2E/DX2                !
 ! R24   R(10,30)                1.0941         estimate D2E/DX2                !
 ! R25   R(11,12)                1.5558         estimate D2E/DX2                !
 ! R26   R(11,31)                1.0909         estimate D2E/DX2                !
 ! R27   R(12,13)                1.5196         estimate D2E/DX2                !
 ! R28   R(12,14)                1.5            Frozen                          !
 ! R29   R(12,17)                1.5217         estimate D2E/DX2                !
 ! R30   R(13,35)                1.096          estimate D2E/DX2                !
 ! R31   R(13,36)                1.0927         estimate D2E/DX2                !
 ! R32   R(13,37)                1.0931         estimate D2E/DX2                !
 ! R33   R(14,15)                2.0293         estimate D2E/DX2                !
 ! R34   R(15,16)                2.1947         estimate D2E/DX2                !
 ! R35   R(15,18)                2.1884         estimate D2E/DX2                !
 ! R36   R(15,19)                2.1848         estimate D2E/DX2                !
 ! R37   R(17,32)                1.0965         estimate D2E/DX2                !
 ! R38   R(17,33)                1.0938         estimate D2E/DX2                !
 ! R39   R(17,34)                1.0941         estimate D2E/DX2                !
 ! R40   R(26,38)                1.3426         estimate D2E/DX2                !
 ! R41   R(26,39)                1.2125         estimate D2E/DX2                !
 ! R42   R(38,40)                1.4524         estimate D2E/DX2                !
 ! R43   R(40,41)                1.516          estimate D2E/DX2                !
 ! R44   R(40,42)                1.0947         estimate D2E/DX2                !
 ! R45   R(40,43)                1.0941         estimate D2E/DX2                !
 ! R46   R(41,44)                1.0956         estimate D2E/DX2                !
 ! R47   R(41,45)                1.0947         estimate D2E/DX2                !
 ! R48   R(41,46)                1.0936         estimate D2E/DX2                !
 ! A1    A(2,1,6)              120.6697         estimate D2E/DX2                !
 ! A2    A(2,1,24)             120.602          estimate D2E/DX2                !
 ! A3    A(6,1,24)             118.7208         estimate D2E/DX2                !
 ! A4    A(1,2,3)              118.6324         estimate D2E/DX2                !
 ! A5    A(1,2,7)              120.8771         estimate D2E/DX2                !
 ! A6    A(3,2,7)              120.4322         estimate D2E/DX2                !
 ! A7    A(2,3,4)              120.6466         estimate D2E/DX2                !
 ! A8    A(2,3,20)             120.3062         estimate D2E/DX2                !
 ! A9    A(4,3,20)             119.0469         estimate D2E/DX2                !
 ! A10   A(3,4,5)              120.2564         estimate D2E/DX2                !
 ! A11   A(3,4,21)             119.4311         estimate D2E/DX2                !
 ! A12   A(5,4,21)             120.3125         estimate D2E/DX2                !
 ! A13   A(4,5,6)              119.5653         estimate D2E/DX2                !
 ! A14   A(4,5,22)             120.2108         estimate D2E/DX2                !
 ! A15   A(6,5,22)             120.2236         estimate D2E/DX2                !
 ! A16   A(1,6,5)              120.208          estimate D2E/DX2                !
 ! A17   A(1,6,23)             119.5202         estimate D2E/DX2                !
 ! A18   A(5,6,23)             120.2712         estimate D2E/DX2                !
 ! A19   A(2,7,8)              115.5787         estimate D2E/DX2                !
 ! A20   A(2,7,11)             119.7611         estimate D2E/DX2                !
 ! A21   A(2,7,14)             112.4849         estimate D2E/DX2                !
 ! A22   A(8,7,11)             105.157          estimate D2E/DX2                !
 ! A23   A(8,7,14)             110.6556         estimate D2E/DX2                !
 ! A24   A(11,7,14)             90.3704         estimate D2E/DX2                !
 ! A25   A(7,8,9)              102.4634         estimate D2E/DX2                !
 ! A26   A(7,8,25)             107.219          estimate D2E/DX2                !
 ! A27   A(7,8,26)             116.6725         estimate D2E/DX2                !
 ! A28   A(9,8,25)             110.8882         estimate D2E/DX2                !
 ! A29   A(9,8,26)             111.2368         estimate D2E/DX2                !
 ! A30   A(25,8,26)            108.2139         estimate D2E/DX2                !
 ! A31   A(8,9,10)             104.9954         estimate D2E/DX2                !
 ! A32   A(8,9,27)             111.8485         estimate D2E/DX2                !
 ! A33   A(8,9,28)             108.201          estimate D2E/DX2                !
 ! A34   A(10,9,27)            113.3168         estimate D2E/DX2                !
 ! A35   A(10,9,28)            111.1937         estimate D2E/DX2                !
 ! A36   A(27,9,28)            107.2303         estimate D2E/DX2                !
 ! A37   A(9,10,11)            104.2085         estimate D2E/DX2                !
 ! A38   A(9,10,29)            110.9831         estimate D2E/DX2                !
 ! A39   A(9,10,30)            111.9431         estimate D2E/DX2                !
 ! A40   A(11,10,29)           111.44           estimate D2E/DX2                !
 ! A41   A(11,10,30)           111.6446         estimate D2E/DX2                !
 ! A42   A(29,10,30)           106.7213         estimate D2E/DX2                !
 ! A43   A(7,11,10)            109.1782         estimate D2E/DX2                !
 ! A44   A(7,11,12)             89.5727         estimate D2E/DX2                !
 ! A45   A(7,11,31)            113.9378         estimate D2E/DX2                !
 ! A46   A(10,11,12)           121.0892         estimate D2E/DX2                !
 ! A47   A(10,11,31)           111.6493         estimate D2E/DX2                !
 ! A48   A(12,11,31)           109.7184         estimate D2E/DX2                !
 ! A49   A(11,12,13)           118.0536         estimate D2E/DX2                !
 ! A50   A(11,12,14)            89.2464         estimate D2E/DX2                !
 ! A51   A(11,12,17)           113.678          estimate D2E/DX2                !
 ! A52   A(13,12,14)           110.4548         estimate D2E/DX2                !
 ! A53   A(13,12,17)           112.4131         estimate D2E/DX2                !
 ! A54   A(14,12,17)           110.603          estimate D2E/DX2                !
 ! A55   A(12,13,35)           109.4322         estimate D2E/DX2                !
 ! A56   A(12,13,36)           110.2591         estimate D2E/DX2                !
 ! A57   A(12,13,37)           112.2636         estimate D2E/DX2                !
 ! A58   A(35,13,36)           108.1714         estimate D2E/DX2                !
 ! A59   A(35,13,37)           108.3827         estimate D2E/DX2                !
 ! A60   A(36,13,37)           108.226          estimate D2E/DX2                !
 ! A61   A(7,14,12)             90.7031         estimate D2E/DX2                !
 ! A62   A(7,14,15)            139.6797         estimate D2E/DX2                !
 ! A63   A(12,14,15)           126.4342         estimate D2E/DX2                !
 ! A64   A(14,15,16)           105.1966         estimate D2E/DX2                !
 ! A65   A(14,15,18)           109.1008         estimate D2E/DX2                !
 ! A66   A(14,15,19)           107.9416         estimate D2E/DX2                !
 ! A67   A(16,15,18)           109.9788         estimate D2E/DX2                !
 ! A68   A(16,15,19)           110.7134         estimate D2E/DX2                !
 ! A69   A(18,15,19)           113.5387         estimate D2E/DX2                !
 ! A70   A(12,17,32)           108.8129         estimate D2E/DX2                !
 ! A71   A(12,17,33)           111.2306         estimate D2E/DX2                !
 ! A72   A(12,17,34)           111.5124         estimate D2E/DX2                !
 ! A73   A(32,17,33)           108.4685         estimate D2E/DX2                !
 ! A74   A(32,17,34)           107.9252         estimate D2E/DX2                !
 ! A75   A(33,17,34)           108.7887         estimate D2E/DX2                !
 ! A76   A(8,26,38)            111.2377         estimate D2E/DX2                !
 ! A77   A(8,26,39)            124.2694         estimate D2E/DX2                !
 ! A78   A(38,26,39)           124.4761         estimate D2E/DX2                !
 ! A79   A(26,38,40)           116.2262         estimate D2E/DX2                !
 ! A80   A(38,40,41)           107.632          estimate D2E/DX2                !
 ! A81   A(38,40,42)           108.1551         estimate D2E/DX2                !
 ! A82   A(38,40,43)           108.3953         estimate D2E/DX2                !
 ! A83   A(41,40,42)           112.265          estimate D2E/DX2                !
 ! A84   A(41,40,43)           112.4962         estimate D2E/DX2                !
 ! A85   A(42,40,43)           107.7545         estimate D2E/DX2                !
 ! A86   A(40,41,44)           109.5436         estimate D2E/DX2                !
 ! A87   A(40,41,45)           110.9109         estimate D2E/DX2                !
 ! A88   A(40,41,46)           110.9457         estimate D2E/DX2                !
 ! A89   A(44,41,45)           108.3106         estimate D2E/DX2                !
 ! A90   A(44,41,46)           108.6504         estimate D2E/DX2                !
 ! A91   A(45,41,46)           108.4081         estimate D2E/DX2                !
 ! D1    D(6,1,2,3)              0.6399         estimate D2E/DX2                !
 ! D2    D(6,1,2,7)            177.8767         estimate D2E/DX2                !
 ! D3    D(24,1,2,3)          -178.3463         estimate D2E/DX2                !
 ! D4    D(24,1,2,7)            -1.1095         estimate D2E/DX2                !
 ! D5    D(2,1,6,5)              0.6142         estimate D2E/DX2                !
 ! D6    D(2,1,6,23)          -179.6851         estimate D2E/DX2                !
 ! D7    D(24,1,6,5)           179.6192         estimate D2E/DX2                !
 ! D8    D(24,1,6,23)           -0.6801         estimate D2E/DX2                !
 ! D9    D(1,2,3,4)             -1.6032         estimate D2E/DX2                !
 ! D10   D(1,2,3,20)           178.2111         estimate D2E/DX2                !
 ! D11   D(7,2,3,4)           -178.8527         estimate D2E/DX2                !
 ! D12   D(7,2,3,20)             0.9617         estimate D2E/DX2                !
 ! D13   D(1,2,7,8)           -105.2023         estimate D2E/DX2                !
 ! D14   D(1,2,7,11)            22.2152         estimate D2E/DX2                !
 ! D15   D(1,2,7,14)           126.3812         estimate D2E/DX2                !
 ! D16   D(3,2,7,8)             71.9849         estimate D2E/DX2                !
 ! D17   D(3,2,7,11)          -160.5977         estimate D2E/DX2                !
 ! D18   D(3,2,7,14)           -56.4317         estimate D2E/DX2                !
 ! D19   D(2,3,4,5)              1.3182         estimate D2E/DX2                !
 ! D20   D(2,3,4,21)          -178.7501         estimate D2E/DX2                !
 ! D21   D(20,3,4,5)          -178.4984         estimate D2E/DX2                !
 ! D22   D(20,3,4,21)            1.4332         estimate D2E/DX2                !
 ! D23   D(3,4,5,6)             -0.0418         estimate D2E/DX2                !
 ! D24   D(3,4,5,22)           179.7593         estimate D2E/DX2                !
 ! D25   D(21,4,5,6)          -179.9728         estimate D2E/DX2                !
 ! D26   D(21,4,5,22)           -0.1718         estimate D2E/DX2                !
 ! D27   D(4,5,6,1)             -0.9176         estimate D2E/DX2                !
 ! D28   D(4,5,6,23)           179.3839         estimate D2E/DX2                !
 ! D29   D(22,5,6,1)           179.2813         estimate D2E/DX2                !
 ! D30   D(22,5,6,23)           -0.4171         estimate D2E/DX2                !
 ! D31   D(2,7,8,9)            102.8188         estimate D2E/DX2                !
 ! D32   D(2,7,8,25)          -140.3872         estimate D2E/DX2                !
 ! D33   D(2,7,8,26)           -18.9285         estimate D2E/DX2                !
 ! D34   D(11,7,8,9)           -31.5936         estimate D2E/DX2                !
 ! D35   D(11,7,8,25)           85.2004         estimate D2E/DX2                !
 ! D36   D(11,7,8,26)         -153.3408         estimate D2E/DX2                !
 ! D37   D(14,7,8,9)          -127.8672         estimate D2E/DX2                !
 ! D38   D(14,7,8,25)          -11.0732         estimate D2E/DX2                !
 ! D39   D(14,7,8,26)          110.3855         estimate D2E/DX2                !
 ! D40   D(2,7,11,10)         -118.213          estimate D2E/DX2                !
 ! D41   D(2,7,11,12)          118.8215         estimate D2E/DX2                !
 ! D42   D(2,7,11,31)            7.3617         estimate D2E/DX2                !
 ! D43   D(8,7,11,10)           13.8671         estimate D2E/DX2                !
 ! D44   D(8,7,11,12)         -109.0984         estimate D2E/DX2                !
 ! D45   D(8,7,11,31)          139.4418         estimate D2E/DX2                !
 ! D46   D(14,7,11,10)         125.4115         estimate D2E/DX2                !
 ! D47   D(14,7,11,12)           2.446          estimate D2E/DX2                !
 ! D48   D(14,7,11,31)        -109.0139         estimate D2E/DX2                !
 ! D49   D(2,7,14,12)         -125.2146         estimate D2E/DX2                !
 ! D50   D(2,7,14,15)           33.5934         estimate D2E/DX2                !
 ! D51   D(8,7,14,12)          103.8347         estimate D2E/DX2                !
 ! D52   D(8,7,14,15)          -97.3572         estimate D2E/DX2                !
 ! D53   D(11,7,14,12)          -2.5371         estimate D2E/DX2                !
 ! D54   D(11,7,14,15)         156.2709         estimate D2E/DX2                !
 ! D55   D(7,8,9,10)            37.7397         estimate D2E/DX2                !
 ! D56   D(7,8,9,27)           161.0299         estimate D2E/DX2                !
 ! D57   D(7,8,9,28)           -81.0799         estimate D2E/DX2                !
 ! D58   D(25,8,9,10)          -76.3926         estimate D2E/DX2                !
 ! D59   D(25,8,9,27)           46.8975         estimate D2E/DX2                !
 ! D60   D(25,8,9,28)          164.7878         estimate D2E/DX2                !
 ! D61   D(26,8,9,10)          163.1277         estimate D2E/DX2                !
 ! D62   D(26,8,9,27)          -73.5821         estimate D2E/DX2                !
 ! D63   D(26,8,9,28)           44.3081         estimate D2E/DX2                !
 ! D64   D(7,8,26,38)          -97.4905         estimate D2E/DX2                !
 ! D65   D(7,8,26,39)           83.9418         estimate D2E/DX2                !
 ! D66   D(9,8,26,38)          145.4876         estimate D2E/DX2                !
 ! D67   D(9,8,26,39)          -33.0801         estimate D2E/DX2                !
 ! D68   D(25,8,26,38)          23.4434         estimate D2E/DX2                !
 ! D69   D(25,8,26,39)        -155.1243         estimate D2E/DX2                !
 ! D70   D(8,9,10,11)          -29.5112         estimate D2E/DX2                !
 ! D71   D(8,9,10,29)           90.5517         estimate D2E/DX2                !
 ! D72   D(8,9,10,30)         -150.3224         estimate D2E/DX2                !
 ! D73   D(27,9,10,11)        -151.8543         estimate D2E/DX2                !
 ! D74   D(27,9,10,29)         -31.7915         estimate D2E/DX2                !
 ! D75   D(27,9,10,30)          87.3345         estimate D2E/DX2                !
 ! D76   D(28,9,10,11)          87.2764         estimate D2E/DX2                !
 ! D77   D(28,9,10,29)        -152.6608         estimate D2E/DX2                !
 ! D78   D(28,9,10,30)         -33.5348         estimate D2E/DX2                !
 ! D79   D(9,10,11,7)            9.4188         estimate D2E/DX2                !
 ! D80   D(9,10,11,12)         110.9852         estimate D2E/DX2                !
 ! D81   D(9,10,11,31)        -117.4684         estimate D2E/DX2                !
 ! D82   D(29,10,11,7)        -110.3357         estimate D2E/DX2                !
 ! D83   D(29,10,11,12)         -8.7694         estimate D2E/DX2                !
 ! D84   D(29,10,11,31)        122.777          estimate D2E/DX2                !
 ! D85   D(30,10,11,7)         130.4294         estimate D2E/DX2                !
 ! D86   D(30,10,11,12)       -128.0043         estimate D2E/DX2                !
 ! D87   D(30,10,11,31)          3.5421         estimate D2E/DX2                !
 ! D88   D(7,11,12,13)         110.4046         estimate D2E/DX2                !
 ! D89   D(7,11,12,14)          -2.4889         estimate D2E/DX2                !
 ! D90   D(7,11,12,17)        -114.7299         estimate D2E/DX2                !
 ! D91   D(10,11,12,13)         -1.8746         estimate D2E/DX2                !
 ! D92   D(10,11,12,14)       -114.7681         estimate D2E/DX2                !
 ! D93   D(10,11,12,17)        132.9909         estimate D2E/DX2                !
 ! D94   D(31,11,12,13)       -134.2321         estimate D2E/DX2                !
 ! D95   D(31,11,12,14)        112.8744         estimate D2E/DX2                !
 ! D96   D(31,11,12,17)          0.6334         estimate D2E/DX2                !
 ! D97   D(11,12,13,35)         71.8826         estimate D2E/DX2                !
 ! D98   D(11,12,13,36)       -169.2542         estimate D2E/DX2                !
 ! D99   D(11,12,13,37)        -48.5004         estimate D2E/DX2                !
 ! D100  D(14,12,13,35)        172.4191         estimate D2E/DX2                !
 ! D101  D(14,12,13,36)        -68.7177         estimate D2E/DX2                !
 ! D102  D(14,12,13,37)         52.0361         estimate D2E/DX2                !
 ! D103  D(17,12,13,35)        -63.5185         estimate D2E/DX2                !
 ! D104  D(17,12,13,36)         55.3446         estimate D2E/DX2                !
 ! D105  D(17,12,13,37)        176.0985         estimate D2E/DX2                !
 ! D106  D(11,12,14,7)           2.4463         estimate D2E/DX2                !
 ! D107  D(11,12,14,15)       -160.6517         estimate D2E/DX2                !
 ! D108  D(13,12,14,7)        -117.361          estimate D2E/DX2                !
 ! D109  D(13,12,14,15)         79.541          estimate D2E/DX2                !
 ! D110  D(17,12,14,7)         117.5419         estimate D2E/DX2                !
 ! D111  D(17,12,14,15)        -45.5561         estimate D2E/DX2                !
 ! D112  D(11,12,17,32)        -71.4019         estimate D2E/DX2                !
 ! D113  D(11,12,17,33)         48.0294         estimate D2E/DX2                !
 ! D114  D(11,12,17,34)        169.6659         estimate D2E/DX2                !
 ! D115  D(13,12,17,32)         66.0194         estimate D2E/DX2                !
 ! D116  D(13,12,17,33)       -174.5493         estimate D2E/DX2                !
 ! D117  D(13,12,17,34)        -52.9127         estimate D2E/DX2                !
 ! D118  D(14,12,17,32)       -170.0005         estimate D2E/DX2                !
 ! D119  D(14,12,17,33)        -50.5692         estimate D2E/DX2                !
 ! D120  D(14,12,17,34)         71.0674         estimate D2E/DX2                !
 ! D121  D(7,14,15,16)         172.276          estimate D2E/DX2                !
 ! D122  D(7,14,15,18)          54.3231         estimate D2E/DX2                !
 ! D123  D(7,14,15,19)         -69.482          estimate D2E/DX2                !
 ! D124  D(12,14,15,16)        -34.4218         estimate D2E/DX2                !
 ! D125  D(12,14,15,18)       -152.3747         estimate D2E/DX2                !
 ! D126  D(12,14,15,19)         83.8202         estimate D2E/DX2                !
 ! D127  D(8,26,38,40)         179.8539         estimate D2E/DX2                !
 ! D128  D(39,26,38,40)         -1.5819         estimate D2E/DX2                !
 ! D129  D(26,38,40,41)        173.8029         estimate D2E/DX2                !
 ! D130  D(26,38,40,42)        -64.6891         estimate D2E/DX2                !
 ! D131  D(26,38,40,43)         51.8783         estimate D2E/DX2                !
 ! D132  D(38,40,41,44)        179.3103         estimate D2E/DX2                !
 ! D133  D(38,40,41,45)        -61.184          estimate D2E/DX2                !
 ! D134  D(38,40,41,46)         59.3613         estimate D2E/DX2                !
 ! D135  D(42,40,41,44)         60.4015         estimate D2E/DX2                !
 ! D136  D(42,40,41,45)        179.9072         estimate D2E/DX2                !
 ! D137  D(42,40,41,46)        -59.5475         estimate D2E/DX2                !
 ! D138  D(43,40,41,44)        -61.3475         estimate D2E/DX2                !
 ! D139  D(43,40,41,45)         58.1582         estimate D2E/DX2                !
 ! D140  D(43,40,41,46)        178.7035         estimate D2E/DX2                !
 --------------------------------------------------------------------------------
 Trust Radius=3.00D-01 FncErr=1.00D-07 GrdErr=1.00D-06 EigMax=2.50D+02 EigMin=1.00D-04
 Number of steps in this run=    276 maximum allowed number of steps=    276.
 GradGradGradGradGradGradGradGradGradGradGradGradGradGradGradGradGradGrad

 Leave Link  103 at Sat Jun 19 21:33:30 2021, MaxMem=  2147483648 cpu:               0.3 elap:               0.1
 (Enter /SFS/product/gaussian/g16.a03/x86_64/avx/g16/l202.exe)
                          Input orientation:                          
 ---------------------------------------------------------------------
 Center     Atomic      Atomic             Coordinates (Angstroms)
 Number     Number       Type             X           Y           Z
 ---------------------------------------------------------------------
      1          6           0        1.653834   -2.202151    1.685330
      2          6           0        1.153249   -1.077016    1.018203
      3          6           0        1.234787    0.172228    1.652203
      4          6           0        1.771677    0.284983    2.932238
      5          6           0        2.261986   -0.843721    3.591270
      6          6           0        2.210060   -2.085069    2.960280
      7          6           0        0.593227   -1.190306   -0.381792
      8          6           0        1.512384   -0.629947   -1.528140
      9          6           0        2.101995   -1.915998   -2.140427
     10          6           0        0.949727   -2.938921   -2.105475
     11          6           0        0.105389   -2.517078   -0.883483
     12          6           0       -1.317793   -1.913942   -1.059966
     13          6           0       -1.837705   -1.710899   -2.473327
     14          8           0       -0.817157   -0.618007   -0.494356
     15         26           0       -1.949522    0.871843    0.290491
     16         17           0       -3.800232    0.870171   -0.889074
     17          6           0       -2.361587   -2.531635   -0.140922
     18         17           0       -0.902654    2.776729    0.036448
     19         17           0       -2.362887    0.374929    2.377536
     20          1           0        0.881785    1.066171    1.148266
     21          1           0        1.806526    1.258434    3.412462
     22          1           0        2.684180   -0.754281    4.588154
     23          1           0        2.597453   -2.969269    3.458530
     24          1           0        1.631453   -3.179518    1.213776
     25          1           0        0.862064   -0.119713   -2.244292
     26          6           0        2.613642    0.338152   -1.110708
     27          1           0        2.498059   -1.743866   -3.145979
     28          1           0        2.938680   -2.240753   -1.513546
     29          1           0        0.364105   -2.900864   -3.028391
     30          1           0        1.316711   -3.964948   -2.007617
     31          1           0        0.082587   -3.297267   -0.121392
     32          1           0       -2.575087   -3.551261   -0.483199
     33          1           0       -2.001615   -2.580709    0.890751
     34          1           0       -3.298300   -1.966704   -0.160796
     35          1           0       -2.072404   -2.684388   -2.918888
     36          1           0       -2.752652   -1.113782   -2.457765
     37          1           0       -1.110229   -1.205141   -3.113545
     38          8           0        2.234255    1.613359   -1.291024
     39          8           0        3.701009   -0.002364   -0.696093
     40          6           0        3.204427    2.629723   -0.923414
     41          6           0        2.644207    3.973506   -1.346005
     42          1           0        3.368185    2.569940    0.157312
     43          1           0        4.152304    2.397134   -1.417852
     44          1           0        3.348196    4.766821   -1.071412
     45          1           0        2.490777    4.009652   -2.429314
     46          1           0        1.687014    4.169941   -0.854901
 ---------------------------------------------------------------------
                    Distance matrix (angstroms):
                    1          2          3          4          5
     1  C    0.000000
     2  C    1.400562   0.000000
     3  C    2.411301   1.403287   0.000000
     4  C    2.784691   2.429202   1.392643   0.000000
     5  C    2.418220   2.811476   2.418113   1.395958   0.000000
     6  C    1.395920   2.429955   2.785249   2.410417   1.393481
     7  C    2.534109   1.512100   2.530856   3.814186   4.323205
     8  C    3.580255   2.610117   3.291675   4.560625   5.178413
     9  C    3.862531   3.403080   4.415516   5.539437   5.833329
    10  C    3.925404   3.642180   4.886783   6.037194   6.210056
    11  C    3.015901   2.605417   3.864920   5.018744   5.241607
    12  C    4.055895   3.335458   4.268914   5.506159   5.966086
    13  C    5.452211   4.640948   5.477807   6.799361   7.371486
    14  O    3.656001   2.526069   3.072891   4.388508   5.120977
    15  Fe   4.937529   3.735613   3.533206   4.601147   5.619173
    16  Cl   6.768571   5.653867   5.683012   6.781669   7.730549
    17  C    4.423501   3.976627   4.843561   5.870394   6.177033
    18  Cl   5.834697   4.476821   3.736675   4.663308   5.979913
    19  Cl   4.822296   4.039696   3.675657   4.172578   4.934340
    20  H    3.400945   2.164223   1.085217   2.141196   3.394247
    21  H    3.870652   3.407869   2.145982   1.086019   2.158349
    22  H    3.403576   3.897750   3.402788   2.157496   1.086290
    23  H    2.150145   3.409038   3.871522   3.398389   2.155948
    24  H    1.085408   2.165050   3.403493   3.869824   3.392049
    25  H    4.517231   3.412490   3.925153   5.271398   6.044647
    26  C    3.897717   2.944098   3.092321   4.130030   4.860976
    27  H    4.925879   4.426468   5.318818   6.448921   6.801214
    28  H    3.447481   3.309350   4.329861   5.244639   5.335612
    29  H    4.936676   4.508225   5.666563   6.903621   7.187051
    30  H    4.105967   4.185983   5.524239   6.532310   6.479440
    31  H    2.632934   2.715605   4.063324   5.001020   4.955152
    32  H    4.940282   4.719808   5.739290   6.728769   6.879633
    33  H    3.759916   3.497214   4.316569   5.159224   5.337436
    34  H    5.290298   4.690189   5.330185   6.351505   6.801167
    35  H    5.942746   5.337524   6.323973   7.604591   8.034746
    36  H    6.145478   5.228744   5.869014   7.174833   7.861956
    37  H    5.627013   4.712864   5.487130   6.861293   7.513788
    38  O    4.873776   3.706646   3.426132   4.451348   5.465785
    39  O    3.834210   3.253424   3.409872   4.119427   4.600016
    40  C    5.705865   4.660163   4.068485   4.734620   5.773680
    41  C    6.950437   5.772366   5.042364   5.715757   6.908578
    42  H    5.295913   4.352857   3.540496   3.933202   4.966772
    43  H    6.084859   5.196000   4.784073   5.389977   6.258414
    44  H    7.683558   6.582911   5.744115   6.213010   7.375543
    45  H    7.497817   6.288763   5.741264   6.567839   7.736602
    46  H    6.859842   5.596783   4.740442   5.426093   6.725759
                    6          7          8          9         10
     6  C    0.000000
     7  C    3.818926   0.000000
     8  C    4.769701   1.572567   0.000000
     9  C    5.104652   2.428128   1.541578   0.000000
    10  C    5.289553   2.481094   2.445661   1.541206   0.000000
    11  C    4.403497   1.500001   2.440590   2.434675   1.544060
    12  C    5.351393   2.153037   3.142886   3.586412   2.699133
    13  C    6.785904   3.248841   3.644850   3.959056   3.068083
    14  O    4.821911   1.526231   2.548649   3.593853   3.332300
    15  Fe   5.759620   3.342154   4.188984   5.486001   5.354271
    16  Cl   7.724932   4.879076   5.557216   6.645668   6.208939
    17  C    5.542277   3.253937   4.533039   4.929563   3.871712
    18  Cl   6.471079   4.260276   4.459348   5.982340   6.378699
    19  Cl   5.225230   4.336181   5.593014   6.752445   6.484782
    20  H    3.870145   2.741538   3.230731   4.604101   5.160640
    21  H    3.397988   4.675980   5.297363   6.403038   6.985665
    22  H    2.155403   5.409488   6.228773   6.852907   7.251596
    23  H    1.086341   4.682916   5.613972   5.718669   5.802937
    24  H    2.140766   2.753310   3.746010   3.615048   3.397067
    25  H    5.724272   2.165029   1.093677   2.185145   2.823985
    26  C    4.754768   2.636205   1.524544   2.530473   3.807543
    27  H    6.122562   3.402285   2.197675   1.094363   2.215432
    28  H    4.535443   2.808105   2.151564   1.094754   2.189464
    29  H    6.319593   3.159587   2.954042   2.186024   1.093698
    30  H    5.386281   3.296267   3.374969   2.198296   1.094068
    31  H    3.936022   2.183540   3.337343   3.172131   2.194750
    32  H    6.074940   3.952544   5.131608   5.224518   3.928238
    33  H    4.718773   3.207147   4.690916   5.144851   4.220913
    34  H    6.332231   3.974370   5.176797   5.751930   4.772077
    35  H    7.298171   3.971741   4.359543   4.315325   3.140016
    36  H    7.411283   3.938328   4.391905   4.930705   4.142807
    37  H    6.977818   3.219388   3.118085   3.430839   2.874999
    38  O    5.634939   3.373457   2.368490   3.632539   4.799645
    39  O    4.464264   3.341901   2.424096   2.881830   4.263716
    40  C    6.188789   4.658792   3.722117   4.833224   6.122968
    41  C    7.445731   5.639254   4.744046   5.967525   7.157493
    42  H    5.555807   4.704304   4.064975   5.196776   6.427806
    43  H    6.559763   5.158505   4.018029   4.830009   6.261215
    44  H    8.031083   6.599454   5.718733   6.881561   8.136363
    45  H    8.140771   5.901915   4.826515   5.945413   7.124772
    46  H    7.345361   5.491125   4.850018   6.234055   7.255580
                   11         12         13         14         15
    11  C    0.000000
    12  C    1.555753   0.000000
    13  C    2.636881   1.519580   0.000000
    14  O    2.146854   1.500000   2.480374   0.000000
    15  Fe   4.133480   3.159654   3.784409   2.029258   0.000000
    16  Cl   5.169851   3.734032   3.608780   3.356965   2.194653
    17  C    2.576350   1.521740   2.527484   2.484382   3.455369
    18  Cl   5.466884   4.834962   5.226098   3.437047   2.188392
    19  Cl   5.009025   4.259997   5.306352   3.409247   2.184846
    20  H    4.191714   4.312251   5.312596   2.901907   2.964767
    21  H    5.966867   6.310939   7.532587   5.066357   4.899393
    22  H    6.300510   7.018679   8.439613   6.173317   6.525748
    23  H    5.026722   6.071217   7.512726   5.728290   6.742818
    24  H    2.676975   3.933146   5.271302   3.933795   5.485377
    25  H    2.858622   3.061644   3.142146   2.475956   3.913224
    26  C    3.807270   4.531080   5.086239   3.614486   4.803192
    27  H    3.382546   4.352138   4.387755   4.391961   6.199374
    28  H    2.915626   4.293030   4.900590   4.216440   6.069376
    29  H    2.194278   2.770829   2.563607   3.609453   5.531832
    30  H    2.197113   3.470631   3.904864   4.247984   6.272490
    31  H    1.090870   2.180728   3.425738   2.850803   4.656242
    32  H    2.900813   2.143423   2.809141   3.419711   4.533627
    33  H    2.755253   2.171978   3.478571   2.678369   3.504731
    34  H    3.522824   2.175706   2.747103   2.843645   3.174935
    35  H    2.985573   2.149097   1.096033   3.424023   4.791867
    36  H    3.551901   2.157062   1.092666   2.801233   3.484341
    37  H    2.858685   2.182354   1.093111   2.700142   4.075014
    38  O    4.664619   5.011216   5.387893   3.863261   4.533765
    39  O    4.391741   5.382835   6.062591   4.564377   5.802248
    40  C    6.007927   6.412021   6.831275   5.187001   5.579148
    41  C    6.984784   7.102204   7.326039   5.812774   5.779341
    42  H    6.132442   6.598890   7.235132   5.301393   5.583841
    43  H    6.388470   6.973910   7.339630   5.885530   6.517456
    44  H    7.975356   8.148876   8.415450   6.832242   6.715017
    45  H    7.118839   7.174210   7.173730   6.008470   6.079428
    46  H    6.871578   6.788560   7.044659   5.415285   5.041207
                   16         17         18         19         20
    16  Cl   0.000000
    17  C    3.768516   0.000000
    18  Cl   3.589918   5.508055   0.000000
    19  Cl   3.603050   3.845874   3.658089   0.000000
    20  H    5.109839   5.012552   2.710419   3.537911   0.000000
    21  H    7.077407   6.660655   4.587194   4.385847   2.453303
    22  H    8.642133   7.140232   6.786121   5.624485   4.288998
    23  H    8.635585   6.143261   7.548370   6.079242   4.956371
    24  H    7.094023   4.266067   6.579109   5.472036   4.311864
    25  H    4.955148   4.542407   4.087222   5.657409   3.593906
    26  C    6.439716   5.824866   4.430233   6.077420   2.938078
    27  H    7.182985   5.767764   6.490645   7.656847   5.380445
    28  H    7.448540   5.482840   6.506416   7.077353   4.717182
    29  H    6.011579   3.987882   6.575179   6.884138   5.783582
    30  H    7.128297   4.366785   7.386067   7.183560   5.954907
    31  H    5.747448   2.561359   6.155407   5.070504   4.614146
    32  H    4.605950   1.096528   6.565860   4.862489   5.994357
    33  H    4.279179   1.093772   5.535313   3.328189   4.656183
    34  H    2.971563   1.094063   5.317723   3.577900   5.327765
    35  H    4.443020   2.797151   6.318712   6.123390   6.271815
    36  H    2.737569   2.744267   4.977918   5.074280   5.564601
    37  H    4.060949   3.487402   5.081420   5.849593   5.223984
    38  O    6.093351   6.294877   3.599418   6.010471   2.842310
    39  O    7.554282   6.592458   5.427125   6.808846   3.534325
    40  C    7.222358   7.631017   4.220315   6.853857   3.482990
    41  C    7.167305   8.296207   3.990448   7.203159   4.216647
    42  H    7.441125   7.677584   4.277550   6.526305   3.070097
    43  H    8.115051   8.267653   5.273678   7.806536   4.364942
    44  H    8.143534   9.313157   4.822608   7.987517   4.970409
    45  H    7.197602   8.459941   4.372123   7.737898   4.904285
    46  H    6.403087   7.862064   3.072771   6.422808   3.780802
                   21         22         23         24         25
    21  H    0.000000
    22  H    2.490693   0.000000
    23  H    4.301298   2.487920   0.000000
    24  H    4.955834   4.286774   2.452811   0.000000
    25  H    5.898319   7.099655   6.607096   4.681090   0.000000
    26  C    4.685875   5.803052   5.640677   4.329194   2.136043
    27  H    7.246045   7.799406   6.717963   4.671142   2.475357
    28  H    6.147490   6.285309   5.036736   3.166766   3.056981
    29  H    7.801598   8.246352   6.860952   4.436192   2.932162
    30  H    7.543268   7.462074   5.701793   3.330666   3.879246
    31  H    6.017849   5.951041   4.387251   2.048298   3.900146
    32  H    7.583395   7.823146   6.529251   4.551142   5.166331
    33  H    5.966572   6.242059   5.281656   3.696228   4.907714
    34  H    7.016334   7.733858   6.990319   5.259547   5.006092
    35  H    8.407017   9.094289   7.909499   5.571591   3.955217
    36  H    7.802120   8.906928   8.189567   6.080120   3.754985
    37  H    7.560782   8.597499   7.749272   5.490054   2.413233
    38  O    4.736212   6.353966   6.609891   5.441421   2.407315
    39  O    4.696690   5.433469   5.223146   4.245582   3.235784
    40  C    4.757560   6.488414   7.135724   6.386635   3.845878
    41  C    5.542232   7.587345   8.443214   7.664457   4.553833
    42  H    3.841201   5.581278   6.494221   6.098247   4.391193
    43  H    5.489194   6.939662   7.415858   6.661772   4.224121
    44  H    5.898360   7.934367   8.996170   8.444738   5.606667
    45  H    6.493362   8.483945   9.131453   8.105227   4.442814
    46  H    5.167354   7.407371   8.390644   7.635251   4.583894
                   26         27         28         29         30
    26  C    0.000000
    27  H    2.913844   0.000000
    28  H    2.630338   1.762351   0.000000
    29  H    4.385105   2.430274   3.059238   0.000000
    30  H    4.582919   2.761278   2.418210   1.755481   0.000000
    31  H    4.538861   4.170814   3.348370   2.947377   2.350894
    32  H    6.514922   6.007819   5.760267   3.942064   4.200128
    33  H    5.816028   6.102668   5.504791   4.588987   4.618219
    34  H    6.416054   6.523707   6.387876   4.744362   5.357430
    35  H    5.862106   4.671754   5.223290   2.448556   3.735820
    36  H    5.720121   5.332974   5.878169   3.637781   4.989138
    37  H    4.501147   3.648427   4.475059   2.248641   3.837923
    38  O    1.342610   3.844660   3.924272   5.185954   5.698500
    39  O    1.212528   3.237570   2.501951   4.997584   4.806979
    40  C    2.373901   4.956514   4.913290   6.563974   6.944685
    41  C    3.643089   5.995799   6.223488   7.435472   8.075830
    42  H    2.675460   5.502524   5.110676   7.007346   7.183330
    43  H    2.588672   4.782346   4.795001   6.709178   6.990315
    44  H    4.489345   6.885899   7.033440   8.457420   9.013723
    45  H    3.903041   5.797985   6.332994   7.255126   8.071586
    46  H    3.950530   6.393743   6.564867   7.514681   8.224494
                   31         32         33         34         35
    31  H    0.000000
    32  H    2.694188   0.000000
    33  H    2.425240   1.777239   0.000000
    34  H    3.633503   1.771384   1.778804   0.000000
    35  H    3.584075   2.633769   3.811707   3.102412   0.000000
    36  H    4.273737   3.141933   3.732089   2.510234   1.772618
    37  H    3.840935   3.816911   4.326794   3.753180   1.775343
    38  O    5.487437   7.103214   6.347672   6.686062   6.298244
    39  O    4.927438   7.213139   6.456459   7.289410   6.742875
    40  C    6.746728   8.473555   7.585688   7.999637   7.750267
    41  C    7.805493   9.198238   8.339333   8.485529   8.309509
    42  H    6.730301   8.555807   7.476755   8.069966   8.165230
    43  H    7.118259   9.028553   8.244955   8.725524   8.174470
    44  H    8.751929  10.228478   9.298213   9.505024   9.397691
    45  H    8.032244   9.306866   8.639287   8.624176   8.116186
    46  H    7.672771   8.827266   7.888255   7.936848   8.085487
                   36         37         38         39         40
    36  H    0.000000
    37  H    1.770861   0.000000
    38  O    5.802398   4.738259   0.000000
    39  O    6.781481   5.517133   2.261829   0.000000
    40  C    7.201031   6.174068   1.452366   2.688150   0.000000
    41  C    7.499506   6.636141   2.396117   4.164944   1.515976
    42  H    7.607436   6.708646   2.073288   2.730535   1.094696
    43  H    7.815777   6.598940   2.075885   2.546015   1.094092
    44  H    8.586257   7.727366   3.351629   4.796923   2.147035
    45  H    7.331025   6.374126   2.665282   4.534864   2.163616
    46  H    7.085022   6.466649   2.650620   4.635680   2.163217
                   41         42         43         44         45
    41  C    0.000000
    42  H    2.180391   0.000000
    43  H    2.182766   1.768006   0.000000
    44  H    1.095605   2.517230   2.526267   0.000000
    45  H    1.094717   3.087596   2.526646   1.775492   0.000000
    46  H    1.093612   2.531978   3.088270   1.778389   1.774966
                   46
    46  H    0.000000
 Stoichiometry    C17H22Cl3FeO3(6)
 Framework group  C1[X(C17H22Cl3FeO3)]
 Deg. of freedom   132
 Full point group                 C1      NOp   1
 Largest Abelian subgroup         C1      NOp   1
 Largest concise Abelian subgroup C1      NOp   1
                         Standard orientation:                         
 ---------------------------------------------------------------------
 Center     Atomic      Atomic             Coordinates (Angstroms)
 Number     Number       Type             X           Y           Z
 ---------------------------------------------------------------------
      1          6           0        1.653834   -2.202151    1.685330
      2          6           0        1.153249   -1.077016    1.018203
      3          6           0        1.234787    0.172228    1.652203
      4          6           0        1.771677    0.284983    2.932238
      5          6           0        2.261986   -0.843721    3.591270
      6          6           0        2.210060   -2.085069    2.960280
      7          6           0        0.593227   -1.190306   -0.381792
      8          6           0        1.512384   -0.629947   -1.528140
      9          6           0        2.101995   -1.915998   -2.140427
     10          6           0        0.949727   -2.938921   -2.105475
     11          6           0        0.105389   -2.517078   -0.883483
     12          6           0       -1.317793   -1.913942   -1.059966
     13          6           0       -1.837705   -1.710899   -2.473327
     14          8           0       -0.817157   -0.618007   -0.494356
     15         26           0       -1.949522    0.871843    0.290491
     16         17           0       -3.800232    0.870171   -0.889074
     17          6           0       -2.361587   -2.531635   -0.140922
     18         17           0       -0.902654    2.776729    0.036448
     19         17           0       -2.362887    0.374929    2.377536
     20          1           0        0.881785    1.066171    1.148266
     21          1           0        1.806526    1.258434    3.412462
     22          1           0        2.684180   -0.754281    4.588154
     23          1           0        2.597453   -2.969269    3.458530
     24          1           0        1.631453   -3.179518    1.213776
     25          1           0        0.862064   -0.119713   -2.244292
     26          6           0        2.613642    0.338152   -1.110708
     27          1           0        2.498059   -1.743866   -3.145979
     28          1           0        2.938680   -2.240753   -1.513546
     29          1           0        0.364105   -2.900864   -3.028391
     30          1           0        1.316711   -3.964948   -2.007617
     31          1           0        0.082587   -3.297267   -0.121392
     32          1           0       -2.575087   -3.551261   -0.483199
     33          1           0       -2.001615   -2.580709    0.890751
     34          1           0       -3.298300   -1.966704   -0.160796
     35          1           0       -2.072404   -2.684388   -2.918888
     36          1           0       -2.752652   -1.113782   -2.457765
     37          1           0       -1.110229   -1.205141   -3.113545
     38          8           0        2.234255    1.613359   -1.291024
     39          8           0        3.701009   -0.002364   -0.696093
     40          6           0        3.204427    2.629723   -0.923414
     41          6           0        2.644207    3.973506   -1.346005
     42          1           0        3.368185    2.569940    0.157312
     43          1           0        4.152304    2.397134   -1.417852
     44          1           0        3.348196    4.766821   -1.071412
     45          1           0        2.490777    4.009652   -2.429314
     46          1           0        1.687014    4.169941   -0.854901
 ---------------------------------------------------------------------
 Rotational constants (GHZ):           0.2048110           0.1569767           0.1453458
 Leave Link  202 at Sat Jun 19 21:33:30 2021, MaxMem=  2147483648 cpu:               0.2 elap:               0.0
 (Enter /SFS/product/gaussian/g16.a03/x86_64/avx/g16/l301.exe)
 Standard basis: Jul-CC-pVDZ (5D, 7F)
 Ernie: Thresh=  0.10000D-02 Tol=  0.10000D-05 Strict=F.
 Ernie:  134 primitive shells out of 958 were deleted.
 There are   766 symmetry adapted cartesian basis functions of A   symmetry.
 There are   710 symmetry adapted basis functions of A   symmetry.
   710 basis functions,  1571 primitive gaussians,   766 cartesian basis functions
   115 alpha electrons      110 beta electrons
       nuclear repulsion energy      3368.2904741359 Hartrees.
 IExCor=  402 DFT=T Ex+Corr=B3LYP ExCW=0 ScaHFX=  0.200000
 ScaDFX=  0.800000  0.720000  1.000000  0.810000 ScalE2=  1.000000  1.000000
 IRadAn=      5 IRanWt=     -1 IRanGd=            0 ICorTp=0 IEmpDi=  4
 NAtoms=   46 NActive=   46 NUniq=   46 SFac= 1.00D+00 NAtFMM=   60 NAOKFM=F Big=F
 Integral buffers will be    131072 words long.
 Raffenetti 2 integral format.
 Two-electron integral symmetry is turned on.
 Leave Link  301 at Sat Jun 19 21:33:31 2021, MaxMem=  2147483648 cpu:               0.9 elap:               0.1
 (Enter /SFS/product/gaussian/g16.a03/x86_64/avx/g16/l302.exe)
 NPDir=0 NMtPBC=     1 NCelOv=     1 NCel=       1 NClECP=     1 NCelD=      1
         NCelK=      1 NCelE2=     1 NClLst=     1 CellRange=     0.0.
 One-electron integrals computed using PRISM.
 One-electron integral symmetry used in STVInt
 NBasis=   710 RedAO= T EigKep=  1.37D-06  NBF=   710
 NBsUse=   710 1.00D-06 EigRej= -1.00D+00 NBFU=   710
 Precomputing XC quadrature grid using
 IXCGrd= 4 IRadAn=           5 IRanWt=          -1 IRanGd=           0 AccXCQ= 0.00D+00.
 Generated NRdTot=       0 NPtTot=           0 NUsed=           0 NTot=          32
 NSgBfM=   764   764   764   764   764 MxSgAt=    46 MxSgA2=    46.
 Leave Link  302 at Sat Jun 19 21:33:32 2021, MaxMem=  2147483648 cpu:              17.5 elap:               1.1
 (Enter /SFS/product/gaussian/g16.a03/x86_64/avx/g16/l303.exe)
 DipDrv:  MaxL=1.
 Leave Link  303 at Sat Jun 19 21:33:32 2021, MaxMem=  2147483648 cpu:               2.5 elap:               0.2
 (Enter /SFS/product/gaussian/g16.a03/x86_64/avx/g16/l401.exe)
 ExpMin= 1.40D-02 ExpMax= 4.32D+06 ExpMxC= 4.91D+03 IAcc=3 IRadAn=         5 AccDes= 0.00D+00
 Harris functional with IExCor=  402 and IRadAn=       5 diagonalized for initial guess.
 HarFok:  IExCor=  402 AccDes= 0.00D+00 IRadAn=         5 IDoV= 1 UseB2=F ITyADJ=14
 ICtDFT=  3500011 ScaDFX=  1.000000  1.000000  1.000000  1.000000
 FoFCou: FMM=F IPFlag=           0 FMFlag=      100000 FMFlg1=           0
         NFxFlg=           0 DoJE=T BraDBF=F KetDBF=T FulRan=T
         wScrn=  0.000000 ICntrl=       500 IOpCl=  0 I1Cent=   200000004 NGrid=           0
         NMat0=    1 NMatS0=      1 NMatT0=    0 NMatD0=    1 NMtDS0=    0 NMtDT0=    0
 Petite list used in FoFCou.
 Harris En= -3531.09035142858    
 JPrj=0 DoOrth=F DoCkMO=F.
 Initial guess <Sx>= 0.0000 <Sy>= 0.0000 <Sz>= 2.5000 <S**2>= 8.7500 S= 2.5000
 Leave Link  401 at Sat Jun 19 21:33:39 2021, MaxMem=  2147483648 cpu:             107.7 elap:               6.8
 (Enter /SFS/product/gaussian/g16.a03/x86_64/avx/g16/l502.exe)
 Integral symmetry usage will be decided dynamically.
 UHF open shell SCF:
 Using DIIS extrapolation, IDIIS=  1040.
 NGot=  2147483648 LenX=  2146290678 LenY=  2145703156
 Requested convergence on RMS density matrix=1.00D-08 within 128 cycles.
 Requested convergence on MAX density matrix=1.00D-06.
 Requested convergence on             energy=1.00D-06.
 No special actions if energy rises.
 Fock matrices will be formed incrementally for  20 cycles.

 Cycle   1  Pass 1  IDiag  1:
 FoFJK:  IHMeth= 1 ICntrl=       0 DoSepK=F KAlg= 0 I1Cent=           0 FoldK=F
 IRaf= 920000000 NMat=       1 IRICut=       1 DoRegI=T DoRafI=F ISym2E= 0 IDoP0=0 IntGTp=1.
 FoFCou: FMM=F IPFlag=           0 FMFlag=      100000 FMFlg1=           0
         NFxFlg=           0 DoJE=F BraDBF=F KetDBF=F FulRan=T
         wScrn=  0.000000 ICntrl=         0 IOpCl=  1 I1Cent=           0 NGrid=           0
         NMat0=    1 NMatS0=      1 NMatT0=    0 NMatD0=    1 NMtDS0=    0 NMtDT0=    0
 Symmetry not used in FoFCou.
 E= -3530.82388334049    
 DIIS: error= 1.45D-02 at cycle   1 NSaved=   1.
 NSaved= 1 IEnMin= 1 EnMin= -3530.82388334049     IErMin= 1 ErrMin= 1.45D-02
 ErrMax= 1.45D-02  0.00D+00 EMaxC= 1.00D-01 BMatC= 2.65D+00 BMatP= 2.65D+00
 IDIUse=3 WtCom= 8.55D-01 WtEn= 1.45D-01
 Coeff-Com:  0.100D+01
 Coeff-En:   0.100D+01
 Coeff:      0.100D+01
 Gap=     0.494 Goal=   None    Shift=    0.000
 Gap=     0.031 Goal=   None    Shift=    0.000
 GapD=    0.031 DampG=0.250 DampE=0.250 DampFc=0.1250 IDamp=-1.
 Damping current iteration by 1.25D-01
 RMSDP=3.24D-02 MaxDP=1.00D+01              OVMax= 8.38D-01

 Cycle   2  Pass 1  IDiag  1:
 RMSU=  1.64D-03    CP:  9.45D-01
 E= -3530.87598485094     Delta-E=       -0.052101510449 Rises=F Damp=T
 DIIS: error= 9.30D-03 at cycle   2 NSaved=   2.
 NSaved= 2 IEnMin= 2 EnMin= -3530.87598485094     IErMin= 2 ErrMin= 9.30D-03
 ErrMax= 9.30D-03  0.00D+00 EMaxC= 1.00D-01 BMatC= 1.14D+00 BMatP= 2.65D+00
 IDIUse=3 WtCom= 9.07D-01 WtEn= 9.30D-02
 Coeff-Com: -0.328D+00 0.133D+01
 Coeff-En:   0.340D+00 0.660D+00
 Coeff:     -0.266D+00 0.127D+01
 Gap=     0.334 Goal=   None    Shift=    0.000
 Gap=     0.150 Goal=   None    Shift=    0.000
 RMSDP=2.62D-02 MaxDP=7.85D+00 DE=-5.21D-02 OVMax= 8.59D-01

 Cycle   3  Pass 1  IDiag  1:
 RMSU=  1.12D-02    CP:  6.05D-01  3.00D+00
 E= -3528.54849614912     Delta-E=        2.327488701811 Rises=F Damp=F
 DIIS: error= 7.42D-02 at cycle   3 NSaved=   3.
 NSaved= 3 IEnMin= 2 EnMin= -3530.87598485094     IErMin= 2 ErrMin= 9.30D-03
 ErrMax= 7.42D-02  0.00D+00 EMaxC= 1.00D-01 BMatC= 1.26D+01 BMatP= 1.14D+00
 IDIUse=2 WtCom= 0.00D+00 WtEn= 1.00D+00
 Coeff-En:   0.000D+00 0.874D+00 0.126D+00
 Coeff:      0.000D+00 0.874D+00 0.126D+00
 Gap=     0.001 Goal=   None    Shift=    0.000
 Gap=     0.270 Goal=   None    Shift=    0.000
 RMSDP=1.01D-02 MaxDP=2.34D+00 DE= 2.33D+00 OVMax= 6.72D-01

 Cycle   4  Pass 1  IDiag  1:
 RMSU=  5.56D-03    CP:  5.90D-01  3.00D+00  2.58D-01
 E= -3531.24165032309     Delta-E=       -2.693154173961 Rises=F Damp=F
 DIIS: error= 9.37D-03 at cycle   4 NSaved=   4.
 NSaved= 4 IEnMin= 4 EnMin= -3531.24165032309     IErMin= 2 ErrMin= 9.30D-03
 ErrMax= 9.37D-03  0.00D+00 EMaxC= 1.00D-01 BMatC= 9.27D-01 BMatP= 1.14D+00
 IDIUse=3 WtCom= 9.06D-01 WtEn= 9.37D-02
 EnCoef did   100 forward-backward iterations
 Coeff-Com:  0.590D+00-0.307D+00-0.239D-01 0.741D+00
 Coeff-En:   0.216D+00 0.161D-02 0.000D+00 0.782D+00
 Coeff:      0.555D+00-0.278D+00-0.217D-01 0.745D+00
 Gap=     0.224 Goal=   None    Shift=    0.000
 Gap=     0.112 Goal=   None    Shift=    0.000
 RMSDP=4.06D-03 MaxDP=8.17D-01 DE=-2.69D+00 OVMax= 1.12D-01

 Cycle   5  Pass 1  IDiag  1:
 RMSU=  2.80D-03    CP:  6.28D-01  3.00D+00  1.87D-01  7.83D-01
 E= -3531.38353367068     Delta-E=       -0.141883347597 Rises=F Damp=F
 DIIS: error= 8.82D-03 at cycle   5 NSaved=   5.
 NSaved= 5 IEnMin= 5 EnMin= -3531.38353367068     IErMin= 5 ErrMin= 8.82D-03
 ErrMax= 8.82D-03  0.00D+00 EMaxC= 1.00D-01 BMatC= 2.94D-01 BMatP= 9.27D-01
 IDIUse=3 WtCom= 9.12D-01 WtEn= 8.82D-02
 Coeff-Com:  0.255D+00-0.823D-01-0.365D-01 0.457D+00 0.407D+00
 Coeff-En:   0.000D+00 0.000D+00 0.000D+00 0.202D+00 0.798D+00
 Coeff:      0.233D+00-0.751D-01-0.333D-01 0.434D+00 0.442D+00
 Gap=     0.229 Goal=   None    Shift=    0.000
 Gap=     0.130 Goal=   None    Shift=    0.000
 RMSDP=1.31D-03 MaxDP=1.56D-01 DE=-1.42D-01 OVMax= 6.61D-02

 Cycle   6  Pass 1  IDiag  1:
 RMSU=  1.17D-03    CP:  6.30D-01  3.00D+00  1.66D-01  8.27D-01  8.32D-01
 E= -3531.43606700248     Delta-E=       -0.052533331797 Rises=F Damp=F
 DIIS: error= 1.04D-03 at cycle   6 NSaved=   6.
 NSaved= 6 IEnMin= 6 EnMin= -3531.43606700248     IErMin= 6 ErrMin= 1.04D-03
 ErrMax= 1.04D-03  0.00D+00 EMaxC= 1.00D-01 BMatC= 1.46D-02 BMatP= 2.94D-01
 IDIUse=3 WtCom= 9.90D-01 WtEn= 1.04D-02
 Coeff-Com: -0.293D-01 0.657D-01-0.656D-02 0.962D-01 0.200D+00 0.674D+00
 Coeff-En:   0.000D+00 0.000D+00 0.000D+00 0.000D+00 0.000D+00 0.100D+01
 Coeff:     -0.290D-01 0.651D-01-0.649D-02 0.952D-01 0.198D+00 0.677D+00
 Gap=     0.225 Goal=   None    Shift=    0.000
 Gap=     0.133 Goal=   None    Shift=    0.000
 RMSDP=4.87D-04 MaxDP=1.20D-01 DE=-5.25D-02 OVMax= 2.26D-02

 Cycle   7  Pass 1  IDiag  1:
 RMSU=  4.30D-04    CP:  6.27D-01  3.00D+00  1.70D-01  8.25D-01  8.19D-01
                    CP:  9.60D-01
 E= -3531.43740396270     Delta-E=       -0.001336960218 Rises=F Damp=F
 DIIS: error= 1.63D-03 at cycle   7 NSaved=   7.
 NSaved= 7 IEnMin= 7 EnMin= -3531.43740396270     IErMin= 6 ErrMin= 1.04D-03
 ErrMax= 1.63D-03  0.00D+00 EMaxC= 1.00D-01 BMatC= 1.14D-02 BMatP= 1.46D-02
 IDIUse=3 WtCom= 9.90D-01 WtEn= 1.04D-02
 Coeff-Com: -0.715D-01 0.820D-01-0.128D-02 0.854D-02 0.588D-01 0.458D+00
 Coeff-Com:  0.465D+00
 Coeff-En:   0.000D+00 0.000D+00 0.000D+00 0.000D+00 0.000D+00 0.357D+00
 Coeff-En:   0.643D+00
 Coeff:     -0.708D-01 0.811D-01-0.127D-02 0.846D-02 0.582D-01 0.457D+00
 Coeff:      0.467D+00
 Gap=     0.225 Goal=   None    Shift=    0.000
 Gap=     0.127 Goal=   None    Shift=    0.000
 RMSDP=1.92D-04 MaxDP=2.86D-02 DE=-1.34D-03 OVMax= 1.10D-02

 Cycle   8  Pass 1  IDiag  1:
 RMSU=  1.70D-04    CP:  6.26D-01  3.00D+00  1.66D-01  8.31D-01  8.11D-01
                    CP:  9.82D-01  9.01D-01
 E= -3531.43896707223     Delta-E=       -0.001563109529 Rises=F Damp=F
 DIIS: error= 8.96D-04 at cycle   8 NSaved=   8.
 NSaved= 8 IEnMin= 8 EnMin= -3531.43896707223     IErMin= 8 ErrMin= 8.96D-04
 ErrMax= 8.96D-04  0.00D+00 EMaxC= 1.00D-01 BMatC= 2.90D-03 BMatP= 1.14D-02
 IDIUse=3 WtCom= 9.91D-01 WtEn= 8.96D-03
 Coeff-Com: -0.679D-01 0.776D-01 0.809D-03-0.137D-01-0.619D-02 0.135D+00
 Coeff-Com:  0.237D+00 0.638D+00
 Coeff-En:   0.000D+00 0.000D+00 0.000D+00 0.000D+00 0.000D+00 0.000D+00
 Coeff-En:   0.000D+00 0.100D+01
 Coeff:     -0.673D-01 0.769D-01 0.802D-03-0.135D-01-0.613D-02 0.134D+00
 Coeff:      0.235D+00 0.641D+00
 Gap=     0.224 Goal=   None    Shift=    0.000
 Gap=     0.125 Goal=   None    Shift=    0.000
 RMSDP=8.73D-05 MaxDP=1.38D-02 DE=-1.56D-03 OVMax= 2.83D-03

 Cycle   9  Pass 1  IDiag  1:
 RMSU=  7.29D-05    CP:  6.26D-01  3.00D+00  1.65D-01  8.34D-01  8.18D-01
                    CP:  1.01D+00  8.78D-01  9.24D-01
 E= -3531.43931445567     Delta-E=       -0.000347383439 Rises=F Damp=F
 DIIS: error= 5.03D-04 at cycle   9 NSaved=   9.
 NSaved= 9 IEnMin= 9 EnMin= -3531.43931445567     IErMin= 9 ErrMin= 5.03D-04
 ErrMax= 5.03D-04  0.00D+00 EMaxC= 1.00D-01 BMatC= 9.32D-04 BMatP= 2.90D-03
 IDIUse=3 WtCom= 9.95D-01 WtEn= 5.03D-03
 Coeff-Com: -0.345D-01 0.423D-01 0.100D-03-0.703D-02-0.107D-01-0.584D-01
 Coeff-Com: -0.460D-01 0.212D+00 0.902D+00
 Coeff-En:   0.000D+00 0.000D+00 0.000D+00 0.000D+00 0.000D+00 0.000D+00
 Coeff-En:   0.000D+00 0.000D+00 0.100D+01
 Coeff:     -0.344D-01 0.421D-01 0.996D-04-0.699D-02-0.107D-01-0.581D-01
 Coeff:     -0.458D-01 0.211D+00 0.903D+00
 Gap=     0.224 Goal=   None    Shift=    0.000
 Gap=     0.123 Goal=   None    Shift=    0.000
 RMSDP=7.91D-05 MaxDP=1.30D-02 DE=-3.47D-04 OVMax= 2.22D-03

 Cycle  10  Pass 1  IDiag  1:
 RMSU=  5.90D-05    CP:  6.26D-01  3.00D+00  1.63D-01  8.36D-01  8.25D-01
                    CP:  1.00D+00  8.82D-01  1.08D+00  1.27D+00
 E= -3531.43946875481     Delta-E=       -0.000154299144 Rises=F Damp=F
 DIIS: error= 2.12D-04 at cycle  10 NSaved=  10.
 NSaved=10 IEnMin=10 EnMin= -3531.43946875481     IErMin=10 ErrMin= 2.12D-04
 ErrMax= 2.12D-04  0.00D+00 EMaxC= 1.00D-01 BMatC= 1.93D-04 BMatP= 9.32D-04
 IDIUse=3 WtCom= 9.98D-01 WtEn= 2.12D-03
 Coeff-Com: -0.899D-02 0.128D-01 0.116D-03 0.574D-03 0.246D-02-0.636D-01
 Coeff-Com: -0.102D+00-0.121D+00 0.420D+00 0.860D+00
 Coeff-En:   0.000D+00 0.000D+00 0.000D+00 0.000D+00 0.000D+00 0.000D+00
 Coeff-En:   0.000D+00 0.000D+00 0.000D+00 0.100D+01
 Coeff:     -0.897D-02 0.127D-01 0.115D-03 0.572D-03 0.245D-02-0.634D-01
 Coeff:     -0.101D+00-0.121D+00 0.419D+00 0.860D+00
 Gap=     0.224 Goal=   None    Shift=    0.000
 Gap=     0.122 Goal=   None    Shift=    0.000
 RMSDP=5.71D-05 MaxDP=4.90D-03 DE=-1.54D-04 OVMax= 1.43D-03

 Cycle  11  Pass 1  IDiag  1:
 RMSU=  3.06D-05    CP:  6.27D-01  3.00D+00  1.61D-01  8.36D-01  8.26D-01
                    CP:  9.97D-01  8.66D-01  1.21D+00  1.50D+00  1.50D+00
 E= -3531.43950949777     Delta-E=       -0.000040742962 Rises=F Damp=F
 DIIS: error= 3.05D-05 at cycle  11 NSaved=  11.
 NSaved=11 IEnMin=11 EnMin= -3531.43950949777     IErMin=11 ErrMin= 3.05D-05
 ErrMax= 3.05D-05  0.00D+00 EMaxC= 1.00D-01 BMatC= 1.65D-05 BMatP= 1.93D-04
 IDIUse=1 WtCom= 1.00D+00 WtEn= 0.00D+00
 Coeff-Com: -0.176D-02 0.266D-02 0.547D-04 0.118D-02 0.582D-02-0.139D-01
 Coeff-Com: -0.353D-01-0.935D-01 0.121D-01 0.479D+00 0.643D+00
 Coeff:     -0.176D-02 0.266D-02 0.547D-04 0.118D-02 0.582D-02-0.139D-01
 Coeff:     -0.353D-01-0.935D-01 0.121D-01 0.479D+00 0.643D+00
 Gap=     0.224 Goal=   None    Shift=    0.000
 Gap=     0.122 Goal=   None    Shift=    0.000
 RMSDP=2.06D-05 MaxDP=3.85D-03 DE=-4.07D-05 OVMax= 6.15D-04

 Cycle  12  Pass 1  IDiag  1:
 RMSU=  1.11D-05    CP:  6.27D-01  3.00D+00  1.61D-01  8.36D-01  8.27D-01
                    CP:  9.94D-01  8.55D-01  1.19D+00  1.62D+00  1.67D+00
                    CP:  1.06D+00
 E= -3531.43951300582     Delta-E=       -0.000003508052 Rises=F Damp=F
 DIIS: error= 2.37D-05 at cycle  12 NSaved=  12.
 NSaved=12 IEnMin=12 EnMin= -3531.43951300582     IErMin=12 ErrMin= 2.37D-05
 ErrMax= 2.37D-05  0.00D+00 EMaxC= 1.00D-01 BMatC= 2.47D-06 BMatP= 1.65D-05
 IDIUse=1 WtCom= 1.00D+00 WtEn= 0.00D+00
 Coeff-Com: -0.472D-03 0.559D-03 0.362D-04 0.333D-03 0.315D-02 0.396D-03
 Coeff-Com: -0.486D-02-0.305D-01-0.488D-01 0.146D+00 0.371D+00 0.563D+00
 Coeff:     -0.472D-03 0.559D-03 0.362D-04 0.333D-03 0.315D-02 0.396D-03
 Coeff:     -0.486D-02-0.305D-01-0.488D-01 0.146D+00 0.371D+00 0.563D+00
 Gap=     0.224 Goal=   None    Shift=    0.000
 Gap=     0.122 Goal=   None    Shift=    0.000
 RMSDP=6.06D-06 MaxDP=7.30D-04 DE=-3.51D-06 OVMax= 3.72D-04

 Cycle  13  Pass 1  IDiag  1:
 RMSU=  4.38D-06    CP:  6.27D-01  3.00D+00  1.61D-01  8.36D-01  8.28D-01
                    CP:  9.94D-01  8.50D-01  1.20D+00  1.62D+00  1.69D+00
                    CP:  1.09D+00  8.38D-01
 E= -3531.43951359631     Delta-E=       -0.000000590483 Rises=F Damp=F
 DIIS: error= 7.23D-06 at cycle  13 NSaved=  13.
 NSaved=13 IEnMin=13 EnMin= -3531.43951359631     IErMin=13 ErrMin= 7.23D-06
 ErrMax= 7.23D-06  0.00D+00 EMaxC= 1.00D-01 BMatC= 5.15D-07 BMatP= 2.47D-06
 IDIUse=1 WtCom= 1.00D+00 WtEn= 0.00D+00
 Coeff-Com: -0.613D-05-0.112D-03-0.801D-05-0.386D-04 0.118D-02 0.210D-02
 Coeff-Com:  0.279D-02-0.213D-02-0.286D-01 0.129D-01 0.117D+00 0.319D+00
 Coeff-Com:  0.575D+00
 Coeff:     -0.613D-05-0.112D-03-0.801D-05-0.386D-04 0.118D-02 0.210D-02
 Coeff:      0.279D-02-0.213D-02-0.286D-01 0.129D-01 0.117D+00 0.319D+00
 Coeff:      0.575D+00
 Gap=     0.224 Goal=   None    Shift=    0.000
 Gap=     0.122 Goal=   None    Shift=    0.000
 RMSDP=2.58D-06 MaxDP=3.23D-04 DE=-5.90D-07 OVMax= 1.10D-04

 Cycle  14  Pass 1  IDiag  1:
 RMSU=  1.65D-06    CP:  6.27D-01  3.00D+00  1.61D-01  8.37D-01  8.28D-01
                    CP:  9.93D-01  8.50D-01  1.20D+00  1.62D+00  1.71D+00
                    CP:  1.10D+00  8.98D-01  8.29D-01
 E= -3531.43951370593     Delta-E=       -0.000000109625 Rises=F Damp=F
 DIIS: error= 4.54D-06 at cycle  14 NSaved=  14.
 NSaved=14 IEnMin=14 EnMin= -3531.43951370593     IErMin=14 ErrMin= 4.54D-06
 ErrMax= 4.54D-06  0.00D+00 EMaxC= 1.00D-01 BMatC= 9.58D-08 BMatP= 5.15D-07
 IDIUse=1 WtCom= 1.00D+00 WtEn= 0.00D+00
 Coeff-Com: -0.101D-04-0.425D-04 0.162D-05-0.978D-04 0.716D-04 0.714D-03
 Coeff-Com:  0.233D-02 0.596D-02-0.168D-02-0.201D-01-0.152D-01 0.464D-01
 Coeff-Com:  0.273D+00 0.708D+00
 Coeff:     -0.101D-04-0.425D-04 0.162D-05-0.978D-04 0.716D-04 0.714D-03
 Coeff:      0.233D-02 0.596D-02-0.168D-02-0.201D-01-0.152D-01 0.464D-01
 Coeff:      0.273D+00 0.708D+00
 Gap=     0.224 Goal=   None    Shift=    0.000
 Gap=     0.122 Goal=   None    Shift=    0.000
 RMSDP=8.33D-07 MaxDP=1.28D-04 DE=-1.10D-07 OVMax= 3.21D-05

 Cycle  15  Pass 1  IDiag  1:
 RMSU=  6.36D-07    CP:  6.27D-01  3.00D+00  1.61D-01  8.36D-01  8.28D-01
                    CP:  9.93D-01  8.49D-01  1.20D+00  1.62D+00  1.70D+00
                    CP:  1.11D+00  8.89D-01  8.41D-01  8.68D-01
 E= -3531.43951372271     Delta-E=       -0.000000016777 Rises=F Damp=F
 DIIS: error= 1.05D-06 at cycle  15 NSaved=  15.
 NSaved=15 IEnMin=15 EnMin= -3531.43951372271     IErMin=15 ErrMin= 1.05D-06
 ErrMax= 1.05D-06  0.00D+00 EMaxC= 1.00D-01 BMatC= 1.67D-08 BMatP= 9.58D-08
 IDIUse=1 WtCom= 1.00D+00 WtEn= 0.00D+00
 Coeff-Com: -0.120D-04-0.570D-05 0.285D-05-0.667D-04-0.141D-03 0.309D-04
 Coeff-Com:  0.935D-03 0.412D-02 0.427D-02-0.140D-01-0.292D-01-0.265D-01
 Coeff-Com:  0.667D-01 0.440D+00 0.554D+00
 Coeff:     -0.120D-04-0.570D-05 0.285D-05-0.667D-04-0.141D-03 0.309D-04
 Coeff:      0.935D-03 0.412D-02 0.427D-02-0.140D-01-0.292D-01-0.265D-01
 Coeff:      0.667D-01 0.440D+00 0.554D+00
 Gap=     0.224 Goal=   None    Shift=    0.000
 Gap=     0.122 Goal=   None    Shift=    0.000
 RMSDP=3.51D-07 MaxDP=4.74D-05 DE=-1.68D-08 OVMax= 1.66D-05

 Cycle  16  Pass 1  IDiag  1:
 RMSU=  2.82D-07    CP:  6.27D-01  3.00D+00  1.61D-01  8.36D-01  8.28D-01
                    CP:  9.93D-01  8.50D-01  1.19D+00  1.62D+00  1.70D+00
                    CP:  1.10D+00  8.95D-01  8.48D-01  8.81D-01  8.99D-01
 E= -3531.43951372679     Delta-E=       -0.000000004079 Rises=F Damp=F
 DIIS: error= 3.86D-07 at cycle  16 NSaved=  16.
 NSaved=16 IEnMin=16 EnMin= -3531.43951372679     IErMin=16 ErrMin= 3.86D-07
 ErrMax= 3.86D-07  0.00D+00 EMaxC= 1.00D-01 BMatC= 1.60D-09 BMatP= 1.67D-08
 IDIUse=1 WtCom= 1.00D+00 WtEn= 0.00D+00
 Coeff-Com:  0.191D-05 0.289D-06-0.105D-06-0.142D-04-0.903D-04-0.140D-03
 Coeff-Com: -0.170D-04 0.828D-03 0.227D-02-0.293D-02-0.110D-01-0.201D-01
 Coeff-Com: -0.187D-01 0.808D-01 0.262D+00 0.707D+00
 Coeff:      0.191D-05 0.289D-06-0.105D-06-0.142D-04-0.903D-04-0.140D-03
 Coeff:     -0.170D-04 0.828D-03 0.227D-02-0.293D-02-0.110D-01-0.201D-01
 Coeff:     -0.187D-01 0.808D-01 0.262D+00 0.707D+00
 Gap=     0.224 Goal=   None    Shift=    0.000
 Gap=     0.122 Goal=   None    Shift=    0.000
 RMSDP=1.44D-07 MaxDP=2.94D-05 DE=-4.08D-09 OVMax= 6.93D-06

 Cycle  17  Pass 1  IDiag  1:
 RMSU=  1.20D-07    CP:  6.27D-01  3.00D+00  1.61D-01  8.36D-01  8.28D-01
                    CP:  9.93D-01  8.50D-01  1.19D+00  1.62D+00  1.70D+00
                    CP:  1.11D+00  8.95D-01  8.57D-01  8.94D-01  9.16D-01
                    CP:  9.60D-01
 E= -3531.43951372712     Delta-E=       -0.000000000333 Rises=F Damp=F
 DIIS: error= 2.80D-07 at cycle  17 NSaved=  17.
 NSaved=17 IEnMin=17 EnMin= -3531.43951372712     IErMin=17 ErrMin= 2.80D-07
 ErrMax= 2.80D-07  0.00D+00 EMaxC= 1.00D-01 BMatC= 7.41D-10 BMatP= 1.60D-09
 IDIUse=1 WtCom= 1.00D+00 WtEn= 0.00D+00
 Coeff-Com:  0.960D-06 0.499D-05-0.102D-06 0.503D-05-0.297D-04-0.926D-04
 Coeff-Com: -0.235D-03-0.451D-03 0.418D-03 0.138D-02-0.368D-03-0.684D-02
 Coeff-Com: -0.256D-01-0.405D-01 0.471D-01 0.432D+00 0.593D+00
 Coeff:      0.960D-06 0.499D-05-0.102D-06 0.503D-05-0.297D-04-0.926D-04
 Coeff:     -0.235D-03-0.451D-03 0.418D-03 0.138D-02-0.368D-03-0.684D-02
 Coeff:     -0.256D-01-0.405D-01 0.471D-01 0.432D+00 0.593D+00
 Gap=     0.224 Goal=   None    Shift=    0.000
 Gap=     0.122 Goal=   None    Shift=    0.000
 RMSDP=7.82D-08 MaxDP=1.09D-05 DE=-3.33D-10 OVMax= 3.88D-06

 Cycle  18  Pass 1  IDiag  1:
 RMSU=  6.47D-08    CP:  6.27D-01  3.00D+00  1.61D-01  8.36D-01  8.28D-01
                    CP:  9.93D-01  8.50D-01  1.19D+00  1.62D+00  1.70D+00
                    CP:  1.10D+00  8.95D-01  8.55D-01  9.02D-01  9.26D-01
                    CP:  9.88D-01  9.34D-01
 E= -3531.43951372734     Delta-E=       -0.000000000222 Rises=F Damp=F
 DIIS: error= 1.09D-07 at cycle  18 NSaved=  18.
 NSaved=18 IEnMin=18 EnMin= -3531.43951372734     IErMin=18 ErrMin= 1.09D-07
[...]
    18   Atom        0.083442      0.066089     -0.149531
    19   Atom       -0.128533     -0.053944      0.182477
    20   Atom        0.040921     -0.022870     -0.018052
    21   Atom        0.004450     -0.005813      0.001363
    22   Atom        0.001310     -0.001897      0.000587
    23   Atom        0.000768      0.000218     -0.000986
    24   Atom        0.000932      0.002918     -0.003849
    25   Atom        0.006302     -0.009504      0.003202
    26   Atom        0.010585     -0.005745     -0.004840
    27   Atom        0.001603     -0.001619      0.000016
    28   Atom        0.003084     -0.000829     -0.002255
    29   Atom       -0.002049      0.000884      0.001165
    30   Atom       -0.000660      0.002128     -0.001467
    31   Atom       -0.003323      0.009507     -0.006184
    32   Atom       -0.006695      0.013063     -0.006369
    33   Atom       -0.014834      0.027981     -0.013147
    34   Atom       -0.009876      0.028192     -0.018315
    35   Atom       -0.006147      0.003416      0.002730
    36   Atom       -0.012101     -0.001231      0.013332
    37   Atom       -0.008711     -0.003748      0.012459
    38   Atom        0.011868     -0.006634     -0.005234
    39   Atom        0.005564     -0.004198     -0.001366
    40   Atom        0.006725     -0.003030     -0.003694
    41   Atom        0.004771     -0.001469     -0.003302
    42   Atom        0.007335     -0.003153     -0.004183
    43   Atom        0.004300     -0.002167     -0.002133
    44   Atom        0.002452     -0.000203     -0.002249
    45   Atom        0.002222     -0.000937     -0.001286
    46   Atom        0.004950      0.000482     -0.005432
 --------------------------------------------------------
                        XY            XZ            YZ
 --------------------------------------------------------
     1   Atom       -0.007436      0.002628     -0.003436
     2   Atom       -0.016844      0.006628     -0.003723
     3   Atom       -0.009370      0.015152     -0.004218
     4   Atom       -0.002672      0.008946     -0.002469
     5   Atom       -0.003113      0.004798     -0.002378
     6   Atom       -0.004249      0.003406     -0.002533
     7   Atom       -0.038085     -0.009905      0.008688
     8   Atom       -0.006957     -0.012610      0.003582
     9   Atom       -0.004892     -0.004972      0.003312
    10   Atom       -0.005735     -0.004770      0.005599
    11   Atom       -0.016298     -0.004561      0.008519
    12   Atom       -0.012417     -0.006109      0.032139
    13   Atom       -0.001762     -0.000172      0.019323
    14   Atom       -0.153008     -0.149190      0.063584
    15   Atom       -0.074205     -0.034040      0.077681
    16   Atom        0.008035      0.209644      0.097151
    17   Atom        0.006419     -0.000929      0.006829
    18   Atom        0.172828     -0.087763     -0.035577
    19   Atom       -0.006518     -0.035973     -0.145041
    20   Atom        0.001003      0.021752     -0.000444
    21   Atom        0.000365      0.008542      0.000140
    22   Atom       -0.001617      0.003442     -0.001472
    23   Atom       -0.002796      0.001980     -0.001829
    24   Atom       -0.006110      0.001129     -0.001260
    25   Atom       -0.005106     -0.016451      0.004333
    26   Atom       -0.001857     -0.004722      0.000733
    27   Atom       -0.002487     -0.003799      0.001981
    28   Atom       -0.003833     -0.002458      0.001523
    29   Atom       -0.003464     -0.003334      0.005289
    30   Atom       -0.003450     -0.001922      0.002645
    31   Atom       -0.007820     -0.001318      0.001788
    32   Atom        0.002896      0.000540      0.004416
    33   Atom        0.000177     -0.000554     -0.005077
    34   Atom        0.021131      0.004423      0.008427
    35   Atom        0.000273      0.000476      0.009485
    36   Atom        0.003687      0.007996      0.021331
    37   Atom       -0.003012     -0.005083      0.012072
    38   Atom        0.002739     -0.006987     -0.000805
    39   Atom       -0.001691     -0.001453      0.001214
    40   Atom        0.003104     -0.002349     -0.000664
    41   Atom        0.004539     -0.003185     -0.001468
    42   Atom        0.003012     -0.000047     -0.000042
    43   Atom        0.001493     -0.001820     -0.000386
    44   Atom        0.003321     -0.001083     -0.000684
    45   Atom        0.003552     -0.003234     -0.002048
    46   Atom        0.008464     -0.003384     -0.002392
 --------------------------------------------------------


 ---------------------------------------------------------------------------------
              Anisotropic Spin Dipole Couplings in Principal Axis System
 ---------------------------------------------------------------------------------

       Atom             a.u.   MegaHertz   Gauss  10(-4) cm-1        Axes

              Baa    -0.0062    -0.830    -0.296    -0.277  0.3147  0.6361  0.7045
     1 C(13)  Bbb    -0.0046    -0.621    -0.222    -0.207 -0.6322 -0.4132  0.6554
              Bcc     0.0108     1.451     0.518     0.484  0.7081 -0.6516  0.2721
 
              Baa    -0.0137    -1.834    -0.654    -0.612  0.5667  0.7992 -0.2005
     2 C(13)  Bbb    -0.0113    -1.521    -0.543    -0.507 -0.0643  0.2855  0.9562
              Bcc     0.0250     3.355     1.197     1.119  0.8214 -0.5290  0.2132
 
              Baa    -0.0149    -1.994    -0.712    -0.665 -0.1105  0.7098  0.6957
     3 C(13)  Bbb    -0.0146    -1.954    -0.697    -0.652  0.4408  0.6624 -0.6058
              Bcc     0.0294     3.948     1.409     1.317  0.8908 -0.2397  0.3861
 
              Baa    -0.0075    -1.004    -0.358    -0.335 -0.0899  0.9061  0.4135
     4 C(13)  Bbb    -0.0061    -0.813    -0.290    -0.271 -0.5814 -0.3848  0.7169
              Bcc     0.0135     1.816     0.648     0.606  0.8086 -0.1760  0.5613
 
              Baa    -0.0041    -0.548    -0.195    -0.183  0.1337  0.9082  0.3966
     5 C(13)  Bbb    -0.0037    -0.500    -0.178    -0.167 -0.6423 -0.2253  0.7326
              Bcc     0.0078     1.048     0.374     0.350  0.7547 -0.3527  0.5532
 
              Baa    -0.0038    -0.507    -0.181    -0.169  0.0785  0.6904  0.7192
     6 C(13)  Bbb    -0.0036    -0.480    -0.171    -0.160  0.6701  0.4976 -0.5508
              Bcc     0.0074     0.987     0.352     0.329  0.7381 -0.5252  0.4235
 
              Baa    -0.0272    -3.652    -1.303    -1.218 -0.3024 -0.5748  0.7604
     7 C(13)  Bbb    -0.0262    -3.517    -1.255    -1.173  0.5690  0.5312  0.6278
              Bcc     0.0534     7.169     2.558     2.391  0.7648 -0.6225 -0.1664
 
              Baa    -0.0112    -1.509    -0.538    -0.503  0.5057  0.1200  0.8543
     8 C(13)  Bbb    -0.0096    -1.284    -0.458    -0.428  0.1726  0.9562 -0.2364
              Bcc     0.0208     2.793     0.997     0.932  0.8453 -0.2670 -0.4628
 
              Baa    -0.0048    -0.643    -0.229    -0.214  0.3815 -0.2969  0.8754
     9 C(13)  Bbb    -0.0046    -0.612    -0.218    -0.204  0.5675  0.8228  0.0317
              Bcc     0.0093     1.255     0.448     0.418  0.7297 -0.4847 -0.4824
 
              Baa    -0.0055    -0.742    -0.265    -0.248  0.7987  0.1997  0.5676
    10 C(13)  Bbb    -0.0053    -0.717    -0.256    -0.239  0.2622  0.7335 -0.6270
              Bcc     0.0109     1.459     0.521     0.487 -0.5416  0.6497  0.5335
 
              Baa    -0.0138    -1.852    -0.661    -0.618 -0.2914 -0.4391  0.8499
    11 C(13)  Bbb    -0.0124    -1.658    -0.592    -0.553  0.8106  0.3583  0.4631
              Bcc     0.0262     3.510     1.252     1.171 -0.5079  0.8239  0.2515
 
              Baa    -0.0280    -3.755    -1.340    -1.252 -0.0930 -0.4656  0.8801
    12 C(13)  Bbb    -0.0261    -3.499    -1.249    -1.167  0.9801  0.1129  0.1632
              Bcc     0.0541     7.254     2.588     2.420 -0.1754  0.8778  0.4458
 
              Baa    -0.0143    -1.915    -0.683    -0.639  0.6203  0.6131 -0.4892
    13 C(13)  Bbb    -0.0117    -1.573    -0.561    -0.525  0.7836 -0.4585  0.4192
              Bcc     0.0260     3.488     1.245     1.163 -0.0327  0.6434  0.7649
 
              Baa    -0.2394    17.322     6.181     5.778  0.8593  0.3693  0.3539
    14 O(17)  Bbb    -0.0075     0.540     0.193     0.180  0.0072 -0.7006  0.7135
              Bcc     0.2469   -17.863    -6.374    -5.958 -0.5114  0.6106  0.6047
 
              Baa    -0.0950    -1.645    -0.587    -0.549 -0.1862 -0.6311  0.7531
    15 Fe(57) Bbb    -0.0363    -0.629    -0.224    -0.210  0.7902  0.3593  0.4964
              Bcc     0.1314     2.274     0.811     0.759 -0.5838  0.6875  0.4318
 
              Baa    -0.2059   -10.776    -3.845    -3.594 -0.4631 -0.6197  0.6336
    16 Cl(35) Bbb    -0.0741    -3.880    -1.385    -1.294 -0.5461  0.7626  0.3468
              Bcc     0.2800    14.656     5.230     4.889  0.6981  0.1854  0.6915
 
              Baa    -0.0169    -2.275    -0.812    -0.759  0.4866 -0.2010  0.8502
    17 C(13)  Bbb    -0.0125    -1.680    -0.599    -0.560  0.8614 -0.0520 -0.5053
              Bcc     0.0295     3.954     1.411     1.319  0.1457  0.9782  0.1478
 
              Baa    -0.1820    -9.525    -3.399    -3.177  0.3942 -0.1444  0.9076
    18 Cl(35) Bbb    -0.0846    -4.430    -1.581    -1.478 -0.5684  0.7377  0.3642
              Bcc     0.2666    13.954     4.979     4.655  0.7222  0.6595 -0.2087
 
              Baa    -0.1485    -7.771    -2.773    -2.592  0.7675  0.5523  0.3255
    19 Cl(35) Bbb    -0.1052    -5.507    -1.965    -1.837 -0.6363  0.7179  0.2824
              Bcc     0.2537    13.278     4.738     4.429 -0.0777 -0.4238  0.9024
 
              Baa    -0.0254   -13.563    -4.839    -4.524 -0.3031  0.2781  0.9115
    20 H(1)   Bbb    -0.0227   -12.094    -4.315    -4.034  0.0764  0.9605 -0.2676
              Bcc     0.0481    25.656     9.155     8.558  0.9499  0.0115  0.3123
 
              Baa    -0.0059    -3.162    -1.128    -1.055 -0.4224  0.7687  0.4802
    21 H(1)   Bbb    -0.0057    -3.025    -1.079    -1.009  0.4825  0.6392 -0.5989
              Bcc     0.0116     6.186     2.207     2.064  0.7673  0.0213  0.6409
 
              Baa    -0.0026    -1.378    -0.492    -0.460  0.1138  0.9425  0.3141
    22 H(1)   Bbb    -0.0025    -1.340    -0.478    -0.447 -0.6960 -0.1499  0.7022
              Bcc     0.0051     2.718     0.970     0.906  0.7089 -0.2985  0.6390
 
              Baa    -0.0023    -1.243    -0.443    -0.414  0.4425  0.7902  0.4240
    23 H(1)   Bbb    -0.0023    -1.213    -0.433    -0.405 -0.6003 -0.0903  0.7947
              Bcc     0.0046     2.456     0.876     0.819  0.6663 -0.6061  0.4344
 
              Baa    -0.0043    -2.281    -0.814    -0.761  0.7623  0.6091 -0.2189
    24 H(1)   Bbb    -0.0041    -2.174    -0.776    -0.725  0.0814  0.2453  0.9660
              Bcc     0.0083     4.455     1.590     1.486 -0.6421  0.7542 -0.1373
 
              Baa    -0.0118    -6.311    -2.252    -2.105  0.6887  0.2326  0.6868
    25 H(1)   Bbb    -0.0108    -5.784    -2.064    -1.929 -0.0131  0.9510 -0.3089
              Bcc     0.0227    12.095     4.316     4.034  0.7250 -0.2037 -0.6580
 
              Baa    -0.0063    -0.845    -0.301    -0.282  0.1768 -0.5192  0.8362
    26 C(13)  Bbb    -0.0058    -0.784    -0.280    -0.262  0.2329  0.8475  0.4770
              Bcc     0.0121     1.629     0.581     0.543  0.9563 -0.1104 -0.2707
 
              Baa    -0.0031    -1.642    -0.586    -0.548  0.6787  0.1965  0.7076
    27 H(1)   Bbb    -0.0029    -1.567    -0.559    -0.523  0.1578  0.9020 -0.4019
              Bcc     0.0060     3.209     1.145     1.071  0.7172 -0.3845 -0.5812
 
              Baa    -0.0032    -1.721    -0.614    -0.574  0.1099 -0.4020  0.9090
    28 H(1)   Bbb    -0.0032    -1.692    -0.604    -0.565  0.5780  0.7699  0.2705
              Bcc     0.0064     3.414     1.218     1.139  0.8086 -0.4957 -0.3170
 
              Baa    -0.0044    -2.344    -0.837    -0.782  0.6111  0.7233 -0.3217
    29 H(1)   Bbb    -0.0041    -2.193    -0.782    -0.731  0.6744 -0.2629  0.6899
              Bcc     0.0085     4.537     1.619     1.513 -0.4144  0.6385  0.6485
 
              Baa    -0.0031    -1.634    -0.583    -0.545  0.8039  0.2624  0.5337
    30 H(1)   Bbb    -0.0028    -1.516    -0.541    -0.506 -0.2965 -0.6010  0.7422
              Bcc     0.0059     3.150     1.124     1.051 -0.5155  0.7550  0.4053
 
              Baa    -0.0072    -3.864    -1.379    -1.289  0.8231  0.3354  0.4582
    31 H(1)   Bbb    -0.0062    -3.311    -1.181    -1.104 -0.3742 -0.2866  0.8820
              Bcc     0.0134     7.175     2.560     2.393 -0.4271  0.8974  0.1104
 
              Baa    -0.0074    -3.924    -1.400    -1.309  0.3194 -0.2434  0.9158
    32 H(1)   Bbb    -0.0071    -3.776    -1.347    -1.259  0.9375 -0.0596 -0.3428
              Bcc     0.0144     7.699     2.747     2.568  0.1381  0.9681  0.2091
 
              Baa    -0.0151    -8.031    -2.866    -2.679  0.9252  0.0407  0.3774
    33 H(1)   Bbb    -0.0135    -7.228    -2.579    -2.411 -0.3795  0.1139  0.9182
              Bcc     0.0286    15.260     5.445     5.090  0.0056  0.9927 -0.1208
 
              Baa    -0.0203   -10.810    -3.857    -3.606 -0.5372  0.0884  0.8388
    34 H(1)   Bbb    -0.0189   -10.088    -3.600    -3.365  0.7411 -0.4254  0.5194
              Bcc     0.0392    20.897     7.457     6.971  0.4028  0.9007  0.1630
 
              Baa    -0.0065    -3.462    -1.236    -1.155 -0.4229 -0.6206  0.6603
    35 H(1)   Bbb    -0.0061    -3.249    -1.159    -1.084  0.9057 -0.3121  0.2868
              Bcc     0.0126     6.712     2.395     2.239  0.0281  0.7193  0.6941
 
              Baa    -0.0173    -9.211    -3.287    -3.072  0.4227  0.6878 -0.5901
    36 H(1)   Bbb    -0.0131    -6.985    -2.492    -2.330  0.8839 -0.4566  0.1011
              Bcc     0.0304    16.196     5.779     5.402  0.1999  0.5643  0.8010
 
              Baa    -0.0103    -5.519    -1.969    -1.841  0.5131  0.8006 -0.3095
    37 H(1)   Bbb    -0.0098    -5.207    -1.858    -1.737  0.8346 -0.3810  0.3979
              Bcc     0.0201    10.727     3.828     3.578 -0.2007  0.4624  0.8636
 
              Baa    -0.0078     0.562     0.200     0.187  0.3537 -0.2083  0.9119
    38 O(17)  Bbb    -0.0070     0.505     0.180     0.168 -0.0514  0.9691  0.2413
              Bcc     0.0147    -1.067    -0.381    -0.356  0.9340  0.1322 -0.3320
 
              Baa    -0.0048     0.345     0.123     0.115  0.1147  0.9502 -0.2897
    39 O(17)  Bbb    -0.0014     0.104     0.037     0.035  0.2551  0.2537  0.9330
              Bcc     0.0062    -0.449    -0.160    -0.150  0.9601 -0.1809 -0.2133
 
              Baa    -0.0042    -0.564    -0.201    -0.188  0.2139 -0.0135  0.9768
    40 C(13)  Bbb    -0.0039    -0.528    -0.188    -0.176 -0.2644  0.9618  0.0712
              Bcc     0.0081     1.091     0.389     0.364  0.9404  0.2735 -0.2021
 
              Baa    -0.0044    -0.593    -0.212    -0.198  0.3830 -0.1342  0.9140
    41 C(13)  Bbb    -0.0038    -0.510    -0.182    -0.170 -0.3645  0.8872  0.2830
              Bcc     0.0082     1.104     0.394     0.368  0.8488  0.4415 -0.2908
 
              Baa    -0.0042    -2.234    -0.797    -0.745 -0.0275  0.1205  0.9923
    42 H(1)   Bbb    -0.0040    -2.109    -0.752    -0.703 -0.2563  0.9587 -0.1235
              Bcc     0.0081     4.343     1.550     1.449  0.9662  0.2577 -0.0045
 
              Baa    -0.0026    -1.394    -0.497    -0.465  0.2655 -0.0558  0.9625
    43 H(1)   Bbb    -0.0025    -1.330    -0.475    -0.444 -0.1857  0.9767  0.1079
              Bcc     0.0051     2.724     0.972     0.909  0.9461  0.2074 -0.2490
 
              Baa    -0.0025    -1.337    -0.477    -0.446  0.4469 -0.4078  0.7962
    44 H(1)   Bbb    -0.0024    -1.293    -0.461    -0.431 -0.3673  0.7280  0.5790
              Bcc     0.0049     2.630     0.938     0.877  0.8157  0.5512 -0.1756
 
              Baa    -0.0033    -1.742    -0.621    -0.581  0.6527 -0.6418  0.4025
    45 H(1)   Bbb    -0.0032    -1.689    -0.603    -0.563  0.0895  0.5930  0.8002
              Bcc     0.0064     3.430     1.224     1.144  0.7523  0.4863 -0.4445
 
              Baa    -0.0065    -3.445    -1.229    -1.149  0.3904 -0.1640  0.9059
    46 H(1)   Bbb    -0.0060    -3.187    -1.137    -1.063 -0.5000  0.7884  0.3582
              Bcc     0.0124     6.632     2.366     2.212  0.7730  0.5928 -0.2258
 

 ---------------------------------------------------------------------------------

 No NMR shielding tensors so no spin-rotation constants.
 Leave Link  601 at Sun Jun 20 06:18:21 2021, MaxMem=  2147483648 cpu:              84.1 elap:               5.4
 (Enter /SFS/product/gaussian/g16.a03/x86_64/avx/g16/l9999.exe)
 1\1\GINC-KTCHPCPX022\SP\UB3LYP\Jul-CC-pVDZ\C17H22Cl3Fe1O3(6)\KWANEU\20
 -Jun-2021\0\\#p ub3lyp jul-cc-pvdz pop=cm5 scrf=(pcm,solvent=water) gu
 ess=read geom=allcheck\\title\\0,6\C,0,1.6405251517,-2.2170899411,1.68
 60799484\C,0,1.1384936058,-1.0866958836,1.0272981495\C,0,1.2078250527,
 0.1556304638,1.6770058983\C,0,1.7362259965,0.2578233929,2.963404562\C,
 0,2.2307255577,-0.8764045972,3.6146217108\C,0,2.1889675758,-2.11277778
 91,2.9682201726\C,0,0.5891669998,-1.1876126979,-0.3780470203\C,0,1.509
 9684101,-0.6045707642,-1.5111117431\C,0,2.1005802319,-1.8756835311,-2.
 1548467168\C,0,0.9523212573,-2.9033831707,-2.1324801745\C,0,0.11644796
 33,-2.5138575031,-0.8953681712\C,0,-1.3177733363,-1.9310776399,-1.0465
 445505\C,0,-1.8650575077,-1.7404907358,-2.449535231\O,0,-0.8249134751,
 -0.628497034,-0.4894382674\Fe,0,-1.9802095627,0.8919423356,0.283811937
 4\Cl,0,-3.8270428998,0.874018936,-0.9155499055\C,0,-2.334073498,-2.564
 9675117,-0.1105544034\Cl,0,-0.8979002252,2.7845322828,0.0195405361\Cl,
 0,-2.3973275195,0.3953641212,2.3787309768\H,0,0.8453448563,1.056508217
 1,1.183244324\H,0,1.7608826893,1.2294270432,3.4580786271\H,0,2.6482503
 345,-0.7952278113,4.6191716995\H,0,2.5800451894,-3.0040756701,3.460635
 7134\H,0,1.6265820525,-3.1938121557,1.2036824403\H,0,0.8532237487,-0.0
 817389542,-2.2164741439\C,0,2.6074738072,0.3600302827,-1.0815238689\H,
 0,2.4861192418,-1.6771788152,-3.1631548228\H,0,2.9469734867,-2.2146958
 221,-1.5429047568\H,0,0.3590646733,-2.8491301223,-3.0531843529\H,0,1.3
 265264451,-3.9322597307,-2.0591930359\H,0,0.1178463358,-3.3076744958,-
 0.1437117417\H,0,-2.5471549602,-3.5846890459,-0.4631903953\H,0,-1.9494
 016037,-2.6238127503,0.9146612197\H,0,-3.2761481116,-2.0025201042,-0.1
 030949588\H,0,-2.0791661506,-2.72423735,-2.8911519958\H,0,-2.799433951
 7,-1.1689717513,-2.4175906548\H,0,-1.1610194719,-1.212956347,-3.103420
 0273\O,0,2.2598739769,1.6364426241,-1.3188155465\O,0,3.6757877426,0.01
 89124515,-0.6197737519\C,0,3.2391434422,2.6498146742,-0.9541166569\C,0
 ,2.7031130757,3.9927367146,-1.406212662\H,0,3.3862894247,2.6039736774,
 0.1336263954\H,0,4.1929136195,2.3944235582,-1.4347876858\H,0,3.4206851
 721,4.7797389172,-1.1325921019\H,0,2.5648306376,4.0148037209,-2.496132
 8426\H,0,1.7405145193,4.2141643119,-0.9271571249\\Version=ES64L-G16Rev
 A.03\State=6-A\HF=-3531.4600583\S2=8.761269\S2-1=0.\S2A=8.750039\RMSD=
 3.220e-09\Dipole=1.7143365,-2.6704396,-1.5128937\Quadrupole=-18.093108
 6,12.7148761,5.3782325,11.8491046,4.6857252,3.2287676\PG=C01 [X(C17H22
 Cl3Fe1O3)]\\@


 ACTORS ARE SO FORTUNATE.  THEY CAN CHOOSE WHETHER
 THEY WILL APPEAR IN A TRAGEDY OR IN COMEDY,
 WHETHER THEY WILL SUFFER OF MAKE MERRY,
 LAUGH OR SHED TEARS.  BUT IN REAL LIFE IT IS DIFFERENT.
 MOST MEN AND WOMEN ARE FORCED TO PERFORM
 PARTS FOR WHICH THEY HAVE NO QUALIFICATIONS.
 THE WORLD IS A STAGE, BUT THE PLAY IS BADLY CAST.

                                   -- OSCAR WILDE
 Job cpu time:       0 days  4 hours 37 minutes 42.6 seconds.
 Elapsed time:       0 days  0 hours 17 minutes 26.1 seconds.
 File lengths (MBytes):  RWF=    662 Int=      0 D2E=      0 Chk=     57 Scr=      1
 Normal termination of Gaussian 16 at Sun Jun 20 06:18:21 2021.
