
                                 *****************
                                 * O   R   C   A *
                                 *****************

           --- An Ab Initio, DFT and Semiempirical electronic structure package ---

                  #######################################################
                  #                        -***-                        #
                  #          Department of theory and spectroscopy      #
                  #               Directorship: Frank Neese             #
                  #        Max Planck Institute fuer Kohlenforschung    #
                  #                Kaiser Wilhelm Platz 1               #
                  #                 D-45470 Muelheim/Ruhr               #
                  #                      Germany                        #
                  #                                                     #
                  #                  All rights reserved                #
                  #                        -***-                        #
                  #######################################################


                         Program Version 4.1.2  - RELEASE  -


 With contributions from (in alphabetic order):
   Daniel Aravena         : Magnetic Properties
   Michael Atanasov       : Ab Initio Ligand Field Theory
   Alexander A. Auer      : GIAO ZORA
   Ute Becker             : Parallelization
   Giovanni Bistoni       : ED, Open-shell LED
   Martin Brehm           : Molecular dynamics
   Dmytro Bykov           : SCF Hessian
   Vijay G. Chilkuri      : MRCI spin determinant printing
   Dipayan Datta          : RHF DLPNO-CCSD density
   Achintya Kumar Dutta   : EOM-CC, STEOM-CC
   Dmitry Ganyushin       : Spin-Orbit,Spin-Spin,Magnetic field MRCI
   Miquel Garcia          : C-PCM Hessian
   Yang Guo               : DLPNO-NEVPT2, CIM, IAO-localization
   Andreas Hansen         : Spin unrestricted coupled pair/coupled cluster methods
   Benjamin Helmich-Paris : CASSCF linear response (MC-RPA)
   Lee Huntington         : MR-EOM, pCC
   Robert Izsak           : Overlap fitted RIJCOSX, COSX-SCS-MP3, EOM
   Christian Kollmar      : KDIIS, OOCD, Brueckner-CCSD(T), CCSD density
   Simone Kossmann        : Meta GGA functionals, TD-DFT gradient, OOMP2, MP2 Hessian
   Martin Krupicka        : AUTO-CI
   Lucas Lang             : DCDCAS
   Dagmar Lenk            : GEPOL surface, SMD
   Dimitrios Liakos       : Extrapolation schemes; parallel MDCI
   Dimitrios Manganas     : ROCIS; embedding schemes
   Dimitrios Pantazis     : SARC Basis sets
   Taras Petrenko         : DFT Hessian,TD-DFT gradient, ASA, ECA, R-Raman, ABS, FL, XAS/XES, NRVS
   Peter Pinski           : DLPNO-MP2, DLPNO-MP2 Gradient
   Christoph Reimann      : Effective Core Potentials
   Marius Retegan         : Local ZFS, SOC
   Christoph Riplinger    : Optimizer, TS searches, QM/MM, DLPNO-CCSD(T), (RO)-DLPNO pert. Triples
   Tobias Risthaus        : Range-separated hybrids, TD-DFT gradient, RPA, STAB
   Michael Roemelt        : Restricted open shell CIS
   Masaaki Saitow         : Open-shell DLPNO
   Barbara Sandhoefer     : DKH picture change effects
   Avijit Sen             : IP-ROCIS
   Kantharuban Sivalingam : CASSCF convergence, NEVPT2, FIC-MRCI
   Bernardo de Souza      : ESD, SOC TD-DFT
   Georgi Stoychev        : AutoAux, RI-MP2 NMR
   Willem Van den Heuvel  : Paramagnetic NMR
   Boris Wezisla          : Elementary symmetry handling
   Frank Wennmohs         : Technical directorship


 We gratefully acknowledge several colleagues who have allowed us to
 interface, adapt or use parts of their codes:
   Stefan Grimme, W. Hujo, H. Kruse,             : VdW corrections, initial TS optimization,
                  C. Bannwarth                     DFT functionals, gCP, sTDA/sTD-DF
   Ed Valeev                                     : LibInt (2-el integral package), F12 methods
   Garnet Chan, S. Sharma, J. Yang, R. Olivares  : DMRG
   Ulf Ekstrom                                   : XCFun DFT Library
   Mihaly Kallay                                 : mrcc  (arbitrary order and MRCC methods)
   Andreas Klamt, Michael Diedenhofen            : otool_cosmo (COSMO solvation model)
   Jiri Pittner, Ondrej Demel                    : Mk-CCSD
   Frank Weinhold                                : gennbo (NPA and NBO analysis)
   Christopher J. Cramer and Donald G. Truhlar   : smd solvation model
   Lars Goerigk                                  : TD-DFT with DH, B97 family of functionals
   V. Asgeirsson, H. Jonsson                     : NEB implementation
   FAccTs GmbH                                   : IRC, NEB, NEB-TS, Multilevel


 Your calculation uses the libint2 library for the computation of 2-el integrals
 For citations please refer to: http://libint.valeyev.net

 This ORCA versions uses:
   CBLAS   interface :  Fast vector & matrix operations
   LAPACKE interface :  Fast linear algebra routines
   SCALAPACK package :  Parallel linear algebra routines


----- Orbital basis set information -----
Your calculation utilizes the basis: aug-cc-pVTZ 
    H, B-Ne : Obtained from the ccRepo (grant-hill.group.shef.ac.uk/ccrepo) Feb. 2017
              R. A. Kendall, T. H. Dunning, Jr., R. J. Harrison, J. Chem. Phys. 96, 6796 (1992)
         He : Obtained from the ccRepo (grant-hill.group.shef.ac.uk/ccrepo) Feb. 2017
              D. E. Woon, T. H. Dunning, Jr., J. Chem. Phys. 100, 2975 (1994)
  Li-Be, Na : Obtained from the ccRepo (grant-hill.group.shef.ac.uk/ccrepo) Feb. 2017
              B. P. Prascher, D. E. Woon, K. A. Peterson, T. H. Dunning, Jr., A. K. Wilson, Theor. Chem. Acc. 128, 69 (2011)
         Mg : Obtained from the Peterson Research Group Website (tyr0.chem.wsu.edu/~kipeters) Feb. 2017
              B. P. Prascher, D. E. Woon, K. A. Peterson, T. H. Dunning, Jr., A. K. Wilson, Theor. Chem. Acc. 128, 69 (2011)
      Al-Ar : Obtained from the ccRepo (grant-hill.group.shef.ac.uk/ccrepo) Feb. 2017
              D. E. Woon, T. H. Dunning, Jr., J. Chem. Phys. 98, 1358 (1993)
      Sc-Zn : Obtained from the ccRepo (grant-hill.group.shef.ac.uk/ccrepo) Feb. 2017
              N. B. Balabanov, K. A. Peterson, J. Chem. Phys. 123, 064107 (2005)
              N. B. Balabanov, K. A. Peterson, J. Chem. Phys. 125, 074110 (2006)
      Ga-Kr : Obtained from the ccRepo (grant-hill.group.shef.ac.uk/ccrepo) Feb. 2017
              A. K. Wilson, D. E. Woon, K. A. Peterson, T. H. Dunning, Jr., J. Chem. Phys. 110, 7667 (1999)
     Ag, Au : Obtained from the Peterson Research Group Website (tyr0.chem.wsu.edu/~kipeters) Feb. 2017
              K. A. Peterson, C. Puzzarini, Theor. Chem. Acc. 114, 283 (2005)

----- AuxJ basis set information -----
Your calculation utilizes the AutoAux generation procedure.
  G. L. Stoychev, A. A. Auer, F. Neese, J. Chem. Theory Comput. 13, 554 (2017)

----- AuxC basis set information -----
Your calculation utilizes the auxiliary basis: aug-cc-pVTZ/C 
  H-He, B-F, Al-Ar, Ga-Kr : Obtained from the EMSL Basis Set Exchange (bse.pnl.gov) Feb. 2017
                            F. Weigend, A. Kohn, C. Hattig, J. Chem. Phys. 116, 3175 (2002)
                   Be, Mg : Obtained from the TURBOMOLE 7.0 basis set library
                            C. Haettig, Phys. Chem. Chem. Phys. 7, 59 (2005)
                       Ne : Obtained from the EMSL Basis Set Exchange (bse.pnl.gov) Feb. 2017
                            C. Haettig, Phys. Chem. Chem. Phys. 7, 59 (2005)
                            F. Weigend, A. Kohn, C. Hattig, J. Chem. Phys. 116, 3175 (2002)
                    Sc-Zn : Obtained from the EMSL Basis Set Exchange (bse.pnl.gov) Feb. 2017
                            J. G. Hill, J. A. Platts, J. Chem. Phys. 128, 044104 (2008)

----- AuxJK basis set information -----
Your calculation utilizes the AutoAux generation procedure.
  G. L. Stoychev, A. A. Auer, F. Neese, J. Chem. Theory Comput. 13, 554 (2017)

================================================================================
                                        WARNINGS
                       Please study these warnings very carefully!
================================================================================


WARNING: your system is open-shell and RHF/RKS was chosen
  ===> : WILL SWITCH to UHF/UKS


WARNING: MDCI localization with Augmented Hessian Foster-Boys
  ===> : Switching off randomization!

WARNING: Post HF methods need fully converged wavefunctions
  ===> : Setting SCFConvForced true
         You can overwrite this default with %scf ConvForced false 


INFO   : the flag for use of LIBINT has been found!

================================================================================
                                       INPUT FILE
================================================================================
NAME = simple-grid-165-200-b3lyp_d3bj-631gd-gas-singlepoint-DLPNO_CCSD_T1-NormalPNO-augtz-gas.inp
|  1> ! aug-cc-pVTZ aug-cc-pVTZ/C DLPNO-CCSD(T1) TightSCF NormalPNO UNO MiniPrint AutoAux
|  2> %pal nproc 10 end
|  3> %maxcore 20000
|  4> %mdci
|  5>      density none
|  6> end
|  7> 
|  8> * xyz 0 6
|  9>  O     -0.42356700     -0.16988600     -0.52275300
| 10>  C     -1.46727300     -1.17669600     -0.33127300
| 11>  C     -2.74155000     -0.13145100     -0.25263700
| 12>  C     -1.90674600      1.14610800     -0.26134900
| 13>  C     -1.82427200      1.94300300     -1.51242900
| 14> Fe      1.37599200      0.03136000      0.02889800
| 15> Cl      1.86787000      1.99337400     -0.85755900
| 16>  C     -1.56129300      1.83178600      1.01095600
| 17> Cl      2.42481000     -1.72845200     -0.74620900
| 18> Cl      1.39025900      0.14561300      2.23540200
| 19>  H     -3.28767300     -0.19832100     -1.19843300
| 20>  H     -2.43267100      2.44303300      1.29414100
| 21>  H     -1.35571700      1.13770100      1.82574000
| 22>  H     -0.70718300      2.49996100      0.87915900
| 23>  H     -2.64742100      2.67528900     -1.48959500
| 24>  H     -0.88039600      2.49226000     -1.56380100
| 25>  H     -1.94346000      1.32021900     -2.40039000
| 26>  C     -3.71498800     -0.30125000      0.90777200
| 27>  H     -4.48901600      0.47444000      0.88790300
| 28>  H     -4.21891100     -1.26927000      0.82676400
| 29>  H     -3.22031000     -0.26310600      1.88106500
| 30>  C     -1.22881500     -1.97386000      0.93827500
| 31>  H     -2.04679200     -2.68115700      1.10963800
| 32>  H     -0.30153800     -2.54742000      0.83279100
| 33>  H     -1.12184200     -1.33213800      1.81491000
| 34>  C     -1.51780600     -2.06036100     -1.56423100
| 35>  H     -0.57099600     -2.60131900     -1.66406400
| 36>  H     -2.33247900     -2.78938900     -1.48654900
| 37>  H     -1.66435900     -1.45981900     -2.46689500
| 38> *
| 39> 
| 40> 
| 41>                          ****END OF INPUT****
================================================================================

                       ****************************
                       * Single Point Calculation *
                       ****************************

---------------------------------
CARTESIAN COORDINATES (ANGSTROEM)
---------------------------------
  O     -0.423567   -0.169886   -0.522753
  C     -1.467273   -1.176696   -0.331273
  C     -2.741550   -0.131451   -0.252637
  C     -1.906746    1.146108   -0.261349
  C     -1.824272    1.943003   -1.512429
  Fe     1.375992    0.031360    0.028898
  Cl     1.867870    1.993374   -0.857559
  C     -1.561293    1.831786    1.010956
  Cl     2.424810   -1.728452   -0.746209
  Cl     1.390259    0.145613    2.235402
  H     -3.287673   -0.198321   -1.198433
  H     -2.432671    2.443033    1.294141
  H     -1.355717    1.137701    1.825740
  H     -0.707183    2.499961    0.879159
  H     -2.647421    2.675289   -1.489595
  H     -0.880396    2.492260   -1.563801
  H     -1.943460    1.320219   -2.400390
  C     -3.714988   -0.301250    0.907772
  H     -4.489016    0.474440    0.887903
  H     -4.218911   -1.269270    0.826764
  H     -3.220310   -0.263106    1.881065
  C     -1.228815   -1.973860    0.938275
  H     -2.046792   -2.681157    1.109638
  H     -0.301538   -2.547420    0.832791
  H     -1.121842   -1.332138    1.814910
  C     -1.517806   -2.060361   -1.564231
  H     -0.570996   -2.601319   -1.664064
  H     -2.332479   -2.789389   -1.486549
  H     -1.664359   -1.459819   -2.466895

----------------------------
CARTESIAN COORDINATES (A.U.)
----------------------------
  NO LB      ZA    FRAG     MASS         X           Y           Z
   0 O     8.0000    0    15.999   -0.800426   -0.321038   -0.987860
   1 C     6.0000    0    12.011   -2.772744   -2.223633   -0.626015
   2 C     6.0000    0    12.011   -5.180779   -0.248406   -0.477415
   3 C     6.0000    0    12.011   -3.603228    2.165830   -0.493878
   4 C     6.0000    0    12.011   -3.447374    3.671744   -2.858077
   5 Fe   26.0000    0    55.850    2.600248    0.059262    0.054609
   6 Cl   17.0000    0    35.453    3.529763    3.766931   -1.620552
   7 C     6.0000    0    12.011   -2.950416    3.461574    1.910430
   8 Cl   17.0000    0    35.453    4.582227   -3.266301   -1.410131
   9 Cl   17.0000    0    35.453    2.627209    0.275169    4.224298
  10 H     1.0000    0     1.008   -6.212802   -0.374772   -2.264710
  11 H     1.0000    0     1.008   -4.597082    4.616663    2.445572
  12 H     1.0000    0     1.008   -2.561934    2.149943    3.450149
  13 H     1.0000    0     1.008   -1.336382    4.724242    1.661370
  14 H     1.0000    0     1.008   -5.002901    5.055564   -2.814927
  15 H     1.0000    0     1.008   -1.663707    4.709689   -2.955156
  16 H     1.0000    0     1.008   -3.672607    2.494852   -4.536080
  17 C     6.0000    0    12.011   -7.020310   -0.569280    1.715440
  18 H     1.0000    0     1.008   -8.483011    0.896562    1.677894
  19 H     1.0000    0     1.008   -7.972586   -2.398573    1.562358
  20 H     1.0000    0     1.008   -6.085504   -0.497198    3.554698
  21 C     6.0000    0    12.011   -2.322124   -3.730055    1.773083
  22 H     1.0000    0     1.008   -3.867876   -5.066652    2.096912
  23 H     1.0000    0     1.008   -0.569824   -4.813926    1.573747
  24 H     1.0000    0     1.008   -2.119974   -2.517376    3.429683
  25 C     6.0000    0    12.011   -2.868238   -3.893518   -2.955968
  26 H     1.0000    0     1.008   -1.079026   -4.915780   -3.144625
  27 H     1.0000    0     1.008   -4.407747   -5.271181   -2.809170
  28 H     1.0000    0     1.008   -3.145183   -2.758658   -4.661756



           ************************************************************
           *        Program running with 10 parallel MPI-processes    *
           *              working on a common directory               *
           ************************************************************


           ************************************************************
           *        Program running with 10 parallel MPI-processes    *
           *              working on a common directory               *
           ************************************************************

Diagonalization of the overlap matrix:
Smallest eigenvalue                        ... 6.817e-07
Time for diagonalization                   ...    0.387 sec
Threshold for overlap eigenvalues          ... 1.000e-08
Number of eigenvalues below threshold      ... 0
Time for construction of square roots      ...    0.326 sec
Total time needed                          ...    0.721 sec

-------------------
DFT GRID GENERATION
-------------------

General Integration Accuracy     IntAcc      ...  4.340
Radial Grid Type                 RadialGrid  ... Gauss-Chebyshev
Angular Grid (max. acc.)         AngularGrid ... Lebedev-110
Angular grid pruning method      GridPruning ... 3 (G Style)
Weight generation scheme         WeightScheme... Becke
Basis function cutoff            BFCut       ...    1.0000e-11
Integration weight cutoff        WCut        ...    1.0000e-14
Grids for H and He will be reduced by one unit

# of grid points (after initial pruning)     ...  36112 (   0.0 sec)
# of grid points (after weights+screening)   ...  32234 (   0.1 sec)
nearest neighbour list constructed           ...    0.0 sec
Grid point re-assignment to atoms done       ...    0.0 sec
Grid point division into batches done        ...    0.0 sec
Reduced shell lists constructed in    0.3 sec

Total number of grid points                  ...    32234
Total number of batches                      ...      521
Average number of points per batch           ...       61
Average number of grid points per atom       ...     1112
Average number of shells per batch           ...   294.50 (85.86%)
Average number of basis functions per batch  ...   877.09 (85.57%)
Average number of large shells per batch     ...   243.48 (82.68%)
Average number of large basis fcns per batch ...   724.63 (82.62%)
Maximum spatial batch extension              ...   3.33,  2.91,  3.26 au
Average spatial batch extension              ...   0.17,  0.17,  0.16 au

Time for grid setup =    0.413 sec

Loading Hartree-Fock densities                     ... done
Calculating cut-offs                               ... done
Setting up the integral package                    ... done
Initializing the effective Hamiltonian             ... done
Starting the Coulomb interaction                   ... done (   1.2 sec)
Reading the grid                                   ... done
Mapping shells                                     ... done
Starting the XC term evaluation                    ... done (   0.9 sec)
Transforming the Hamiltonian                       ... done (   0.2 sec)
Diagonalizing the Hamiltonian                      ... done (   0.4 sec)
Back transforming the eigenvectors                 ... done (   0.1 sec)
Now organizing SCF variables                       ... done
--------------
SCF ITERATIONS
--------------
ITER       Energy         Delta-E        Max-DP      RMS-DP      [F,P]     Damp
               ***  Starting incremental Fock matrix formation  ***
  0  -3027.5857207553   0.000000000000 0.36351807  0.00129024  0.2445342 0.7000
  1  -3027.8330198469  -0.247299091537 0.25321863  0.00099349  0.1526889 0.7000
                               ***Turning on DIIS***
  2  -3028.0000101931  -0.166990346213 0.16975781  0.00072275  0.1097080 0.7000
  3  -3029.6398514789  -1.639841285818 0.34189660  0.00177740  0.0816770 0.0000
  4  -3028.3093187490   1.330532729882 0.04889046  0.00022845  0.0192952 0.0000
  5  -3028.4313532147  -0.122034465657 0.03962765  0.00017619  0.0121423 0.0000
  6  -3028.4470702143  -0.015716999614 0.01996352  0.00006965  0.0056524 0.0000
  7  -3028.4713978491  -0.024327634782 0.00964875  0.00003356  0.0034796 0.0000
  8  -3028.4679164338   0.003481415272 0.00586874  0.00001868  0.0015355 0.0000
  9  -3028.4594011279   0.008515305856 0.00246219  0.00001106  0.0007624 0.0000
 10  -3028.4517749850   0.007626142935 0.00086905  0.00000330  0.0003618 0.0000
 11  -3028.4562812330  -0.004506247970 0.00023912  0.00000167  0.0001208 0.0000
 12  -3028.4528759528   0.003405280164 0.00046341  0.00000150  0.0000297 0.0000
 13  -3028.4530465629  -0.000170610133 0.00161105  0.00000287  0.0000148 0.0000
 14  -3028.4530080567   0.000038506288 0.00177034  0.00000366  0.0000111 0.0000
 15  -3028.4529666985   0.000041358104 0.00210135  0.00000371  0.0000085 0.0000
 16  -3028.4530017483  -0.000035049767 0.00178443  0.00000377  0.0000063 0.0000
 17  -3028.4529889940   0.000012754277 0.00170993  0.00000307  0.0000037 0.0000
 18  -3028.4529905780  -0.000001583914 0.00188334  0.00000350  0.0000020 0.0000
                            ***DIIS convergence achieved***

               *****************************************************
               *                     SUCCESS                       *
               *           SCF CONVERGED AFTER  19 CYCLES          *
               *****************************************************

Total Energy       :        -3028.45301163 Eh          -82408.39601 eV
  Last Energy change         ...   -2.1051e-05  Tolerance :   1.0000e-08
  Last MAX-Density change    ...    1.1700e-03  Tolerance :   1.0000e-07
             **** THE GBW FILE WAS UPDATED (simple-grid-165-200-b3lyp_d3bj-631gd-gas-singlepoint-DLPNO_CCSD_T1-NormalPNO-augtz-gas.gbw) ****
             **** DENSITY FILE WAS UPDATED (simple-grid-165-200-b3lyp_d3bj-631gd-gas-singlepoint-DLPNO_CCSD_T1-NormalPNO-augtz-gas.scfp.tmp) ****
             **** ENERGY FILE WAS UPDATED (simple-grid-165-200-b3lyp_d3bj-631gd-gas-singlepoint-DLPNO_CCSD_T1-NormalPNO-augtz-gas.en.tmp) ****
----------------------
UHF SPIN CONTAMINATION
----------------------

Expectation value of <S**2>     :     8.764613
Ideal value S*(S+1) for S=2.5   :     8.750000
Deviation                       :     0.014613

----------------
ORBITAL ENERGIES
----------------
                 SPIN UP ORBITALS
  NO   OCC          E(Eh)            E(eV) 
   0   1.0000    -261.551656     -7117.1824 
   1   1.0000    -104.778667     -2851.1725 
   2   1.0000    -104.776859     -2851.1233 
   3   1.0000    -104.775093     -2851.0752 
   4   1.0000     -32.219584      -876.7394 
   5   1.0000     -27.695566      -753.6347 
   6   1.0000     -27.695252      -753.6261 
   7   1.0000     -27.694956      -753.6181 
   8   1.0000     -20.568569      -559.6992 
   9   1.0000     -11.400606      -310.2263 
  10   1.0000     -11.335164      -308.4455 
  11   1.0000     -11.291969      -307.2701 
  12   1.0000     -11.276070      -306.8375 
  13   1.0000     -11.275146      -306.8123 
  14   1.0000     -11.263030      -306.4826 
  15   1.0000     -11.236671      -305.7654 
  16   1.0000     -11.235801      -305.7417 
  17   1.0000     -10.505291      -285.8635 
  18   1.0000     -10.503565      -285.8165 
  19   1.0000     -10.501735      -285.7668 
  20   1.0000      -7.972118      -216.9324 
  21   1.0000      -7.971381      -216.9123 
  22   1.0000      -7.971304      -216.9102 
  23   1.0000      -7.970443      -216.8868 
  24   1.0000      -7.969611      -216.8641 
  25   1.0000      -7.969586      -216.8635 
  26   1.0000      -7.968536      -216.8349 
  27   1.0000      -7.967855      -216.8164 
  28   1.0000      -7.967783      -216.8144 
  29   1.0000      -4.574928      -124.4901 
  30   1.0000      -3.187359       -86.7324 
  31   1.0000      -3.187047       -86.7240 
  32   1.0000      -3.186487       -86.7087 
  33   1.0000      -1.360101       -37.0102 
  34   1.0000      -1.164471       -31.6869 
  35   1.0000      -1.092619       -29.7317 
  36   1.0000      -1.050419       -28.5833 
  37   1.0000      -1.044879       -28.4326 
  38   1.0000      -1.042898       -28.3787 
  39   1.0000      -1.035023       -28.1644 
  40   1.0000      -1.009842       -27.4792 
  41   1.0000      -0.964967       -26.2581 
  42   1.0000      -0.932982       -25.3877 
  43   1.0000      -0.904707       -24.6183 
  44   1.0000      -0.904222       -24.6051 
  45   1.0000      -0.902407       -24.5558 
  46   1.0000      -0.895712       -24.3736 
  47   1.0000      -0.895079       -24.3563 
  48   1.0000      -0.801132       -21.7999 
  49   1.0000      -0.757027       -20.5997 
  50   1.0000      -0.696408       -18.9502 
  51   1.0000      -0.688336       -18.7306 
  52   1.0000      -0.669939       -18.2300 
  53   1.0000      -0.635396       -17.2900 
  54   1.0000      -0.630963       -17.1694 
  55   1.0000      -0.619103       -16.8466 
  56   1.0000      -0.600835       -16.3495 
  57   1.0000      -0.594342       -16.1729 
  58   1.0000      -0.590494       -16.0682 
  59   1.0000      -0.582614       -15.8537 
  60   1.0000      -0.571537       -15.5523 
  61   1.0000      -0.559270       -15.2185 
  62   1.0000      -0.543498       -14.7893 
  63   1.0000      -0.535953       -14.5840 
  64   1.0000      -0.528948       -14.3934 
  65   1.0000      -0.518362       -14.1053 
  66   1.0000      -0.505109       -13.7447 
  67   1.0000      -0.477979       -13.0065 
  68   1.0000      -0.468420       -12.7463 
  69   1.0000      -0.455144       -12.3851 
  70   1.0000      -0.445104       -12.1119 
  71   1.0000      -0.429283       -11.6814 
  72   1.0000      -0.425175       -11.5696 
  73   1.0000      -0.420441       -11.4408 
  74   1.0000      -0.417274       -11.3546 
  75   1.0000      -0.415535       -11.3073 
  76   1.0000      -0.414538       -11.2801 
  77   0.0000       0.008042         0.2188 
  78   0.0000       0.020413         0.5555 
  79   0.0000       0.022588         0.6146 
  80   0.0000       0.030832         0.8390 
  81   0.0000       0.037622         1.0237 
  82   0.0000       0.040849         1.1116 
  83   0.0000       0.043103         1.1729 
  84   0.0000       0.043787         1.1915 
  85   0.0000       0.045602         1.2409 
  86   0.0000       0.055383         1.5071 
  87   0.0000       0.057141         1.5549 
  88   0.0000       0.060841         1.6556 
  89   0.0000       0.063351         1.7239 
  90   0.0000       0.064988         1.7684 
  91   0.0000       0.066120         1.7992 
  92   0.0000       0.070664         1.9229 
  93   0.0000       0.072729         1.9791 
  94   0.0000       0.082949         2.2572 
  95   0.0000       0.087071         2.3693 
  96   0.0000       0.089757         2.4424 
  97   0.0000       0.090655         2.4668 
  98   0.0000       0.094070         2.5598 
  99   0.0000       0.101146         2.7523 
 100   0.0000       0.103212         2.8085 
 101   0.0000       0.110890         3.0175 
 102   0.0000       0.116230         3.1628 
 103   0.0000       0.118144         3.2149 
 104   0.0000       0.122434         3.3316 
 105   0.0000       0.125083         3.4037 
 106   0.0000       0.127883         3.4799 
 107   0.0000       0.129469         3.5230 
 108   0.0000       0.131203         3.5702 
 109   0.0000       0.132323         3.6007 
 110   0.0000       0.136265         3.7080 
 111   0.0000       0.137319         3.7366 
 112   0.0000       0.146532         3.9873 
 113   0.0000       0.147552         4.0151 
 114   0.0000       0.149739         4.0746 
 115   0.0000       0.153478         4.1763 
 116   0.0000       0.157193         4.2774 
 117   0.0000       0.158495         4.3129 
 118   0.0000       0.163813         4.4576 
 119   0.0000       0.166587         4.5331 
 120   0.0000       0.172236         4.6868 
 121   0.0000       0.174399         4.7456 
 122   0.0000       0.178638         4.8610 
 123   0.0000       0.183010         4.9800 
 124   0.0000       0.185707         5.0533 
 125   0.0000       0.189315         5.1515 
 126   0.0000       0.194532         5.2935 
 127   0.0000       0.195483         5.3194 
 128   0.0000       0.196796         5.3551 
 129   0.0000       0.199954         5.4410 
 130   0.0000       0.202750         5.5171 
 131   0.0000       0.204494         5.5646 
 132   0.0000       0.207057         5.6343 
 133   0.0000       0.211289         5.7495 
 134   0.0000       0.213614         5.8127 
 135   0.0000       0.220215         5.9924 
 136   0.0000       0.221980         6.0404 
 137   0.0000       0.227694         6.1959 
 138   0.0000       0.228741         6.2244 
 139   0.0000       0.232465         6.3257 
 140   0.0000       0.240895         6.5551 
 141   0.0000       0.242336         6.5943 
 142   0.0000       0.245170         6.6714 
 143   0.0000       0.249685         6.7943 
 144   0.0000       0.251232         6.8364 
 145   0.0000       0.252730         6.8771 
 146   0.0000       0.254774         6.9327 
 147   0.0000       0.258221         7.0266 
 148   0.0000       0.260417         7.0863 
 149   0.0000       0.264368         7.1938 
 150   0.0000       0.270245         7.3537 
 151   0.0000       0.273849         7.4518 
 152   0.0000       0.275087         7.4855 
 153   0.0000       0.279537         7.6066 
 154   0.0000       0.283643         7.7183 
 155   0.0000       0.286471         7.7953 
 156   0.0000       0.290194         7.8966 
 157   0.0000       0.296979         8.0812 
 158   0.0000       0.300522         8.1776 
 159   0.0000       0.302434         8.2296 
 160   0.0000       0.306326         8.3356 
 161   0.0000       0.308895         8.4055 
 162   0.0000       0.312109         8.4929 
 163   0.0000       0.320531         8.7221 
 164   0.0000       0.324027         8.8172 
 165   0.0000       0.329984         8.9793 
 166   0.0000       0.330284         8.9875 
 167   0.0000       0.339028         9.2254 
 168   0.0000       0.345802         9.4098 
 169   0.0000       0.348505         9.4833 
 170   0.0000       0.351658         9.5691 
 171   0.0000       0.353287         9.6134 
 172   0.0000       0.360598         9.8124 
 173   0.0000       0.362046         9.8518 
 174   0.0000       0.363316         9.8863 
 175   0.0000       0.364743         9.9252 
 176   0.0000       0.368506        10.0276 
 177   0.0000       0.374915        10.2020 
 178   0.0000       0.376857        10.2548 
 179   0.0000       0.378524        10.3002 
 180   0.0000       0.383039        10.4230 
 181   0.0000       0.384028        10.4499 
 182   0.0000       0.388077        10.5601 
 183   0.0000       0.393387        10.7046 
 184   0.0000       0.396758        10.7963 
 185   0.0000       0.397792        10.8245 
 186   0.0000       0.402402        10.9499 
 187   0.0000       0.403355        10.9758 
 188   0.0000       0.406370        11.0579 
 189   0.0000       0.408816        11.1244 
 190   0.0000       0.412692        11.2299 
 191   0.0000       0.419677        11.4200 
 192   0.0000       0.422088        11.4856 
 193   0.0000       0.424241        11.5442 
 194   0.0000       0.429844        11.6967 
 195   0.0000       0.432389        11.7659 
 196   0.0000       0.433289        11.7904 
 197   0.0000       0.437534        11.9059 
 198   0.0000       0.443399        12.0655 
 199   0.0000       0.446187        12.1414 
 200   0.0000       0.454590        12.3700 
 201   0.0000       0.458338        12.4720 
 202   0.0000       0.461647        12.5620 
 203   0.0000       0.464364        12.6360 
 204   0.0000       0.466006        12.6807 
 205   0.0000       0.469184        12.7671 
 206   0.0000       0.470005        12.7895 
 207   0.0000       0.472861        12.8672 
 208   0.0000       0.476047        12.9539 
 209   0.0000       0.477292        12.9878 
 210   0.0000       0.482047        13.1172 
 211   0.0000       0.485592        13.2136 
 212   0.0000       0.487205        13.2575 
 213   0.0000       0.489846        13.3294 
 214   0.0000       0.491500        13.3744 
 215   0.0000       0.498471        13.5641 
 216   0.0000       0.498983        13.5780 
 217   0.0000       0.501998        13.6601 
 218   0.0000       0.506376        13.7792 
 219   0.0000       0.508443        13.8354 
 220   0.0000       0.512316        13.9408 
 221   0.0000       0.519391        14.1333 
 222   0.0000       0.523452        14.2438 
 223   0.0000       0.526169        14.3178 
 224   0.0000       0.529209        14.4005 
 225   0.0000       0.529810        14.4169 
 226   0.0000       0.533710        14.5230 
 227   0.0000       0.536730        14.6052 
 228   0.0000       0.543893        14.8001 
 229   0.0000       0.544932        14.8284 
 230   0.0000       0.548506        14.9256 
 231   0.0000       0.555508        15.1161 
 232   0.0000       0.560067        15.2402 
 233   0.0000       0.564821        15.3696 
 234   0.0000       0.569209        15.4890 
 235   0.0000       0.573441        15.6041 
 236   0.0000       0.577160        15.7053 
 237   0.0000       0.578141        15.7320 
 238   0.0000       0.580975        15.8091 
 239   0.0000       0.581813        15.8320 
 240   0.0000       0.585316        15.9273 
 241   0.0000       0.590340        16.0640 
 242   0.0000       0.593288        16.1442 
 243   0.0000       0.594071        16.1655 
 244   0.0000       0.601433        16.3658 
 245   0.0000       0.602995        16.4083 
 246   0.0000       0.604816        16.4579 
 247   0.0000       0.610903        16.6235 
 248   0.0000       0.614028        16.7085 
 249   0.0000       0.621373        16.9084 
 250   0.0000       0.621783        16.9196 
 251   0.0000       0.624761        17.0006 
 252   0.0000       0.631598        17.1867 
 253   0.0000       0.637639        17.3510 
 254   0.0000       0.638167        17.3654 
 255   0.0000       0.642272        17.4771 
 256   0.0000       0.645694        17.5702 
 257   0.0000       0.653650        17.7867 
 258   0.0000       0.655948        17.8493 
 259   0.0000       0.661069        17.9886 
 260   0.0000       0.663652        18.0589 
 261   0.0000       0.665211        18.1013 
 262   0.0000       0.668251        18.1840 
 263   0.0000       0.676282        18.4026 
 264   0.0000       0.680831        18.5264 
 265   0.0000       0.687307        18.7026 
 266   0.0000       0.688729        18.7413 
 267   0.0000       0.692007        18.8305 
 268   0.0000       0.695484        18.9251 
 269   0.0000       0.698071        18.9955 
 270   0.0000       0.703902        19.1542 
 271   0.0000       0.710860        19.3435 
 272   0.0000       0.713427        19.4133 
 273   0.0000       0.717968        19.5369 
 274   0.0000       0.721117        19.6226 
 275   0.0000       0.727848        19.8058 
 276   0.0000       0.729968        19.8634 
 277   0.0000       0.737413        20.0660 
 278   0.0000       0.741303        20.1719 
 279   0.0000       0.749982        20.4081 
 280   0.0000       0.751741        20.4559 
 281   0.0000       0.759605        20.6699 
 282   0.0000       0.769542        20.9403 
 283   0.0000       0.772874        21.0310 
 284   0.0000       0.777341        21.1525 
 285   0.0000       0.779086        21.2000 
 286   0.0000       0.786323        21.3969 
 287   0.0000       0.792124        21.5548 
 288   0.0000       0.798053        21.7161 
 289   0.0000       0.804039        21.8790 
 290   0.0000       0.805506        21.9189 
 291   0.0000       0.813822        22.1452 
 292   0.0000       0.823674        22.4133 
 293   0.0000       0.825681        22.4679 
 294   0.0000       0.831901        22.6372 
 295   0.0000       0.833068        22.6689 
 296   0.0000       0.838974        22.8296 
 297   0.0000       0.848742        23.0955 
 298   0.0000       0.852874        23.2079 
 299   0.0000       0.858326        23.3562 
 300   0.0000       0.863540        23.4981 
 301   0.0000       0.868057        23.6210 
 302   0.0000       0.869718        23.6662 
 303   0.0000       0.876373        23.8473 
 304   0.0000       0.877787        23.8858 
 305   0.0000       0.883306        24.0360 
 306   0.0000       0.886869        24.1329 
 307   0.0000       0.891635        24.2626 
 308   0.0000       0.899492        24.4764 
 309   0.0000       0.905606        24.6428 
 310   0.0000       0.910882        24.7864 
 311   0.0000       0.914497        24.8847 
 312   0.0000       0.917945        24.9785 
 313   0.0000       0.919745        25.0275 
 314   0.0000       0.920489        25.0478 
 315   0.0000       0.928035        25.2531 
 316   0.0000       0.932783        25.3823 
 317   0.0000       0.934800        25.4372 
 318   0.0000       0.939904        25.5761 
 319   0.0000       0.941976        25.6325 
 320   0.0000       0.950142        25.8547 
 321   0.0000       0.950501        25.8644 
 322   0.0000       0.951928        25.9033 
 323   0.0000       0.958365        26.0784 
 324   0.0000       0.963479        26.2176 
 325   0.0000       0.965515        26.2730 
 326   0.0000       0.969083        26.3701 
 327   0.0000       0.973047        26.4780 
 328   0.0000       0.977131        26.5891 
 329   0.0000       0.977904        26.6101 
 330   0.0000       0.984005        26.7761 
 331   0.0000       0.989743        26.9323 
 332   0.0000       0.992750        27.0141 
 333   0.0000       0.997316        27.1383 
 334   0.0000       1.000376        27.2216 
 335   0.0000       1.003853        27.3162 
 336   0.0000       1.005495        27.3609 
 337   0.0000       1.009342        27.4656 
 338   0.0000       1.012799        27.5597 
 339   0.0000       1.018961        27.7273 
 340   0.0000       1.021146        27.7868 
 341   0.0000       1.023203        27.8428 
 342   0.0000       1.032201        28.0876 
 343   0.0000       1.035442        28.1758 
 344   0.0000       1.036438        28.2029 
 345   0.0000       1.039462        28.2852 
 346   0.0000       1.043500        28.3951 
 347   0.0000       1.046876        28.4869 
 348   0.0000       1.049544        28.5596 
 349   0.0000       1.055274        28.7155 
 350   0.0000       1.057812        28.7845 
 351   0.0000       1.062747        28.9188 
 352   0.0000       1.065905        29.0048 
 353   0.0000       1.067750        29.0550 
 354   0.0000       1.070159        29.1205 
 355   0.0000       1.074366        29.2350 
 356   0.0000       1.080284        29.3960 
 357   0.0000       1.083838        29.4927 
 358   0.0000       1.091677        29.7060 
 359   0.0000       1.095984        29.8233 
 360   0.0000       1.099269        29.9126 
 361   0.0000       1.102252        29.9938 
 362   0.0000       1.105561        30.0839 
 363   0.0000       1.109767        30.1983 
 364   0.0000       1.117839        30.4179 
 365   0.0000       1.120988        30.5036 
 366   0.0000       1.126251        30.6469 
 367   0.0000       1.132835        30.8260 
 368   0.0000       1.135075        30.8870 
 369   0.0000       1.139907        31.0185 
 370   0.0000       1.142874        31.0992 
 371   0.0000       1.145296        31.1651 
 372   0.0000       1.149760        31.2866 
 373   0.0000       1.153585        31.3906 
 374   0.0000       1.157054        31.4850 
 375   0.0000       1.160665        31.5833 
 376   0.0000       1.164875        31.6979 
 377   0.0000       1.169361        31.8199 
 378   0.0000       1.173392        31.9296 
 379   0.0000       1.182356        32.1736 
 380   0.0000       1.187575        32.3156 
 381   0.0000       1.190737        32.4016 
 382   0.0000       1.192538        32.4506 
 383   0.0000       1.204930        32.7878 
 384   0.0000       1.206421        32.8284 
 385   0.0000       1.207629        32.8613 
 386   0.0000       1.210838        32.9486 
 387   0.0000       1.216609        33.1056 
 388   0.0000       1.216721        33.1087 
 389   0.0000       1.222087        33.2547 
 390   0.0000       1.223655        33.2973 
 391   0.0000       1.233480        33.5647 
 392   0.0000       1.236990        33.6602 
 393   0.0000       1.239703        33.7340 
 394   0.0000       1.243893        33.8480 
 395   0.0000       1.248620        33.9767 
 396   0.0000       1.256404        34.1885 
 397   0.0000       1.259453        34.2715 
 398   0.0000       1.263264        34.3752 
 399   0.0000       1.269163        34.5357 
 400   0.0000       1.274271        34.6747 
 401   0.0000       1.285292        34.9746 
 402   0.0000       1.291173        35.1346 
 403   0.0000       1.294497        35.2251 
 404   0.0000       1.299423        35.3591 
 405   0.0000       1.306083        35.5403 
 406   0.0000       1.311177        35.6790 
 407   0.0000       1.319568        35.9073 
 408   0.0000       1.323749        36.0211 
 409   0.0000       1.324821        36.0502 
 410   0.0000       1.331500        36.2320 
 411   0.0000       1.333514        36.2868 
 412   0.0000       1.338263        36.4160 
 413   0.0000       1.347231        36.6600 
 414   0.0000       1.351078        36.7647 
 415   0.0000       1.354871        36.8679 
 416   0.0000       1.365427        37.1551 
 417   0.0000       1.370968        37.3059 
 418   0.0000       1.382052        37.6076 
 419   0.0000       1.387484        37.7554 
 420   0.0000       1.391894        37.8754 
 421   0.0000       1.392555        37.8933 
 422   0.0000       1.401021        38.1237 
 423   0.0000       1.402800        38.1721 
 424   0.0000       1.405998        38.2592 
 425   0.0000       1.416957        38.5574 
 426   0.0000       1.420187        38.6453 
 427   0.0000       1.427051        38.8320 
 428   0.0000       1.433197        38.9993 
 429   0.0000       1.439338        39.1664 
 430   0.0000       1.444644        39.3108 
 431   0.0000       1.450640        39.4739 
 432   0.0000       1.457278        39.6546 
 433   0.0000       1.461854        39.7791 
 434   0.0000       1.464380        39.8478 
 435   0.0000       1.470092        40.0032 
 436   0.0000       1.471883        40.0520 
 437   0.0000       1.475540        40.1515 
 438   0.0000       1.483298        40.3626 
 439   0.0000       1.487804        40.4852 
 440   0.0000       1.489578        40.5335 
 441   0.0000       1.496245        40.7149 
 442   0.0000       1.502685        40.8901 
 443   0.0000       1.505421        40.9646 
 444   0.0000       1.516065        41.2542 
 445   0.0000       1.521242        41.3951 
 446   0.0000       1.523502        41.4566 
 447   0.0000       1.527278        41.5594 
 448   0.0000       1.532254        41.6947 
 449   0.0000       1.537214        41.8297 
 450   0.0000       1.541210        41.9385 
 451   0.0000       1.551251        42.2117 
 452   0.0000       1.557831        42.3907 
 453   0.0000       1.560520        42.4639 
 454   0.0000       1.565337        42.5950 
 455   0.0000       1.568393        42.6781 
 456   0.0000       1.571780        42.7703 
 457   0.0000       1.576629        42.9023 
 458   0.0000       1.583058        43.0772 
 459   0.0000       1.586176        43.1620 
 460   0.0000       1.590002        43.2661 
 461   0.0000       1.595047        43.4034 
 462   0.0000       1.607580        43.7445 
 463   0.0000       1.613047        43.8932 
 464   0.0000       1.618453        44.0404 
 465   0.0000       1.625795        44.2401 
 466   0.0000       1.636667        44.5360 
 467   0.0000       1.637994        44.5721 
 468   0.0000       1.644055        44.7370 
 469   0.0000       1.644793        44.7571 
 470   0.0000       1.653512        44.9943 
 471   0.0000       1.658616        45.1332 
 472   0.0000       1.663591        45.2686 
 473   0.0000       1.668429        45.4003 
 474   0.0000       1.675606        45.5955 
 475   0.0000       1.679831        45.7105 
 476   0.0000       1.687903        45.9302 
 477   0.0000       1.695675        46.1417 
 478   0.0000       1.697377        46.1880 
 479   0.0000       1.705435        46.4072 
 480   0.0000       1.709364        46.5142 
 481   0.0000       1.712408        46.5970 
 482   0.0000       1.719885        46.8004 
 483   0.0000       1.726141        46.9707 
 484   0.0000       1.726559        46.9821 
 485   0.0000       1.734627        47.2016 
 486   0.0000       1.742352        47.4118 
 487   0.0000       1.744672        47.4749 
 488   0.0000       1.749860        47.6161 
 489   0.0000       1.753720        47.7211 
 490   0.0000       1.756976        47.8098 
 491   0.0000       1.760521        47.9062 
 492   0.0000       1.764940        48.0265 
 493   0.0000       1.768953        48.1357 
 494   0.0000       1.778194        48.3871 
 495   0.0000       1.780966        48.4625 
 496   0.0000       1.786672        48.6178 
 497   0.0000       1.789570        48.6967 
 498   0.0000       1.794928        48.8425 
 499   0.0000       1.797852        48.9220 
 500   0.0000       1.808995        49.2252 
 501   0.0000       1.812198        49.3124 
 502   0.0000       1.815008        49.3889 
 503   0.0000       1.818540        49.4850 
 504   0.0000       1.829416        49.7809 
 505   0.0000       1.829677        49.7880 
 506   0.0000       1.835313        49.9414 
 507   0.0000       1.842743        50.1436 
 508   0.0000       1.845502        50.2187 
 509   0.0000       1.853572        50.4383 
 510   0.0000       1.860784        50.6345 
 511   0.0000       1.864412        50.7332 
 512   0.0000       1.868220        50.8368 
 513   0.0000       1.876271        51.0559 
 514   0.0000       1.876852        51.0717 
 515   0.0000       1.883299        51.2472 
 516   0.0000       1.891078        51.4589 
 517   0.0000       1.895451        51.5778 
 518   0.0000       1.898178        51.6520 
 519   0.0000       1.902199        51.7615 
 520   0.0000       1.909727        51.9663 
 521   0.0000       1.914193        52.0878 
 522   0.0000       1.918841        52.2143 
 523   0.0000       1.924569        52.3702 
 524   0.0000       1.930225        52.5241 
 525   0.0000       1.936071        52.6832 
 526   0.0000       1.941504        52.8310 
 527   0.0000       1.945817        52.9484 
 528   0.0000       1.951887        53.1135 
 529   0.0000       1.953979        53.1705 
 530   0.0000       1.964930        53.4685 
 531   0.0000       1.968435        53.5638 
 532   0.0000       1.977919        53.8219 
 533   0.0000       1.985855        54.0378 
 534   0.0000       1.986262        54.0489 
 535   0.0000       1.996474        54.3268 
 536   0.0000       2.003847        54.5275 
 537   0.0000       2.013091        54.7790 
 538   0.0000       2.014085        54.8060 
 539   0.0000       2.020610        54.9836 
 540   0.0000       2.027912        55.1823 
 541   0.0000       2.036249        55.4092 
 542   0.0000       2.040673        55.5295 
 543   0.0000       2.043605        55.6093 
 544   0.0000       2.052056        55.8393 
 545   0.0000       2.055783        55.9407 
 546   0.0000       2.061711        56.1020 
 547   0.0000       2.071844        56.3778 
 548   0.0000       2.074396        56.4472 
 549   0.0000       2.077171        56.5227 
 550   0.0000       2.091371        56.9091 
 551   0.0000       2.103485        57.2387 
 552   0.0000       2.104558        57.2679 
 553   0.0000       2.119787        57.6823 
 554   0.0000       2.126984        57.8782 
 555   0.0000       2.130908        57.9849 
 556   0.0000       2.135935        58.1217 
 557   0.0000       2.146803        58.4175 
 558   0.0000       2.151058        58.5333 
 559   0.0000       2.166190        58.9450 
 560   0.0000       2.172442        59.1152 
 561   0.0000       2.179289        59.3015 
 562   0.0000       2.183432        59.4142 
 563   0.0000       2.190141        59.5968 
 564   0.0000       2.199879        59.8618 
 565   0.0000       2.204266        59.9811 
 566   0.0000       2.210123        60.1405 
 567   0.0000       2.215477        60.2862 
 568   0.0000       2.218122        60.3582 
 569   0.0000       2.230285        60.6892 
 570   0.0000       2.233264        60.7702 
 571   0.0000       2.239792        60.9478 
 572   0.0000       2.248302        61.1794 
 573   0.0000       2.251432        61.2646 
 574   0.0000       2.253138        61.3110 
 575   0.0000       2.265344        61.6431 
 576   0.0000       2.274943        61.9043 
 577   0.0000       2.281095        62.0717 
 578   0.0000       2.289570        62.3024 
 579   0.0000       2.299845        62.5820 
 580   0.0000       2.309286        62.8389 
 581   0.0000       2.314717        62.9866 
 582   0.0000       2.316462        63.0341 
 583   0.0000       2.326165        63.2982 
 584   0.0000       2.336741        63.5859 
 585   0.0000       2.338916        63.6451 
 586   0.0000       2.351907        63.9986 
 587   0.0000       2.359281        64.1993 
 588   0.0000       2.365630        64.3721 
 589   0.0000       2.371109        64.5212 
 590   0.0000       2.379173        64.7406 
 591   0.0000       2.380596        64.7793 
 592   0.0000       2.387005        64.9537 
 593   0.0000       2.390012        65.0355 
 594   0.0000       2.395459        65.1838 
 595   0.0000       2.409844        65.5752 
 596   0.0000       2.421438        65.8907 
 597   0.0000       2.436016        66.2874 
 598   0.0000       2.437626        66.3312 
 599   0.0000       2.445071        66.5338 
 600   0.0000       2.458500        66.8992 
 601   0.0000       2.462658        67.0123 
 602   0.0000       2.467405        67.1415 
 603   0.0000       2.480312        67.4927 
 604   0.0000       2.489755        67.7497 
 605   0.0000       2.501885        68.0797 
 606   0.0000       2.513418        68.3936 
 607   0.0000       2.522803        68.6490 
 608   0.0000       2.533823        68.9488 
 609   0.0000       2.540123        69.1203 
 610   0.0000       2.553758        69.4913 
 611   0.0000       2.568765        69.8997 
 612   0.0000       2.585898        70.3659 
 613   0.0000       2.597612        70.6846 
 614   0.0000       2.614373        71.1407 
 615   0.0000       2.622273        71.3557 
 616   0.0000       2.639075        71.8129 
 617   0.0000       2.651956        72.1634 
 618   0.0000       2.660142        72.3861 
 619   0.0000       2.664313        72.4996 
 620   0.0000       2.677436        72.8567 
 621   0.0000       2.682775        73.0020 
 622   0.0000       2.691816        73.2480 
 623   0.0000       2.701682        73.5165 
 624   0.0000       2.708895        73.7128 
 625   0.0000       2.721021        74.0428 
 626   0.0000       2.727977        74.2320 
 627   0.0000       2.731060        74.3159 
 628   0.0000       2.739811        74.5540 
 629   0.0000       2.742108        74.6166 
 630   0.0000       2.749746        74.8244 
 631   0.0000       2.764934        75.2377 
 632   0.0000       2.775853        75.5348 
 633   0.0000       2.787960        75.8642 
 634   0.0000       2.797260        76.1173 
 635   0.0000       2.806091        76.3576 
 636   0.0000       2.820146        76.7401 
 637   0.0000       2.834172        77.1217 
 638   0.0000       2.843569        77.3774 
 639   0.0000       2.847603        77.4872 
 640   0.0000       2.865813        77.9827 
 641   0.0000       2.880109        78.3717 
 642   0.0000       2.899960        78.9119 
 643   0.0000       2.909782        79.1792 
 644   0.0000       2.915917        79.3461 
 645   0.0000       2.933678        79.8294 
 646   0.0000       2.941141        80.0325 
 647   0.0000       2.964765        80.6754 
 648   0.0000       2.972054        80.8737 
 649   0.0000       2.974490        80.9400 
 650   0.0000       2.979586        81.0786 
 651   0.0000       3.012392        81.9714 
 652   0.0000       3.022743        82.2530 
 653   0.0000       3.045199        82.8641 
 654   0.0000       3.048968        82.9666 
 655   0.0000       3.066408        83.4412 
 656   0.0000       3.099323        84.3369 
 657   0.0000       3.103581        84.4527 
 658   0.0000       3.111150        84.6587 
 659   0.0000       3.124033        85.0092 
 660   0.0000       3.134354        85.2901 
 661   0.0000       3.155117        85.8551 
 662   0.0000       3.160131        85.9915 
 663   0.0000       3.176716        86.4428 
 664   0.0000       3.183018        86.6143 
 665   0.0000       3.196842        86.9905 
 666   0.0000       3.206408        87.2508 
 667   0.0000       3.208341        87.3034 
 668   0.0000       3.224896        87.7539 
 669   0.0000       3.227685        87.8298 
 670   0.0000       3.248615        88.3993 
 671   0.0000       3.249928        88.4350 
 672   0.0000       3.258628        88.6718 
 673   0.0000       3.273160        89.0672 
 674   0.0000       3.279616        89.2429 
 675   0.0000       3.291890        89.5769 
 676   0.0000       3.299393        89.7811 
 677   0.0000       3.312055        90.1256 
 678   0.0000       3.319556        90.3297 
 679   0.0000       3.326939        90.5306 
 680   0.0000       3.334714        90.7422 
 681   0.0000       3.343375        90.9779 
 682   0.0000       3.351896        91.2097 
 683   0.0000       3.365808        91.5883 
 684   0.0000       3.369042        91.6763 
 685   0.0000       3.383442        92.0681 
 686   0.0000       3.394831        92.3781 
 687   0.0000       3.405429        92.6664 
 688   0.0000       3.407862        92.7326 
 689   0.0000       3.424859        93.1952 
 690   0.0000       3.427279        93.2610 
 691   0.0000       3.440730        93.6270 
 692   0.0000       3.453127        93.9644 
 693   0.0000       3.463122        94.2364 
 694   0.0000       3.467211        94.3476 
 695   0.0000       3.472683        94.4965 
 696   0.0000       3.479619        94.6852 
 697   0.0000       3.493362        95.0592 
 698   0.0000       3.509471        95.4975 
 699   0.0000       3.523273        95.8731 
 700   0.0000       3.525461        95.9327 
 701   0.0000       3.531426        96.0950 
 702   0.0000       3.541952        96.3814 
 703   0.0000       3.545452        96.4767 
 704   0.0000       3.546844        96.5145 
 705   0.0000       3.566193        97.0410 
 706   0.0000       3.571799        97.1936 
 707   0.0000       3.576107        97.3108 
 708   0.0000       3.585817        97.5750 
 709   0.0000       3.592200        97.7487 
 710   0.0000       3.596688        97.8708 
 711   0.0000       3.613252        98.3216 
 712   0.0000       3.617496        98.4371 
 713   0.0000       3.623920        98.6119 
 714   0.0000       3.640275        99.0569 
 715   0.0000       3.644656        99.1761 
 716   0.0000       3.661355        99.6305 
 717   0.0000       3.662495        99.6616 
 718   0.0000       3.671478        99.9060 
 719   0.0000       3.681624       100.1821 
 720   0.0000       3.689558       100.3980 
 721   0.0000       3.700777       100.7033 
 722   0.0000       3.705279       100.8258 
 723   0.0000       3.717407       101.1558 
 724   0.0000       3.719720       101.2187 
 725   0.0000       3.730742       101.5187 
 726   0.0000       3.736325       101.6706 
 727   0.0000       3.747669       101.9793 
 728   0.0000       3.753547       102.1392 
 729   0.0000       3.763376       102.4067 
 730   0.0000       3.770371       102.5970 
 731   0.0000       3.775803       102.7448 
 732   0.0000       3.789008       103.1041 
 733   0.0000       3.797656       103.3395 
 734   0.0000       3.805836       103.5621 
 735   0.0000       3.811738       103.7227 
 736   0.0000       3.817444       103.8779 
 737   0.0000       3.824305       104.0646 
 738   0.0000       3.832657       104.2919 
 739   0.0000       3.837378       104.4204 
 740   0.0000       3.840734       104.5117 
 741   0.0000       3.846424       104.6665 
 742   0.0000       3.855855       104.9232 
 743   0.0000       3.856831       104.9497 
 744   0.0000       3.867083       105.2287 
 745   0.0000       3.871037       105.3363 
 746   0.0000       3.888267       105.8051 
 747   0.0000       3.893145       105.9379 
 748   0.0000       3.895283       105.9960 
 749   0.0000       3.906783       106.3090 
 750   0.0000       3.915802       106.5544 
 751   0.0000       3.920558       106.6838 
 752   0.0000       3.923127       106.7537 
 753   0.0000       3.938611       107.1751 
 754   0.0000       3.942936       107.2927 
 755   0.0000       3.945883       107.3729 
 756   0.0000       3.954400       107.6047 
 757   0.0000       3.962232       107.8178 
 758   0.0000       3.971225       108.0625 
 759   0.0000       3.981402       108.3395 
 760   0.0000       3.983657       108.4008 
 761   0.0000       3.990498       108.5870 
 762   0.0000       3.994780       108.7035 
 763   0.0000       3.999907       108.8430 
 764   0.0000       4.009558       109.1056 
 765   0.0000       4.021227       109.4232 
 766   0.0000       4.026685       109.5717 
 767   0.0000       4.035238       109.8044 
 768   0.0000       4.043203       110.0212 
 769   0.0000       4.054743       110.3352 
 770   0.0000       4.057334       110.4057 
 771   0.0000       4.061789       110.5269 
 772   0.0000       4.068216       110.7018 
 773   0.0000       4.073763       110.8527 
 774   0.0000       4.088444       111.2522 
 775   0.0000       4.090885       111.3186 
 776   0.0000       4.102813       111.6432 
 777   0.0000       4.106834       111.7526 
 778   0.0000       4.115975       112.0014 
 779   0.0000       4.122605       112.1818 
 780   0.0000       4.130201       112.3885 
 781   0.0000       4.135161       112.5234 
 782   0.0000       4.150190       112.9324 
 783   0.0000       4.152389       112.9922 
 784   0.0000       4.158085       113.1472 
 785   0.0000       4.169715       113.4637 
 786   0.0000       4.171768       113.5196 
 787   0.0000       4.187350       113.9436 
 788   0.0000       4.198411       114.2446 
 789   0.0000       4.200805       114.3097 
 790   0.0000       4.208073       114.5075 
 791   0.0000       4.212333       114.6234 
 792   0.0000       4.221499       114.8728 
 793   0.0000       4.235135       115.2439 
 794   0.0000       4.243689       115.4767 
 795   0.0000       4.245680       115.5308 
 796   0.0000       4.260863       115.9440 
 797   0.0000       4.272799       116.2688 
 798   0.0000       4.282034       116.5201 
 799   0.0000       4.290635       116.7541 
 800   0.0000       4.294598       116.8619 
 801   0.0000       4.301127       117.0396 
 802   0.0000       4.313160       117.3671 
 803   0.0000       4.314102       117.3927 
 804   0.0000       4.320256       117.5602 
 805   0.0000       4.327110       117.7467 
 806   0.0000       4.334752       117.9546 
 807   0.0000       4.337483       118.0289 
 808   0.0000       4.348323       118.3239 
 809   0.0000       4.363017       118.7237 
 810   0.0000       4.374717       119.0421 
 811   0.0000       4.391487       119.4984 
 812   0.0000       4.399194       119.7082 
 813   0.0000       4.409569       119.9905 
 814   0.0000       4.415361       120.1481 
 815   0.0000       4.426362       120.4474 
 816   0.0000       4.442824       120.8954 
 817   0.0000       4.448045       121.0375 
 818   0.0000       4.453826       121.1948 
 819   0.0000       4.460232       121.3691 
 820   0.0000       4.465840       121.5217 
 821   0.0000       4.470564       121.6502 
 822   0.0000       4.485148       122.0471 
 823   0.0000       4.503391       122.5435 
 824   0.0000       4.512217       122.7837 
 825   0.0000       4.523330       123.0861 
 826   0.0000       4.529625       123.2574 
 827   0.0000       4.531272       123.3022 
 828   0.0000       4.553652       123.9112 
 829   0.0000       4.555521       123.9620 
 830   0.0000       4.570215       124.3619 
 831   0.0000       4.587639       124.8360 
 832   0.0000       4.598854       125.1412 
 833   0.0000       4.606812       125.3577 
 834   0.0000       4.632249       126.0499 
 835   0.0000       4.640290       126.2687 
 836   0.0000       4.644225       126.3758 
 837   0.0000       4.653541       126.6293 
 838   0.0000       4.671414       127.1156 
 839   0.0000       4.676921       127.2655 
 840   0.0000       4.679589       127.3381 
 841   0.0000       4.698328       127.8480 
 842   0.0000       4.710904       128.1902 
 843   0.0000       4.720267       128.4450 
 844   0.0000       4.732484       128.7774 
 845   0.0000       4.744635       129.1081 
 846   0.0000       4.756008       129.4175 
 847   0.0000       4.768913       129.7687 
 848   0.0000       4.784532       130.1937 
 849   0.0000       4.794079       130.4535 
 850   0.0000       4.811180       130.9189 
 851   0.0000       4.816953       131.0760 
 852   0.0000       4.838128       131.6522 
 853   0.0000       4.843417       131.7961 
 854   0.0000       4.850609       131.9918 
 855   0.0000       4.867745       132.4581 
 856   0.0000       4.885001       132.9276 
 857   0.0000       4.886072       132.9568 
 858   0.0000       4.896665       133.2450 
 859   0.0000       4.914892       133.7410 
 860   0.0000       4.920341       133.8893 
 861   0.0000       4.932963       134.2327 
 862   0.0000       4.942925       134.5038 
 863   0.0000       4.946852       134.6107 
 864   0.0000       4.962055       135.0244 
 865   0.0000       4.964689       135.0961 
 866   0.0000       4.971571       135.2833 
 867   0.0000       4.980788       135.5341 
 868   0.0000       4.990764       135.8056 
 869   0.0000       5.003406       136.1496 
 870   0.0000       5.019441       136.5859 
 871   0.0000       5.033973       136.9814 
 872   0.0000       5.036061       137.0382 
 873   0.0000       5.048454       137.3754 
 874   0.0000       5.062672       137.7623 
 875   0.0000       5.074612       138.0872 
 876   0.0000       5.080338       138.2430 
 877   0.0000       5.100489       138.7914 
 878   0.0000       5.106533       138.9558 
 879   0.0000       5.126641       139.5030 
 880   0.0000       5.136693       139.7765 
 881   0.0000       5.149980       140.1381 
 882   0.0000       5.172766       140.7581 
 883   0.0000       5.174512       140.8056 
 884   0.0000       5.196920       141.4154 
 885   0.0000       5.206355       141.6721 
 886   0.0000       5.212316       141.8343 
 887   0.0000       5.232345       142.3794 
 888   0.0000       5.254965       142.9949 
 889   0.0000       5.261046       143.1603 
 890   0.0000       5.273705       143.5048 
 891   0.0000       5.287129       143.8701 
 892   0.0000       5.297404       144.1497 
 893   0.0000       5.302402       144.2857 
 894   0.0000       5.317493       144.6963 
 895   0.0000       5.318244       144.7168 
 896   0.0000       5.337267       145.2344 
 897   0.0000       5.354757       145.7103 
 898   0.0000       5.379746       146.3903 
 899   0.0000       5.394075       146.7802 
 900   0.0000       5.400351       146.9510 
 901   0.0000       5.408430       147.1709 
 902   0.0000       5.417713       147.4235 
 903   0.0000       5.434159       147.8710 
 904   0.0000       5.443900       148.1361 
 905   0.0000       5.463288       148.6636 
 906   0.0000       5.467019       148.7651 
 907   0.0000       5.472555       148.9158 
 908   0.0000       5.488225       149.3422 
 909   0.0000       5.505159       149.8030 
 910   0.0000       5.512073       149.9911 
 911   0.0000       5.530843       150.5019 
 912   0.0000       5.540293       150.7590 
 913   0.0000       5.546739       150.9344 
 914   0.0000       5.562915       151.3746 
 915   0.0000       5.580425       151.8511 
 916   0.0000       5.585156       151.9798 
 917   0.0000       5.599955       152.3825 
 918   0.0000       5.606318       152.5557 
 919   0.0000       5.617049       152.8477 
 920   0.0000       5.642925       153.5518 
 921   0.0000       5.645416       153.6196 
 922   0.0000       5.653390       153.8366 
 923   0.0000       5.659882       154.0132 
 924   0.0000       5.674369       154.4074 
 925   0.0000       5.684348       154.6790 
 926   0.0000       5.693179       154.9193 
 927   0.0000       5.704809       155.2357 
 928   0.0000       5.717193       155.5727 
 929   0.0000       5.720980       155.6758 
 930   0.0000       5.740478       156.2063 
 931   0.0000       5.745111       156.3324 
 932   0.0000       5.755137       156.6052 
 933   0.0000       5.761304       156.7730 
 934   0.0000       5.777950       157.2260 
 935   0.0000       5.802961       157.9066 
 936   0.0000       5.808812       158.0658 
 937   0.0000       5.821586       158.4134 
 938   0.0000       5.835064       158.7802 
 939   0.0000       5.850700       159.2056 
 940   0.0000       5.861552       159.5009 
 941   0.0000       5.878973       159.9750 
 942   0.0000       5.891221       160.3083 
 943   0.0000       5.898025       160.4934 
 944   0.0000       5.911581       160.8623 
 945   0.0000       5.935645       161.5171 
 946   0.0000       6.033019       164.1668 
 947   0.0000       6.039058       164.3311 
 948   0.0000       6.097634       165.9251 
 949   0.0000       6.118615       166.4960 
 950   0.0000       6.139118       167.0539 
 951   0.0000       6.165572       167.7737 
 952   0.0000       6.175113       168.0334 
 953   0.0000       6.188975       168.4106 
 954   0.0000       6.210716       169.0022 
 955   0.0000       6.216487       169.1592 
 956   0.0000       6.228065       169.4743 
 957   0.0000       6.236458       169.7026 
 958   0.0000       6.246685       169.9810 
 959   0.0000       6.280179       170.8924 
 960   0.0000       6.286836       171.0735 
 961   0.0000       6.318042       171.9227 
 962   0.0000       6.324703       172.1039 
 963   0.0000       6.345983       172.6830 
 964   0.0000       6.358769       173.0309 
 965   0.0000       6.377999       173.5542 
 966   0.0000       6.396462       174.0566 
 967   0.0000       6.425168       174.8377 
 968   0.0000       6.491842       176.6520 
 969   0.0000       6.543337       178.0533 
 970   0.0000       6.587134       179.2450 
 971   0.0000       6.641986       180.7376 
 972   0.0000       6.845623       186.2789 
 973   0.0000       6.854471       186.5197 
 974   0.0000       6.908344       187.9856 
 975   0.0000       6.920715       188.3222 
 976   0.0000       6.943451       188.9409 
 977   0.0000       6.959938       189.3895 
 978   0.0000       6.968191       189.6141 
 979   0.0000       6.992741       190.2821 
 980   0.0000       6.995921       190.3687 
 981   0.0000       7.025411       191.1711 
 982   0.0000       7.061577       192.1553 
 983   0.0000       7.094311       193.0460 
 984   0.0000       7.156164       194.7291 
 985   0.0000       7.207506       196.1262 
 986   0.0000       7.356613       200.1836 
 987   0.0000       7.452938       202.8048 
 988   0.0000       7.481406       203.5794 
 989   0.0000       7.559451       205.7031 
 990   0.0000       7.583018       206.3444 
 991   0.0000       7.601456       206.8461 
 992   0.0000       7.717464       210.0029 
 993   0.0000       7.786069       211.8697 
 994   0.0000       7.848332       213.5640 
 995   0.0000       7.875490       214.3030 
 996   0.0000       8.036995       218.6978 
 997   0.0000       8.186373       222.7625 
 998   0.0000       8.321435       226.4378 
 999   0.0000       9.435004       256.7395 
 1000   0.0000       9.452823       257.2244 
 1001   0.0000       9.467716       257.6297 
 1002   0.0000       9.483739       258.0657 
 1003   0.0000       9.488958       258.2077 
 1004   0.0000       9.511548       258.8224 
 1005   0.0000       9.727891       264.7094 
 1006   0.0000      10.101752       274.8826 
 1007   0.0000      10.131224       275.6846 
 1008   0.0000      10.144484       276.0455 
 1009   0.0000      10.221325       278.1364 
 1010   0.0000      10.227362       278.3007 
 1011   0.0000      10.262076       279.2453 
 1012   0.0000      10.388009       282.6721 
 1013   0.0000      10.420948       283.5684 
 1014   0.0000      10.533551       286.6325 
 1015   0.0000      16.603999       451.8178 
 1016   0.0000      17.727035       482.3771 
 1017   0.0000      18.451142       502.0811 
 1018   0.0000      18.649917       507.4900 
 1019   0.0000      18.799527       511.5611 
 1020   0.0000      19.063637       518.7479 
 1021   0.0000      19.167278       521.5682 
 1022   0.0000      20.120926       547.5182 
 1023   0.0000      20.419562       555.6445 
 1024   0.0000      21.649546       589.1141 

                 SPIN DOWN ORBITALS
  NO   OCC          E(Eh)            E(eV) 
   0   1.0000    -261.548104     -7117.0857 
   1   1.0000    -104.777308     -2851.1355 
   2   1.0000    -104.775451     -2851.0850 
   3   1.0000    -104.773623     -2851.0352 
   4   1.0000     -32.057609      -872.3319 
   5   1.0000     -27.535636      -749.2828 
   6   1.0000     -27.535475      -749.2784 
   7   1.0000     -27.535083      -749.2677 
   8   1.0000     -20.563323      -559.5565 
   9   1.0000     -11.400652      -310.2275 
  10   1.0000     -11.334984      -308.4406 
  11   1.0000     -11.291873      -307.2675 
  12   1.0000     -11.276052      -306.8370 
  13   1.0000     -11.275153      -306.8125 
  14   1.0000     -11.263015      -306.4822 
  15   1.0000     -11.236639      -305.7645 
  16   1.0000     -11.235791      -305.7414 
  17   1.0000     -10.503832      -285.8238 
  18   1.0000     -10.502053      -285.7754 
  19   1.0000     -10.500163      -285.7240 
  20   1.0000      -7.969788      -216.8690 
  21   1.0000      -7.969140      -216.8513 
  22   1.0000      -7.969074      -216.8495 
  23   1.0000      -7.967952      -216.8190 
  24   1.0000      -7.967352      -216.8027 
  25   1.0000      -7.967296      -216.8011 
  26   1.0000      -7.966142      -216.7698 
  27   1.0000      -7.965352      -216.7483 
  28   1.0000      -7.965300      -216.7468 
  29   1.0000      -4.132858      -112.4608 
  30   1.0000      -2.654756       -72.2396 
  31   1.0000      -2.654670       -72.2372 
  32   1.0000      -2.653638       -72.2092 
  33   1.0000      -1.346573       -36.6421 
  34   1.0000      -1.162571       -31.6352 
  35   1.0000      -1.090232       -29.6667 
  36   1.0000      -1.035714       -28.1832 
  37   1.0000      -1.033797       -28.1310 
  38   1.0000      -1.024688       -27.8832 
  39   1.0000      -1.022189       -27.8152 
  40   1.0000      -1.009473       -27.4692 
  41   1.0000      -0.964275       -26.2392 
  42   1.0000      -0.926156       -25.2020 
  43   1.0000      -0.803125       -21.8541 
  44   1.0000      -0.760819       -20.7029 
  45   1.0000      -0.696464       -18.9517 
  46   1.0000      -0.688029       -18.7222 
  47   1.0000      -0.670865       -18.2552 
  48   1.0000      -0.636133       -17.3101 
  49   1.0000      -0.631010       -17.1707 
  50   1.0000      -0.617623       -16.8064 
  51   1.0000      -0.600846       -16.3499 
  52   1.0000      -0.593405       -16.1474 
  53   1.0000      -0.590386       -16.0652 
  54   1.0000      -0.581064       -15.8116 
  55   1.0000      -0.571270       -15.5450 
  56   1.0000      -0.558817       -15.2062 
  57   1.0000      -0.539240       -14.6735 
  58   1.0000      -0.535366       -14.5680 
  59   1.0000      -0.526787       -14.3346 
  60   1.0000      -0.513108       -13.9624 
  61   1.0000      -0.504374       -13.7247 
  62   1.0000      -0.474700       -12.9172 
  63   1.0000      -0.469707       -12.7814 
  64   1.0000      -0.464108       -12.6290 
  65   1.0000      -0.448560       -12.2059 
  66   1.0000      -0.440082       -11.9752 
  67   1.0000      -0.436494       -11.8776 
  68   1.0000      -0.434580       -11.8255 
  69   1.0000      -0.415775       -11.3138 
  70   1.0000      -0.410045       -11.1579 
  71   1.0000      -0.401728       -10.9316 
  72   0.0000       0.008023         0.2183 
  73   0.0000       0.020325         0.5531 
  74   0.0000       0.022567         0.6141 
  75   0.0000       0.030872         0.8401 
  76   0.0000       0.037628         1.0239 
  77   0.0000       0.040808         1.1104 
  78   0.0000       0.042969         1.1692 
  79   0.0000       0.043616         1.1869 
  80   0.0000       0.045572         1.2401 
  81   0.0000       0.053305         1.4505 
  82   0.0000       0.056995         1.5509 
  83   0.0000       0.060811         1.6548 
  84   0.0000       0.061917         1.6848 
  85   0.0000       0.064964         1.7677 
  86   0.0000       0.066115         1.7991 
  87   0.0000       0.070515         1.9188 
  88   0.0000       0.072625         1.9762 
  89   0.0000       0.082730         2.2512 
  90   0.0000       0.086847         2.3632 
  91   0.0000       0.089630         2.4389 
  92   0.0000       0.090492         2.4624 
  93   0.0000       0.093951         2.5565 
  94   0.0000       0.101086         2.7507 
  95   0.0000       0.103092         2.8053 
  96   0.0000       0.110114         2.9963 
  97   0.0000       0.116018         3.1570 
  98   0.0000       0.118165         3.2154 
  99   0.0000       0.121159         3.2969 
 100   0.0000       0.123237         3.3535 
 101   0.0000       0.123477         3.3600 
 102   0.0000       0.124536         3.3888 
 103   0.0000       0.125721         3.4210 
 104   0.0000       0.128374         3.4932 
 105   0.0000       0.130560         3.5527 
 106   0.0000       0.131607         3.5812 
 107   0.0000       0.132873         3.6157 
 108   0.0000       0.135030         3.6743 
 109   0.0000       0.137259         3.7350 
 110   0.0000       0.137942         3.7536 
 111   0.0000       0.143379         3.9015 
 112   0.0000       0.148182         4.0322 
 113   0.0000       0.150911         4.1065 
 114   0.0000       0.152130         4.1397 
 115   0.0000       0.154352         4.2001 
 116   0.0000       0.157372         4.2823 
 117   0.0000       0.159099         4.3293 
 118   0.0000       0.164541         4.4774 
 119   0.0000       0.168215         4.5774 
 120   0.0000       0.172862         4.7038 
 121   0.0000       0.174726         4.7545 
 122   0.0000       0.178957         4.8697 
 123   0.0000       0.183596         4.9959 
 124   0.0000       0.188602         5.1321 
 125   0.0000       0.190794         5.1918 
 126   0.0000       0.195137         5.3100 
 127   0.0000       0.197649         5.3783 
 128   0.0000       0.199645         5.4326 
 129   0.0000       0.202603         5.5131 
 130   0.0000       0.204140         5.5549 
 131   0.0000       0.207213         5.6386 
 132   0.0000       0.210845         5.7374 
 133   0.0000       0.214134         5.8269 
 134   0.0000       0.217968         5.9312 
 135   0.0000       0.223646         6.0857 
 136   0.0000       0.226290         6.1577 
 137   0.0000       0.231102         6.2886 
 138   0.0000       0.233395         6.3510 
 139   0.0000       0.238204         6.4818 
 140   0.0000       0.242995         6.6122 
 141   0.0000       0.246829         6.7166 
 142   0.0000       0.249649         6.7933 
 143   0.0000       0.250737         6.8229 
 144   0.0000       0.253782         6.9058 
 145   0.0000       0.254962         6.9379 
 146   0.0000       0.259329         7.0567 
 147   0.0000       0.261343         7.1115 
 148   0.0000       0.265375         7.2212 
 149   0.0000       0.266244         7.2449 
 150   0.0000       0.274018         7.4564 
 151   0.0000       0.279150         7.5961 
 152   0.0000       0.280508         7.6330 
 153   0.0000       0.285316         7.7638 
 154   0.0000       0.289349         7.8736 
 155   0.0000       0.290242         7.8979 
 156   0.0000       0.295696         8.0463 
 157   0.0000       0.301097         8.1933 
 158   0.0000       0.303190         8.2502 
 159   0.0000       0.307871         8.3776 
 160   0.0000       0.313286         8.5250 
 161   0.0000       0.313968         8.5435 
 162   0.0000       0.316663         8.6168 
 163   0.0000       0.325117         8.8469 
 164   0.0000       0.327954         8.9241 
 165   0.0000       0.334096         9.0912 
 166   0.0000       0.338080         9.1996 
 167   0.0000       0.344141         9.3646 
 168   0.0000       0.350026         9.5247 
 169   0.0000       0.351273         9.5586 
 170   0.0000       0.356560         9.7025 
 171   0.0000       0.358362         9.7515 
 172   0.0000       0.362961         9.8767 
 173   0.0000       0.364703         9.9241 
 174   0.0000       0.366455         9.9717 
 175   0.0000       0.371743        10.1156 
 176   0.0000       0.373236        10.1563 
 177   0.0000       0.376739        10.2516 
 178   0.0000       0.380246        10.3470 
 179   0.0000       0.382256        10.4017 
 180   0.0000       0.385908        10.5011 
 181   0.0000       0.389101        10.5880 
 182   0.0000       0.394416        10.7326 
 183   0.0000       0.399591        10.8734 
 184   0.0000       0.399764        10.8781 
 185   0.0000       0.403582        10.9820 
 186   0.0000       0.404983        11.0202 
 187   0.0000       0.407909        11.0998 
 188   0.0000       0.410696        11.1756 
 189   0.0000       0.411764        11.2047 
 190   0.0000       0.415253        11.2996 
 191   0.0000       0.422579        11.4989 
 192   0.0000       0.426773        11.6131 
 193   0.0000       0.429806        11.6956 
 194   0.0000       0.432275        11.7628 
 195   0.0000       0.436396        11.8749 
 196   0.0000       0.437712        11.9108 
 197   0.0000       0.441228        12.0064 
 198   0.0000       0.447864        12.1870 
 199   0.0000       0.451570        12.2878 
 200   0.0000       0.458746        12.4831 
 201   0.0000       0.461256        12.5514 
 202   0.0000       0.466025        12.6812 
 203   0.0000       0.468564        12.7503 
 204   0.0000       0.469329        12.7711 
 205   0.0000       0.471828        12.8391 
 206   0.0000       0.473016        12.8714 
 207   0.0000       0.478484        13.0202 
 208   0.0000       0.480282        13.0691 
 209   0.0000       0.481254        13.0956 
 210   0.0000       0.486731        13.2446 
 211   0.0000       0.488364        13.2891 
 212   0.0000       0.490081        13.3358 
 213   0.0000       0.492786        13.4094 
 214   0.0000       0.494729        13.4623 
 215   0.0000       0.499842        13.6014 
 216   0.0000       0.501600        13.6492 
 217   0.0000       0.505361        13.7516 
 218   0.0000       0.509982        13.8773 
 219   0.0000       0.510713        13.8972 
 220   0.0000       0.516040        14.0422 
 221   0.0000       0.525062        14.2877 
 222   0.0000       0.528316        14.3762 
 223   0.0000       0.530200        14.4275 
 224   0.0000       0.531098        14.4519 
 225   0.0000       0.535305        14.5664 
 226   0.0000       0.538415        14.6510 
 227   0.0000       0.542711        14.7679 
 228   0.0000       0.546642        14.8749 
 229   0.0000       0.547978        14.9112 
 230   0.0000       0.550100        14.9690 
 231   0.0000       0.558155        15.1882 
 232   0.0000       0.562848        15.3159 
 233   0.0000       0.567704        15.4480 
 234   0.0000       0.571070        15.5396 
 235   0.0000       0.574381        15.6297 
 236   0.0000       0.579329        15.7643 
 237   0.0000       0.580123        15.7859 
 238   0.0000       0.581903        15.8344 
 239   0.0000       0.584868        15.9151 
 240   0.0000       0.586868        15.9695 
 241   0.0000       0.592060        16.1108 
 242   0.0000       0.595449        16.2030 
 243   0.0000       0.597148        16.2492 
 244   0.0000       0.602421        16.3927 
 245   0.0000       0.604289        16.4435 
 246   0.0000       0.608482        16.5576 
 247   0.0000       0.612203        16.6589 
 248   0.0000       0.617446        16.8016 
 249   0.0000       0.622290        16.9334 
 250   0.0000       0.623961        16.9788 
 251   0.0000       0.627839        17.0844 
 252   0.0000       0.634005        17.2521 
 253   0.0000       0.639484        17.4012 
 254   0.0000       0.641363        17.4524 
 255   0.0000       0.644032        17.5250 
 256   0.0000       0.648949        17.6588 
 257   0.0000       0.654890        17.8205 
 258   0.0000       0.659630        17.9494 
 259   0.0000       0.663131        18.0447 
 260   0.0000       0.665753        18.1160 
 261   0.0000       0.667633        18.1672 
 262   0.0000       0.670278        18.2392 
 263   0.0000       0.678233        18.4557 
 264   0.0000       0.684166        18.6171 
 265   0.0000       0.689370        18.7587 
 266   0.0000       0.692881        18.8543 
 267   0.0000       0.694962        18.9109 
 268   0.0000       0.697037        18.9674 
 269   0.0000       0.701995        19.1023 
 270   0.0000       0.706914        19.2361 
 271   0.0000       0.713837        19.4245 
 272   0.0000       0.716069        19.4852 
 273   0.0000       0.720245        19.5988 
 274   0.0000       0.727289        19.7905 
 275   0.0000       0.730888        19.8885 
 276   0.0000       0.736134        20.0312 
 277   0.0000       0.742518        20.2050 
 278   0.0000       0.744800        20.2670 
 279   0.0000       0.754758        20.5380 
 280   0.0000       0.755067        20.5464 
 281   0.0000       0.762973        20.7615 
 282   0.0000       0.771681        20.9985 
 283   0.0000       0.777162        21.1477 
[...]
  | Av. % of trace(Dpq) retained        ...  99.536403067432
  | sigma^2 in % of trace(Dij) retained ...   8.27e+00
  | sigma^2 in % of trace(Dip) retained ...   1.79e+01
  | sigma^2 in % of trace(Dpq) retained ...   1.19e-01
  | Av. % of trace(Di) retained         ...  99.998527377679
  | Av. % of trace(Dp) retained         ...  99.999999074557
  | sigma^2 in % of trace(Di) retained  ...   7.64e-07
  | sigma^2 in % of trace(Dp) retained  ...   4.45e-13
 Distributions of % trace(Dij) recovered:
  |       >= 99.9  ...   105 ( 20.2 % of all IJ-pairs)
  |   [80.0, 90.0) ...    31 (  6.0 % of all IJ-pairs)
  |   [90.0, 99.0) ...   287 ( 55.3 % of all IJ-pairs)
  |   [99.0, 99.9) ...    96 ( 18.5 % of all IJ-pairs)
 Distributions of % trace(Dip) recovered:
  |   [80.0, 90.0) ...    14 ( 11.8 % of all IP-pairs)
  |   [90.0, 99.0) ...    61 ( 51.3 % of all IP-pairs)
  |   [99.0, 99.9) ...    44 ( 37.0 % of all IP-pairs)
 Distributions of % trace(Dpq) recovered:
  |       >= 99.9  ...     5 ( 33.3 % of all PQ-pairs)
  |   [99.0, 99.9) ...    10 ( 66.7 % of all PQ-pairs)
 Distributions of % trace(Di) recovered :
  |       >= 99.9  ...    43 (100.0 % of all I-pairs )
 Distributions of % trace(Dp) recovered :
  |       >= 99.9  ...     5 (100.0 % of all P-pairs )

                       ===========================
                       1139 OF 1744 PAIRS ARE KEPT
                       ===========================

 Initial PAO correlation energy (all pairs)    ...  -2.6924797460 Eh
 Energy constituents in PAO basis (Eh):
  | Vijab(+0) ...  -2.2618984066
  | Viab (-1) ...  -0.1759872856
  | Vab  (-2) ...  -0.0573637042
  | Va   (-1) ...  -0.0000424851
  | Vija (+1) ...  -0.0731358384
  | Vij  (+2) ...  -0.0155085469
  | Via  (+0) ...  -0.1083837531
  | Vi   (+1) ...  -0.0001597260
 Initial PNO correlation energy                ...  -2.6584859274 Eh
 Energy constituents in PNO basis (Eh):
  | Vijab(+0) ...  -2.2439423339 (err=  0.0179560727)
  | Viab (-1) ...  -0.1615000403 (err=  0.0144872453)
  | Vab  (-2) ...  -0.0569267721 (err=  0.0004369321)
  | Va   (-1) ...  -0.0000244664 (err=  0.0000180187)
  | Vija (+1) ...  -0.0722181012 (err=  0.0009177372)
  | Vij  (+2) ...  -0.0154645188 (err=  0.0000440282)
  | Via  (+0) ...  -0.1082505507 (err=  0.0001332025)
  | Vi   (+1) ...  -0.0001591441 (err=  0.0000005819)
 Sum of total truncation errors ...   0.0339938186 Eh
  | Pair screening ...   0.0109394174 Eh
  | PNO truncation ...   0.0230544012 Eh

 UMP2 correlation energy (PAO) ...  -2.6875140038
  | alpha-alpha ...  -0.3853352156 (NP_aa=  947)
  | alpha-beta  ...  -1.9964288124 (NP_ab= 1719)
  | beta -beta  ...  -0.3057499758 (NP_bb=  739)
 UMP2 correlation energy (PNO) ...  -2.6531680660
  | alpha-alpha ...  -0.3733267822 (err=  0.0120084334, NP_aa=  605)
  | alpha-beta  ...  -1.9779552669 (err=  0.0184735455, NP_ab= 1114)
  | beta -beta  ...  -0.3018860169 (err=  0.0038639590, NP_bb=  476)
 Sum of total UMP2 truncation errors ...   0.0343459378 Eh
  | Pair screening ...   0.0109350540 Eh
  | PNO truncation ...   0.0234108839 Eh
 Timing for NEV-PNO construction (sec.)
  | Intermediate construction  ..           52.610
  | Amplitude construction     ..           71.144
  | Total time                 ..          123.754
 Making pair pair interaction lists ...      ok
 Total size for 2-ext PNO integrals ...     10.8 MB
Checking the number of SOMO/SOMO doubles PNOs ... 
 #Truncate: (72, 72)[172] -> [83] .. 
 #Truncate: (73, 73)[172] -> [83] .. 
 #Truncate: (74, 74)[171] -> [83] .. 
 #Truncate: (75, 75)[172] -> [83] .. 
 #Truncate: (76, 76)[172] -> [83] .. 

--------------------------------
LOCAL RI TRANSFORMATION (VABPAO)
--------------------------------

Number of PAOs:    1030
Basis functions:   1025 (343 shells)
Aux. functions:    2424 (644 shells)

Processing maps (0.0 sec)
Average map sizes:
   Aux shells -> PAOs           1030.0
   PAOs       -> AO shells       343.0

Calculating integrals (197.2 sec, 37370.165 MB)
Finished
-----------------------------
LOCAL RI TRANSFORMATION (IJV)
-----------------------------

Orbital window:      29 to 76
Basis functions:   1025 (343 shells)
Aux. functions:    2424 (644 shells)

Processing maps (0.0 sec)
Average map sizes:
   Aux shells -> MOs(i)           46.6
   Aux shells -> MOs(j)           48.0
   MOs        -> AO shells       341.0

Calculating integrals (23.6 sec, 41.502 MB)
Sorting integrals (0.3 sec, 41.475 MB)
Total time for the integral transformation: 23.9 sec


-------------------------------------
Pair Pair Term precalculation with     
RI-(ij|mn) and (im|jn) transformation  
ON THE FLY                             
-------------------------------------

   IBatch   1 (of   3)              ... done ( 1423.243 sec)
   IBatch   2 (of   3)              ... done ( 1456.436 sec)
   IBatch   3 (of   3)              ... done (  124.409 sec)
Total EXT                           ...        3004.088 sec

---------------------
RI-PNO TRANSFORMATION
---------------------

Total Number of PNOs                   ... 34806
Total Number of IJ-PNOs                ... 30618
Total Number of IP-PNOs                ...  3241
Total Number of PQ-PNOs                ...   947
Total Number of IJ-pairs               ...   995
Total Number of PI-pairs               ...   119
Total Number of PQ-pairs               ...    25
Average number of PNOs per pair        ...    30
Maximal number of PNOs per pair        ...    83
>> Statistics for ij-pairs..
   #pairs with  1 -  5 PNOs   :    0
   #pairs with  6 - 10 PNOs   :    0
   #pairs with 11 - 15 PNOs   :   64
   #pairs with 16 - 20 PNOs   :  242
   #pairs with 21 - 25 PNOs   :  208
   #pairs with 26 - 30 PNOs   :  104
   #pairs with 31 - 35 PNOs   :   86
   #pairs with 36 - 40 PNOs   :   68
   #pairs with 41 - 45 PNOs   :   38
   #pairs with 46 - 50 PNOs   :   17
   #pairs with 51 - 55 PNOs   :   36
   #pairs with 56 - 60 PNOs   :   56
   #pairs with 61 - 65 PNOs   :   76
>> Statistics for ip-pairs..
   #pairs with  1 -  5 PNOs   :    0
   #pairs with  6 - 10 PNOs   :    1
   #pairs with 11 - 15 PNOs   :   18
   #pairs with 16 - 20 PNOs   :    1
   #pairs with 21 - 25 PNOs   :   28
   #pairs with 26 - 30 PNOs   :   12
   #pairs with 31 - 35 PNOs   :   45
   #pairs with 36 - 40 PNOs   :   14
   #pairs with 41 - 45 PNOs   :    0
   #pairs with 46 - 50 PNOs   :    0
>> Statistics for pq-pairs..
   #pairs with  1 -  5 PNOs   :    0
   #pairs with  6 - 10 PNOs   :    0
   #pairs with 11 - 15 PNOs   :    0
   #pairs with 16 - 20 PNOs   :    0
   #pairs with 21 - 25 PNOs   :    6
   #pairs with 26 - 30 PNOs   :   14
   #pairs with 31 - 35 PNOs   :    0
   #pairs with 36 - 40 PNOs   :    0
   #pairs with 41 - 45 PNOs   :    0
   #pairs with 46 - 50 PNOs   :    0
   #pairs with 81 - 85 PNOs   :    5

Generation of (ij|ab)[P] integrals            ... on
Generation of (ia|bc)[P],(ja|bc)[P] integrals ... on
Storage of 3 and 4 external integrals         ... on
Generation of ALL (ka|bc)[P] integrals        ... on
Keep RI integrals in memory                   ... off

Ibatch:  1 (of  1)
Starting 2-4 index PNO integral generation ... done

Timings:
Total PNO integral transformation time     ...       2123.039 sec
Size of the 3-external file                ...       277 MB
Size of the 4-external file                ...      1839 MB
Size of the IKJL file                      ...        19 MB
Size of the all 3-external file            ...      6662 MB
Size of the 1-external file                ...        22 MB

Size of the PAO/PNO coefficient matrices   ...     228.2 MB

Making pair/pair overlap matrices          ... done (  373.638 sec)
Size of the pair overlap file              ...    2468.0 MB
Total # unrestricted pairs ...       2195
  # of alpha-alpha pairs   ...        605
  # of alpha-beta pairs    ...       1114
  # of beta-beta pairs     ...        476
Constructing the guess amplitudes          ... done (    0.710 sec)

-------------------------
FINAL STARTUP INFORMATION
-------------------------

E(0)                                       ...  -3028.444981524
E(SL-UMP2 in NEV-PNO space)                ...     -2.688464254
Initial E(tot)                             ...  -3031.133445778
<T|T>                                      ...      0.534408925
Number of unrestricted pairs included      ... 2195
Total number of pairs                      ... 4095
----------------------------------------------------------
                     OPEN-SHELL COUPLED CLUSTER ITERATIONS
----------------------------------------------------------

Number of PNO amplitudes to be optimized        ...          2086760
Number of canonical amplitudes for strong pairs ...       1982546503
Untruncated number of canonical amplitudes      ...       3698645738

Iter       E(tot)           E(Corr)          Delta-E          Residual     Time
  0  -3031.140639601     -2.660361889      0.028102365      0.026181583 2114.92
                           *** Turning on DIIS ***
  1  -3031.255066360     -2.774788648     -0.114426759      0.015238270 2159.80
  2  -3031.320029242     -2.839751530     -0.064962882      0.008877133 2190.20
  3  -3031.341374350     -2.861096638     -0.021345108      0.004796866 2198.69
  4  -3031.348663741     -2.868386029     -0.007289391      0.002800101 2122.75
  5  -3031.352366217     -2.872088505     -0.003702475      0.001772061 2120.75
  6  -3031.353701787     -2.873424075     -0.001335570      0.000943983 2145.53
  7  -3031.354481453     -2.874203741     -0.000779666      0.000490022 2186.32
  8  -3031.354666414     -2.874388703     -0.000184962      0.000240054 2197.17
  9  -3031.354711266     -2.874433554     -0.000044851      0.000141456 2198.73
 10  -3031.354711025     -2.874433313      0.000000241      0.000120354 2175.78
 11  -3031.354723698     -2.874445986     -0.000012673      0.000064841 2127.52
 12  -3031.354730542     -2.874452830     -0.000006844      0.000038302 2142.41
 13  -3031.354733592     -2.874455880     -0.000003050      0.000016884 2129.12
 14  -3031.354733963     -2.874456251     -0.000000370      0.000008306 2192.14
               --- The CCSD iterations have converged ---

E(0)                                       ...  -3028.444981524
E(CORR)(strong-pairs)                      ...     -2.874456251
E(CORR)(weak-pairs)                        ...     -0.035296188
E(CORR)(corrected)                         ...     -2.909752438
E(TOT)                                     ...  -3031.354733963
Singles norm <S|S>**1/2                    ...      0.193559558 ( 0.066545217, 0.127014341)  
T1 diagnostic                              ...      0.020290555                              
<S**2>(linearized)                         ...      8.7507840 (ideal value:      8.7500000)

----------------------
LARGEST PNO AMPLITUDES
----------------------
  43a-> 77a  -1a-> -1a       0.058500
  51b-> 74b  -1b-> -1b       0.058091
  43b-> 77b  -1b-> -1b       0.057870
  43a-> 77a  43b-> 77b       0.053988
  49b-> 72b  -1b-> -1b       0.050959
  52b-> 74b  -1b-> -1b       0.047835
  44a-> 77a  44b-> 77b       0.046522
  56a-> 77a  56b-> 77b       0.044984
  53a-> 77a  53b-> 77b       0.044034
  66a-> 77a  66b-> 77b       0.043880
  49b-> 75b  -1b-> -1b       0.043785
  55a-> 77a  55b-> 77b       0.043711
  38b-> 73b  -1b-> -1b       0.043541
  67a-> 77a  67b-> 77b       0.043338
  69a-> 77a  69b-> 77b       0.043196
  59a-> 77a  59b-> 77b       0.043160

Total # unrestricted pairs ...       1210
  # of alpha-alpha pairs   ...        342
  # of alpha-beta pairs    ...        605
  # of beta-beta pairs     ...        263

-------------------------------------------
DLPNO BASED TRIPLES CORRECTION
-------------------------------------------

Singles multiplier          ...  1.000000
Fragment selection                          .... not used
TCutTNO                     ... 1.000e-09
TCutMP2Pairs                ... 1.000e-05
TCutDOStrong                ... 2.000e-02
TCutMKNStrong               ... 1.000e-02
TCutDOWeak                  ... 4.000e-02
TCutMKNWeak                 ... 1.000e-01
NTCutTNO                    ... 1

Number of Triples that are to be computed         ...     36320

 . . . . . . . . .
10% done  
20% done  
30% done  
40% done  
50% done  
60% done  
70% done  
80% done  
90% done  
          Batch   1   done (  22656.328 sec)

Triples-Correction TCutTNO=   1.000e-09 (NWeakPairs = 0  1  2  3)  -0.117041148086   -0.001743530541    0.000000000000    0.000000000000
Triples-Correction  -0.118784678627

Triples timings:
Total time                      ... 23482.377 sec

Triples List generation         ...     0.000 sec
TNO generation                  ...   825.499 sec
Pair density generation         ...     0.093 sec
Look up tables                  ...     0.136 sec
Generating 3-index integrals    ... 15798.517 sec
Make 4-ind.int. from 3-ind.int  ...     4.492 sec
Projecting amplitudes (D + S)   ...  6590.892 sec
Sorting integrals for spin cases...    55.032 sec
Calculate W0/W1                 ...   169.457 sec
Energy contr. (sum over a,b,c)  ...    38.011 sec

Everything after 3-index        ...  7021.527 sec

Energy contribution AAA         ...    25.674 sec
Energy contribution AAB         ...   117.052 sec
Energy contribution ABB         ...   105.892 sec
Energy contribution BBB         ...    13.926 sec
prep                ...     3.740 sec
makeTTNO            ...  6524.821 sec
copyij              ...     0.149 sec
copyil              ...     4.646 sec
transposeij         ...     0.084 sec
newMatInDoubleProj  ...    57.533 sec
BlasInDoubleProj    ...  3645.228 sec
ProjSingles         ...    54.499 sec
ProjDoubles         ...  6536.392 sec
overall Doubles for projection      ... 3373941
used Doubles for projection         ... 3373941


Number of Triples   (0, 1, 2, 3 weak pairs; overall):  17671   12463       0       0  ( 30134)
Number of Atoms     (0, 1, 2, 3 weak pairs; overall):   20.8    14.4     0.0     0.0  (    29)
Number of PAOs      (0, 1, 2, 3 weak pairs; overall):  794.7   586.6     0.0     0.0  (  1025)
Number of AuxFcns   (0, 1, 2, 3 weak pairs; overall): 1014.3   575.1     0.0     0.0  (  2424)
Number of TNOs (0, 1, 2, 3 weak pairs         ):   77.7    55.1     0.0     0.0
Aver. Number of NTNO, Atoms, PAOs, AuxFcns / Triples:  30134    68.3    18.1   708.7   832.6

Triples Correction (T)                     ...     -0.118784679
    alpha-alpha-alpha ... -0.003869450 (  3.3%)
    alpha-alpha-beta  ... -0.055757099 ( 46.9%)
    alpha-beta -beta  ... -0.055055106 ( 46.3%)
    beta -beta -beta  ... -0.004103023 (  3.5%)
Final correlation energy                   ...     -3.028537117
E(CCSD)                                    ...  -3031.354733963
E(CCSD(T))                                 ...  -3031.473518641

----------------------------
STATISTICS FOR PAIR-ENERGIES
----------------------------
Minimum, maximum and average ratios of UMP and CCSD pair-energies ... 0.44, 1.44, 1.02


------------------------------------------------------------------------------- 
                                     TIMINGS                                   
------------------------------------------------------------------------------- 


Total execution time                   ...    64805.158 sec

Localization of occupied MO's          ...       10.391 sec (  0.0%)
Fock Matrix Formation                  ...     1447.219 sec (  2.2%)
Differential overlap integrals         ...        1.494 sec (  0.0%)
Organizing maps                        ...        1.717 sec (  0.0%)
RI 3-index integral generations        ...      285.839 sec (  0.4%)
RI-PNO integral transformation         ...     5520.491 sec (  8.5%)
Initial Guess                          ...     1987.816 sec (  3.1%)
DIIS Solver                            ...       19.647 sec (  0.0%)
State Vector Update                    ...        0.943 sec (  0.0%)
Sigma-vector construction              ...    32401.840 sec ( 50.0%)
  <0|H|D>                              ...        0.032 sec (  0.0% of sigma)
  <D|H|D>(0-ext)                       ...     6257.289 sec ( 19.3% of sigma)
  <D|H|D>(2-ext Fock)                  ...        1.969 sec (  0.0% of sigma)
  <D|H|D>(2-ext)                       ...     4874.735 sec ( 15.0% of sigma)
  <D|H|D>(4-ext)                       ...      146.040 sec (  0.5% of sigma)
  <D|H|D>(4-ext-corr)                  ...      912.192 sec (  2.8% of sigma)
  CCSD doubles correction              ...      618.843 sec (  1.9% of sigma)
  <S|H|S>                              ...      793.773 sec (  2.4% of sigma)
  <S|H|D>(1-ext)                       ...      306.127 sec (  0.9% of sigma)
  <D|H|S>(1-ext)                       ...        0.806 sec (  0.0% of sigma)
  <S|H|D>(3-ext)                       ...       24.504 sec (  0.1% of sigma)
  CCSD singles correction              ...        0.005 sec (  0.0% of sigma)
  Fock-dressing                        ...     9054.158 sec ( 27.9% of sigma)
  Singles amplitudes                   ...      133.845 sec (  0.4% of sigma)
  (ik|jl)-dressing                     ...     7369.159 sec ( 22.7% of sigma)
  (ij|ab),(ia|jb)-dressing             ...     1675.122 sec (  5.2% of sigma)
  Pair energies                        ...        0.157 sec (  0.0% of sigma)
Total Time for computing (T)           ...    23520.463 sec ( 36.3% of ALL)


-------------------------   --------------------
FINAL SINGLE POINT ENERGY     -3031.473518641199
-------------------------   --------------------


                            ***************************************
                            *     ORCA property calculations      *
                            ***************************************

                                    ---------------------
                                    Active property flags
                                    ---------------------
   (+) Dipole Moment


------------------------------------------------------------------------------
                       ORCA ELECTRIC PROPERTIES CALCULATION
------------------------------------------------------------------------------

Dipole Moment Calculation                       ... on
Quadrupole Moment Calculation                   ... off
Polarizability Calculation                      ... off
GBWName                                         ... simple-grid-165-200-b3lyp_d3bj-631gd-gas-singlepoint-DLPNO_CCSD_T1-NormalPNO-augtz-gas.gbw
Electron density file                           ... simple-grid-165-200-b3lyp_d3bj-631gd-gas-singlepoint-DLPNO_CCSD_T1-NormalPNO-augtz-gas.scfp.tmp
The origin for moment calculation is the CENTER OF MASS  = ( 0.301490,  0.018165  0.012546)

-------------
DIPOLE MOMENT
-------------
                                X             Y             Z
Electronic contribution:     40.38589       3.24049       1.53068
Nuclear contribution   :    -44.92200      -2.70659      -1.86932
                        -----------------------------------------
Total Dipole Moment    :     -4.53611       0.53390      -0.33864
                        -----------------------------------------
Magnitude (a.u.)       :      4.57996
Magnitude (Debye)      :     11.64134



--------------------
Rotational spectrum 
--------------------
 
Rotational constants in cm-1:     0.018995     0.012081     0.010774 
Rotational constants in MHz :   569.441877   362.165347   322.996909 

 Dipole components along the rotational axes: 
x,y,z [a.u.] :     4.539268     0.512426    -0.329405 
x,y,z [Debye]:    11.537904     1.302482    -0.837281 

 

Timings for individual modules:

Sum of individual times         ...    84088.431 sec (=1401.474 min)
GTO integral calculation        ...       13.678 sec (=   0.228 min)   0.0 %
SCF iterations                  ...    19249.193 sec (= 320.820 min)  22.9 %
MDCI module                     ...    64825.560 sec (=1080.426 min)  77.1 %
                             ****ORCA TERMINATED NORMALLY****
TOTAL RUN TIME: 0 days 23 hours 21 minutes 31 seconds 104 msec
