
                                 *****************
                                 * O   R   C   A *
                                 *****************

           --- An Ab Initio, DFT and Semiempirical electronic structure package ---

                  #######################################################
                  #                        -***-                        #
                  #          Department of theory and spectroscopy      #
                  #               Directorship: Frank Neese             #
                  #        Max Planck Institute fuer Kohlenforschung    #
                  #                Kaiser Wilhelm Platz 1               #
                  #                 D-45470 Muelheim/Ruhr               #
                  #                      Germany                        #
                  #                                                     #
                  #                  All rights reserved                #
                  #                        -***-                        #
                  #######################################################


                         Program Version 4.1.2  - RELEASE  -


 With contributions from (in alphabetic order):
   Daniel Aravena         : Magnetic Properties
   Michael Atanasov       : Ab Initio Ligand Field Theory
   Alexander A. Auer      : GIAO ZORA
   Ute Becker             : Parallelization
   Giovanni Bistoni       : ED, Open-shell LED
   Martin Brehm           : Molecular dynamics
   Dmytro Bykov           : SCF Hessian
   Vijay G. Chilkuri      : MRCI spin determinant printing
   Dipayan Datta          : RHF DLPNO-CCSD density
   Achintya Kumar Dutta   : EOM-CC, STEOM-CC
   Dmitry Ganyushin       : Spin-Orbit,Spin-Spin,Magnetic field MRCI
   Miquel Garcia          : C-PCM Hessian
   Yang Guo               : DLPNO-NEVPT2, CIM, IAO-localization
   Andreas Hansen         : Spin unrestricted coupled pair/coupled cluster methods
   Benjamin Helmich-Paris : CASSCF linear response (MC-RPA)
   Lee Huntington         : MR-EOM, pCC
   Robert Izsak           : Overlap fitted RIJCOSX, COSX-SCS-MP3, EOM
   Christian Kollmar      : KDIIS, OOCD, Brueckner-CCSD(T), CCSD density
   Simone Kossmann        : Meta GGA functionals, TD-DFT gradient, OOMP2, MP2 Hessian
   Martin Krupicka        : AUTO-CI
   Lucas Lang             : DCDCAS
   Dagmar Lenk            : GEPOL surface, SMD
   Dimitrios Liakos       : Extrapolation schemes; parallel MDCI
   Dimitrios Manganas     : ROCIS; embedding schemes
   Dimitrios Pantazis     : SARC Basis sets
   Taras Petrenko         : DFT Hessian,TD-DFT gradient, ASA, ECA, R-Raman, ABS, FL, XAS/XES, NRVS
   Peter Pinski           : DLPNO-MP2, DLPNO-MP2 Gradient
   Christoph Reimann      : Effective Core Potentials
   Marius Retegan         : Local ZFS, SOC
   Christoph Riplinger    : Optimizer, TS searches, QM/MM, DLPNO-CCSD(T), (RO)-DLPNO pert. Triples
   Tobias Risthaus        : Range-separated hybrids, TD-DFT gradient, RPA, STAB
   Michael Roemelt        : Restricted open shell CIS
   Masaaki Saitow         : Open-shell DLPNO
   Barbara Sandhoefer     : DKH picture change effects
   Avijit Sen             : IP-ROCIS
   Kantharuban Sivalingam : CASSCF convergence, NEVPT2, FIC-MRCI
   Bernardo de Souza      : ESD, SOC TD-DFT
   Georgi Stoychev        : AutoAux, RI-MP2 NMR
   Willem Van den Heuvel  : Paramagnetic NMR
   Boris Wezisla          : Elementary symmetry handling
   Frank Wennmohs         : Technical directorship


 We gratefully acknowledge several colleagues who have allowed us to
 interface, adapt or use parts of their codes:
   Stefan Grimme, W. Hujo, H. Kruse,             : VdW corrections, initial TS optimization,
                  C. Bannwarth                     DFT functionals, gCP, sTDA/sTD-DF
   Ed Valeev                                     : LibInt (2-el integral package), F12 methods
   Garnet Chan, S. Sharma, J. Yang, R. Olivares  : DMRG
   Ulf Ekstrom                                   : XCFun DFT Library
   Mihaly Kallay                                 : mrcc  (arbitrary order and MRCC methods)
   Andreas Klamt, Michael Diedenhofen            : otool_cosmo (COSMO solvation model)
   Jiri Pittner, Ondrej Demel                    : Mk-CCSD
   Frank Weinhold                                : gennbo (NPA and NBO analysis)
   Christopher J. Cramer and Donald G. Truhlar   : smd solvation model
   Lars Goerigk                                  : TD-DFT with DH, B97 family of functionals
   V. Asgeirsson, H. Jonsson                     : NEB implementation
   FAccTs GmbH                                   : IRC, NEB, NEB-TS, Multilevel


 Your calculation uses the libint2 library for the computation of 2-el integrals
 For citations please refer to: http://libint.valeyev.net

 This ORCA versions uses:
   CBLAS   interface :  Fast vector & matrix operations
   LAPACKE interface :  Fast linear algebra routines
   SCALAPACK package :  Parallel linear algebra routines


----- Orbital basis set information -----
Your calculation utilizes the basis: aug-cc-pVTZ 
    H, B-Ne : Obtained from the ccRepo (grant-hill.group.shef.ac.uk/ccrepo) Feb. 2017
              R. A. Kendall, T. H. Dunning, Jr., R. J. Harrison, J. Chem. Phys. 96, 6796 (1992)
         He : Obtained from the ccRepo (grant-hill.group.shef.ac.uk/ccrepo) Feb. 2017
              D. E. Woon, T. H. Dunning, Jr., J. Chem. Phys. 100, 2975 (1994)
  Li-Be, Na : Obtained from the ccRepo (grant-hill.group.shef.ac.uk/ccrepo) Feb. 2017
              B. P. Prascher, D. E. Woon, K. A. Peterson, T. H. Dunning, Jr., A. K. Wilson, Theor. Chem. Acc. 128, 69 (2011)
         Mg : Obtained from the Peterson Research Group Website (tyr0.chem.wsu.edu/~kipeters) Feb. 2017
              B. P. Prascher, D. E. Woon, K. A. Peterson, T. H. Dunning, Jr., A. K. Wilson, Theor. Chem. Acc. 128, 69 (2011)
      Al-Ar : Obtained from the ccRepo (grant-hill.group.shef.ac.uk/ccrepo) Feb. 2017
              D. E. Woon, T. H. Dunning, Jr., J. Chem. Phys. 98, 1358 (1993)
      Sc-Zn : Obtained from the ccRepo (grant-hill.group.shef.ac.uk/ccrepo) Feb. 2017
              N. B. Balabanov, K. A. Peterson, J. Chem. Phys. 123, 064107 (2005)
              N. B. Balabanov, K. A. Peterson, J. Chem. Phys. 125, 074110 (2006)
      Ga-Kr : Obtained from the ccRepo (grant-hill.group.shef.ac.uk/ccrepo) Feb. 2017
              A. K. Wilson, D. E. Woon, K. A. Peterson, T. H. Dunning, Jr., J. Chem. Phys. 110, 7667 (1999)
     Ag, Au : Obtained from the Peterson Research Group Website (tyr0.chem.wsu.edu/~kipeters) Feb. 2017
              K. A. Peterson, C. Puzzarini, Theor. Chem. Acc. 114, 283 (2005)

----- AuxJ basis set information -----
Your calculation utilizes the AutoAux generation procedure.
  G. L. Stoychev, A. A. Auer, F. Neese, J. Chem. Theory Comput. 13, 554 (2017)

----- AuxC basis set information -----
Your calculation utilizes the auxiliary basis: aug-cc-pVTZ/C 
  H-He, B-F, Al-Ar, Ga-Kr : Obtained from the EMSL Basis Set Exchange (bse.pnl.gov) Feb. 2017
                            F. Weigend, A. Kohn, C. Hattig, J. Chem. Phys. 116, 3175 (2002)
                   Be, Mg : Obtained from the TURBOMOLE 7.0 basis set library
                            C. Haettig, Phys. Chem. Chem. Phys. 7, 59 (2005)
                       Ne : Obtained from the EMSL Basis Set Exchange (bse.pnl.gov) Feb. 2017
                            C. Haettig, Phys. Chem. Chem. Phys. 7, 59 (2005)
                            F. Weigend, A. Kohn, C. Hattig, J. Chem. Phys. 116, 3175 (2002)
                    Sc-Zn : Obtained from the EMSL Basis Set Exchange (bse.pnl.gov) Feb. 2017
                            J. G. Hill, J. A. Platts, J. Chem. Phys. 128, 044104 (2008)

----- AuxJK basis set information -----
Your calculation utilizes the AutoAux generation procedure.
  G. L. Stoychev, A. A. Auer, F. Neese, J. Chem. Theory Comput. 13, 554 (2017)

================================================================================
                                        WARNINGS
                       Please study these warnings very carefully!
================================================================================


WARNING: your system is open-shell and RHF/RKS was chosen
  ===> : WILL SWITCH to UHF/UKS


WARNING: MDCI localization with Augmented Hessian Foster-Boys
  ===> : Switching off randomization!

WARNING: Post HF methods need fully converged wavefunctions
  ===> : Setting SCFConvForced true
         You can overwrite this default with %scf ConvForced false 


INFO   : the flag for use of LIBINT has been found!

================================================================================
                                       INPUT FILE
================================================================================
NAME = simple-grid-215-280-b3lyp_d3bj-631gd-gas-singlepoint-DLPNO_CCSD_T1-NormalPNO-augtz-gas.inp
|  1> ! aug-cc-pVTZ aug-cc-pVTZ/C DLPNO-CCSD(T1) TightSCF NormalPNO UNO MiniPrint AutoAux
|  2> %pal nproc 10 end
|  3> %maxcore 20000
|  4> %mdci
|  5>      density none
|  6> end
|  7> 
|  8> * xyz 0 6
|  9>  O     -0.30061000     -0.21880900     -0.61704100
| 10>  C     -1.14645900     -1.16881600     -0.44111700
| 11>  C     -2.73894100     -0.32285300      0.72971800
| 12>  C     -2.85063900      0.79406000     -0.05898700
| 13>  C     -3.75939600      0.83781700     -1.24752900
| 14> Fe      1.49222300      0.17324300     -0.05965600
| 15> Cl      1.88436100      2.11650300     -0.98627800
| 16>  C     -2.02147300      2.00721300      0.17387200
| 17> Cl      2.63916400     -1.52544300     -0.84006500
| 18> Cl      1.52249600      0.26538700      2.14169700
| 19>  H     -3.44387700     -1.12820200      0.52721800
| 20>  H     -2.49403300      2.90675300     -0.23058200
| 21>  H     -1.76739700      2.16487700      1.22361400
| 22>  H     -1.07235100      1.86604100     -0.36975000
| 23>  H     -4.53226200      1.59766800     -1.06811200
| 24>  H     -3.22003500      1.15807700     -2.14838700
| 25>  H     -4.25832000     -0.11414800     -1.43971400
| 26>  C     -2.19937600     -0.25683900      2.14355100
| 27>  H     -2.83814800      0.39610500      2.75075200
| 28>  H     -2.20384100     -1.24189700      2.61377300
| 29>  H     -1.18141100      0.13614800      2.19319500
| 30>  C     -0.78417700     -2.26719600      0.53634700
| 31>  H     -1.63310000     -2.90825900      0.78238100
| 32>  H     -0.02779900     -2.87413600      0.01978900
| 33>  H     -0.32315500     -1.87737200      1.44292300
| 34>  C     -1.86158300     -1.63681000     -1.69055300
| 35>  H     -1.15741000     -2.30020100     -2.20948200
| 36>  H     -2.76702700     -2.20741400     -1.47294600
| 37>  H     -2.08284900     -0.80691700     -2.36012600
| 38> *
| 39> 
| 40> 
| 41>                          ****END OF INPUT****
================================================================================

                       ****************************
                       * Single Point Calculation *
                       ****************************

---------------------------------
CARTESIAN COORDINATES (ANGSTROEM)
---------------------------------
  O     -0.300610   -0.218809   -0.617041
  C     -1.146459   -1.168816   -0.441117
  C     -2.738941   -0.322853    0.729718
  C     -2.850639    0.794060   -0.058987
  C     -3.759396    0.837817   -1.247529
  Fe     1.492223    0.173243   -0.059656
  Cl     1.884361    2.116503   -0.986278
  C     -2.021473    2.007213    0.173872
  Cl     2.639164   -1.525443   -0.840065
  Cl     1.522496    0.265387    2.141697
  H     -3.443877   -1.128202    0.527218
  H     -2.494033    2.906753   -0.230582
  H     -1.767397    2.164877    1.223614
  H     -1.072351    1.866041   -0.369750
  H     -4.532262    1.597668   -1.068112
  H     -3.220035    1.158077   -2.148387
  H     -4.258320   -0.114148   -1.439714
  C     -2.199376   -0.256839    2.143551
  H     -2.838148    0.396105    2.750752
  H     -2.203841   -1.241897    2.613773
  H     -1.181411    0.136148    2.193195
  C     -0.784177   -2.267196    0.536347
  H     -1.633100   -2.908259    0.782381
  H     -0.027799   -2.874136    0.019789
  H     -0.323155   -1.877372    1.442923
  C     -1.861583   -1.636810   -1.690553
  H     -1.157410   -2.300201   -2.209482
  H     -2.767027   -2.207414   -1.472946
  H     -2.082849   -0.806917   -2.360126

----------------------------
CARTESIAN COORDINATES (A.U.)
----------------------------
  NO LB      ZA    FRAG     MASS         X           Y           Z
   0 O     8.0000    0    15.999   -0.568071   -0.413489   -1.166039
   1 C     6.0000    0    12.011   -2.166494   -2.208742   -0.833590
   2 C     6.0000    0    12.011   -5.175848   -0.610104    1.378967
   3 C     6.0000    0    12.011   -5.386927    1.500556   -0.111469
   4 C     6.0000    0    12.011   -7.104229    1.583245   -2.357488
   5 Fe   26.0000    0    55.850    2.819893    0.327382   -0.112734
   6 Cl   17.0000    0    35.453    3.560926    3.999611   -1.863795
   7 C     6.0000    0    12.011   -3.820030    3.793083    0.328570
   8 Cl   17.0000    0    35.453    4.987297   -2.882670   -1.587493
   9 Cl   17.0000    0    35.453    2.877100    0.501509    4.047221
  10 H     1.0000    0     1.008   -6.507984   -2.131993    0.996298
  11 H     1.0000    0     1.008   -4.713039    5.492967   -0.435737
  12 H     1.0000    0     1.008   -3.339896    4.091025    2.312295
  13 H     1.0000    0     1.008   -2.026450    3.526306   -0.698726
  14 H     1.0000    0     1.008   -8.564734    3.019155   -2.018439
  15 H     1.0000    0     1.008   -6.084984    2.188448   -4.059863
  16 H     1.0000    0     1.008   -8.047059   -0.215708   -2.720665
  17 C     6.0000    0    12.011   -4.156218   -0.485355    4.050724
  18 H     1.0000    0     1.008   -5.363322    0.748530    5.198168
  19 H     1.0000    0     1.008   -4.164656   -2.346845    4.939315
  20 H     1.0000    0     1.008   -2.232543    0.257282    4.144538
  21 C     6.0000    0    12.011   -1.481880   -4.284380    1.013549
  22 H     1.0000    0     1.008   -3.086112   -5.495813    1.478486
  23 H     1.0000    0     1.008   -0.052532   -5.431330    0.037396
  24 H     1.0000    0     1.008   -0.610674   -3.547719    2.726729
  25 C     6.0000    0    12.011   -3.517882   -3.093123   -3.194682
  26 H     1.0000    0     1.008   -2.187188   -4.346750   -4.175316
  27 H     1.0000    0     1.008   -5.228923   -4.171408   -2.783465
  28 H     1.0000    0     1.008   -3.936014   -1.524852   -4.459992



           ************************************************************
           *        Program running with 10 parallel MPI-processes    *
           *              working on a common directory               *
           ************************************************************


           ************************************************************
           *        Program running with 10 parallel MPI-processes    *
           *              working on a common directory               *
           ************************************************************

Diagonalization of the overlap matrix:
Smallest eigenvalue                        ... 8.081e-07
Time for diagonalization                   ...    0.329 sec
Threshold for overlap eigenvalues          ... 1.000e-08
Number of eigenvalues below threshold      ... 0
Time for construction of square roots      ...    0.267 sec
Total time needed                          ...    0.601 sec

-------------------
DFT GRID GENERATION
-------------------

General Integration Accuracy     IntAcc      ...  4.340
Radial Grid Type                 RadialGrid  ... Gauss-Chebyshev
Angular Grid (max. acc.)         AngularGrid ... Lebedev-110
Angular grid pruning method      GridPruning ... 3 (G Style)
Weight generation scheme         WeightScheme... Becke
Basis function cutoff            BFCut       ...    1.0000e-11
Integration weight cutoff        WCut        ...    1.0000e-14
Grids for H and He will be reduced by one unit

# of grid points (after initial pruning)     ...  36112 (   0.0 sec)
# of grid points (after weights+screening)   ...  32337 (   0.1 sec)
nearest neighbour list constructed           ...    0.0 sec
Grid point re-assignment to atoms done       ...    0.0 sec
Grid point division into batches done        ...    0.0 sec
Reduced shell lists constructed in    0.2 sec

Total number of grid points                  ...    32337
Total number of batches                      ...      523
Average number of points per batch           ...       61
Average number of grid points per atom       ...     1115
Average number of shells per batch           ...   291.28 (84.92%)
Average number of basis functions per batch  ...   865.39 (84.43%)
Average number of large shells per batch     ...   237.74 (81.62%)
Average number of large basis fcns per batch ...   706.67 (81.66%)
Maximum spatial batch extension              ...   3.50,  3.71,  3.37 au
Average spatial batch extension              ...   0.18,  0.18,  0.17 au

Time for grid setup =    0.373 sec

Loading Hartree-Fock densities                     ... done
Calculating cut-offs                               ... done
Setting up the integral package                    ... done
Initializing the effective Hamiltonian             ... done
Starting the Coulomb interaction                   ... done (   1.1 sec)
Reading the grid                                   ... done
Mapping shells                                     ... done
Starting the XC term evaluation                    ... done (   0.9 sec)
Transforming the Hamiltonian                       ... done (   0.2 sec)
Diagonalizing the Hamiltonian                      ... done (   0.3 sec)
Back transforming the eigenvectors                 ... done (   0.1 sec)
Now organizing SCF variables                       ... done
--------------
SCF ITERATIONS
--------------
ITER       Energy         Delta-E        Max-DP      RMS-DP      [F,P]     Damp
               ***  Starting incremental Fock matrix formation  ***
  0  -3027.5760704432   0.000000000000 0.31623877  0.00110126  0.2658733 0.7000
  1  -3027.8254631607  -0.249392717536 0.23697663  0.00086002  0.1585670 0.7000
                               ***Turning on DIIS***
  2  -3027.9930771120  -0.167613951265 0.16690418  0.00063121  0.1094910 0.7000
  3  -3029.6048027587  -1.611725646740 0.37256640  0.00156784  0.0820181 0.0000
  4  -3028.2944025049   1.310400253831 0.04733231  0.00021822  0.0208200 0.0000
  5  -3028.4101458558  -0.115743350864 0.03935536  0.00017404  0.0122412 0.0000
  6  -3028.4549196001  -0.044773744362 0.02121723  0.00007309  0.0054952 0.0000
  7  -3028.4688990987  -0.013979498573 0.00869213  0.00003339  0.0036094 0.0000
  8  -3028.4580367078   0.010862390891 0.00585674  0.00001934  0.0015483 0.0000
  9  -3028.4537133347   0.004323373113 0.00334104  0.00001161  0.0007673 0.0000
 10  -3028.4420662527   0.011647082022 0.00089992  0.00000320  0.0003748 0.0000
 11  -3028.4471779556  -0.005111702892 0.00046619  0.00000176  0.0000733 0.0000
 12  -3028.4450750875   0.002102868048 0.00035749  0.00000122  0.0000218 0.0000
 13  -3028.4451771936  -0.000102106105 0.00066373  0.00000172  0.0000097 0.0000
 14  -3028.4452288456  -0.000051651964 0.00074241  0.00000205  0.0000044 0.0000
 15  -3028.4451529597   0.000075885895 0.00092017  0.00000220  0.0000028 0.0000
 16  -3028.4451816241  -0.000028664347 0.00085763  0.00000217  0.0000018 0.0000
 17  -3028.4451962991  -0.000014675069 0.00072568  0.00000196  0.0000011 0.0000
                            ***DIIS convergence achieved***

               *****************************************************
               *                     SUCCESS                       *
               *           SCF CONVERGED AFTER  18 CYCLES          *
               *****************************************************

Total Energy       :        -3028.44517969 Eh          -82408.18289 eV
  Last Energy change         ...    1.6607e-05  Tolerance :   1.0000e-08
  Last MAX-Density change    ...    1.4916e-03  Tolerance :   1.0000e-07
             **** THE GBW FILE WAS UPDATED (simple-grid-215-280-b3lyp_d3bj-631gd-gas-singlepoint-DLPNO_CCSD_T1-NormalPNO-augtz-gas.gbw) ****
             **** DENSITY FILE WAS UPDATED (simple-grid-215-280-b3lyp_d3bj-631gd-gas-singlepoint-DLPNO_CCSD_T1-NormalPNO-augtz-gas.scfp.tmp) ****
             **** ENERGY FILE WAS UPDATED (simple-grid-215-280-b3lyp_d3bj-631gd-gas-singlepoint-DLPNO_CCSD_T1-NormalPNO-augtz-gas.en.tmp) ****
----------------------
UHF SPIN CONTAMINATION
----------------------

Expectation value of <S**2>     :     8.764948
Ideal value S*(S+1) for S=2.5   :     8.750000
Deviation                       :     0.014948

----------------
ORBITAL ENERGIES
----------------
                 SPIN UP ORBITALS
  NO   OCC          E(Eh)            E(eV) 
   0   1.0000    -261.561422     -7117.4481 
   1   1.0000    -104.783718     -2851.3099 
   2   1.0000    -104.780524     -2851.2230 
   3   1.0000    -104.779194     -2851.1868 
   4   1.0000     -32.229256      -877.0026 
   5   1.0000     -27.705505      -753.9051 
   6   1.0000     -27.704731      -753.8841 
   7   1.0000     -27.704564      -753.8795 
   8   1.0000     -20.585356      -560.1560 
   9   1.0000     -11.406430      -310.3847 
  10   1.0000     -11.317155      -307.9554 
  11   1.0000     -11.268576      -306.6335 
  12   1.0000     -11.266394      -306.5742 
  13   1.0000     -11.265328      -306.5452 
  14   1.0000     -11.261566      -306.4428 
  15   1.0000     -11.248772      -306.0946 
  16   1.0000     -11.243506      -305.9513 
  17   1.0000     -10.510379      -286.0020 
  18   1.0000     -10.507174      -285.9148 
  19   1.0000     -10.505796      -285.8772 
  20   1.0000      -7.977231      -217.0715 
  21   1.0000      -7.976426      -217.0496 
  22   1.0000      -7.976410      -217.0492 
  23   1.0000      -7.974031      -216.9844 
  24   1.0000      -7.973276      -216.9639 
  25   1.0000      -7.973205      -216.9619 
  26   1.0000      -7.972612      -216.9458 
  27   1.0000      -7.971917      -216.9269 
  28   1.0000      -7.971837      -216.9247 
  29   1.0000      -4.584454      -124.7493 
  30   1.0000      -3.197431       -87.0065 
  31   1.0000      -3.196120       -86.9708 
  32   1.0000      -3.195859       -86.9637 
  33   1.0000      -1.428992       -38.8849 
  34   1.0000      -1.157625       -31.5006 
  35   1.0000      -1.088000       -29.6060 
  36   1.0000      -1.055586       -28.7240 
  37   1.0000      -1.050118       -28.5752 
  38   1.0000      -1.047324       -28.4991 
  39   1.0000      -1.034948       -28.1624 
  40   1.0000      -0.995759       -27.0960 
  41   1.0000      -0.983827       -26.7713 
  42   1.0000      -0.930601       -25.3229 
  43   1.0000      -0.914025       -24.8719 
  44   1.0000      -0.913655       -24.8618 
  45   1.0000      -0.913523       -24.8582 
  46   1.0000      -0.903712       -24.5912 
  47   1.0000      -0.903198       -24.5773 
  48   1.0000      -0.798248       -21.7214 
  49   1.0000      -0.754025       -20.5181 
  50   1.0000      -0.693070       -18.8594 
  51   1.0000      -0.685769       -18.6607 
  52   1.0000      -0.681363       -18.5408 
  53   1.0000      -0.671857       -18.2822 
  54   1.0000      -0.642582       -17.4856 
  55   1.0000      -0.623530       -16.9671 
  56   1.0000      -0.603717       -16.4280 
  57   1.0000      -0.595711       -16.2101 
  58   1.0000      -0.582223       -15.8431 
  59   1.0000      -0.574693       -15.6382 
  60   1.0000      -0.572484       -15.5781 
  61   1.0000      -0.562416       -15.3041 
  62   1.0000      -0.556940       -15.1551 
  63   1.0000      -0.541480       -14.7344 
  64   1.0000      -0.537591       -14.6286 
  65   1.0000      -0.522558       -14.2195 
  66   1.0000      -0.516490       -14.0544 
  67   1.0000      -0.486923       -13.2498 
  68   1.0000      -0.468612       -12.7516 
  69   1.0000      -0.462421       -12.5831 
  70   1.0000      -0.435871       -11.8607 
  71   1.0000      -0.431760       -11.7488 
  72   1.0000      -0.429204       -11.6792 
  73   1.0000      -0.420894       -11.4531 
  74   1.0000      -0.419453       -11.4139 
  75   1.0000      -0.418477       -11.3873 
  76   1.0000      -0.376970       -10.2579 
  77   0.0000       0.010261         0.2792 
  78   0.0000       0.020920         0.5693 
  79   0.0000       0.022484         0.6118 
  80   0.0000       0.028137         0.7656 
  81   0.0000       0.035810         0.9744 
  82   0.0000       0.039671         1.0795 
  83   0.0000       0.040994         1.1155 
  84   0.0000       0.043922         1.1952 
  85   0.0000       0.045248         1.2313 
  86   0.0000       0.047686         1.2976 
  87   0.0000       0.057415         1.5623 
  88   0.0000       0.059391         1.6161 
  89   0.0000       0.061637         1.6772 
  90   0.0000       0.062432         1.6989 
  91   0.0000       0.064600         1.7579 
  92   0.0000       0.071038         1.9330 
  93   0.0000       0.076361         2.0779 
  94   0.0000       0.082992         2.2583 
  95   0.0000       0.088616         2.4114 
  96   0.0000       0.091269         2.4836 
  97   0.0000       0.093007         2.5309 
  98   0.0000       0.098637         2.6840 
  99   0.0000       0.099682         2.7125 
 100   0.0000       0.104164         2.8345 
 101   0.0000       0.107464         2.9242 
 102   0.0000       0.115575         3.1449 
 103   0.0000       0.120251         3.2722 
 104   0.0000       0.122730         3.3397 
 105   0.0000       0.123540         3.3617 
 106   0.0000       0.123853         3.3702 
 107   0.0000       0.130558         3.5527 
 108   0.0000       0.130836         3.5602 
 109   0.0000       0.132813         3.6140 
 110   0.0000       0.136460         3.7133 
 111   0.0000       0.137536         3.7426 
 112   0.0000       0.144647         3.9360 
 113   0.0000       0.149010         4.0548 
 114   0.0000       0.154348         4.2000 
 115   0.0000       0.155431         4.2295 
 116   0.0000       0.155998         4.2449 
 117   0.0000       0.159925         4.3518 
 118   0.0000       0.161349         4.3905 
 119   0.0000       0.165468         4.5026 
 120   0.0000       0.169178         4.6036 
 121   0.0000       0.170808         4.6479 
 122   0.0000       0.172323         4.6891 
 123   0.0000       0.176363         4.7991 
 124   0.0000       0.181310         4.9337 
 125   0.0000       0.183317         4.9883 
 126   0.0000       0.186337         5.0705 
 127   0.0000       0.188737         5.1358 
 128   0.0000       0.190785         5.1915 
 129   0.0000       0.199728         5.4349 
 130   0.0000       0.201882         5.4935 
 131   0.0000       0.204719         5.5707 
 132   0.0000       0.206253         5.6124 
 133   0.0000       0.206564         5.6209 
 134   0.0000       0.215931         5.8758 
 135   0.0000       0.217577         5.9206 
 136   0.0000       0.220242         5.9931 
 137   0.0000       0.223310         6.0766 
 138   0.0000       0.227944         6.2027 
 139   0.0000       0.228325         6.2130 
 140   0.0000       0.232502         6.3267 
 141   0.0000       0.233776         6.3614 
 142   0.0000       0.237525         6.4634 
 143   0.0000       0.241047         6.5592 
 144   0.0000       0.246362         6.7039 
 145   0.0000       0.249200         6.7811 
 146   0.0000       0.252309         6.8657 
 147   0.0000       0.256507         6.9799 
 148   0.0000       0.260964         7.1012 
 149   0.0000       0.262902         7.1539 
 150   0.0000       0.270004         7.3472 
 151   0.0000       0.273025         7.4294 
 152   0.0000       0.276858         7.5337 
 153   0.0000       0.282206         7.6792 
 154   0.0000       0.284244         7.7347 
 155   0.0000       0.288221         7.8429 
 156   0.0000       0.291796         7.9402 
 157   0.0000       0.293735         7.9929 
 158   0.0000       0.298152         8.1131 
 159   0.0000       0.299821         8.1585 
 160   0.0000       0.306949         8.3525 
 161   0.0000       0.312678         8.5084 
 162   0.0000       0.317072         8.6280 
 163   0.0000       0.320882         8.7316 
 164   0.0000       0.326908         8.8956 
 165   0.0000       0.329199         8.9579 
 166   0.0000       0.330464         8.9924 
 167   0.0000       0.334031         9.0895 
 168   0.0000       0.340267         9.2591 
 169   0.0000       0.340702         9.2710 
 170   0.0000       0.345619         9.4048 
 171   0.0000       0.347482         9.4555 
 172   0.0000       0.353931         9.6310 
 173   0.0000       0.355967         9.6863 
 174   0.0000       0.360707         9.8153 
 175   0.0000       0.362549         9.8655 
 176   0.0000       0.365289         9.9400 
 177   0.0000       0.369849        10.0641 
 178   0.0000       0.373383        10.1603 
 179   0.0000       0.377787        10.2801 
 180   0.0000       0.379228        10.3193 
 181   0.0000       0.382842        10.4177 
 182   0.0000       0.384759        10.4698 
 183   0.0000       0.387639        10.5482 
 184   0.0000       0.389516        10.5993 
 185   0.0000       0.392360        10.6767 
 186   0.0000       0.395761        10.7692 
 187   0.0000       0.397064        10.8047 
 188   0.0000       0.402746        10.9593 
 189   0.0000       0.409596        11.1457 
 190   0.0000       0.414150        11.2696 
 191   0.0000       0.416698        11.3389 
 192   0.0000       0.419702        11.4207 
 193   0.0000       0.422340        11.4924 
 194   0.0000       0.427519        11.6334 
 195   0.0000       0.432589        11.7713 
 196   0.0000       0.436679        11.8826 
 197   0.0000       0.440230        11.9793 
 198   0.0000       0.444175        12.0866 
 199   0.0000       0.446402        12.1472 
 200   0.0000       0.450023        12.2457 
 201   0.0000       0.453337        12.3359 
 202   0.0000       0.458261        12.4699 
 203   0.0000       0.462149        12.5757 
 204   0.0000       0.463753        12.6194 
 205   0.0000       0.466242        12.6871 
 206   0.0000       0.471083        12.8188 
 207   0.0000       0.473143        12.8749 
 208   0.0000       0.475408        12.9365 
 209   0.0000       0.476609        12.9692 
 210   0.0000       0.479804        13.0561 
 211   0.0000       0.485867        13.2211 
 212   0.0000       0.489522        13.3206 
 213   0.0000       0.494229        13.4487 
 214   0.0000       0.498954        13.5772 
 215   0.0000       0.500300        13.6139 
 216   0.0000       0.503872        13.7111 
 217   0.0000       0.508495        13.8369 
 218   0.0000       0.510972        13.9042 
 219   0.0000       0.512533        13.9467 
 220   0.0000       0.516622        14.0580 
 221   0.0000       0.521129        14.1806 
 222   0.0000       0.521530        14.1916 
 223   0.0000       0.522782        14.2256 
 224   0.0000       0.525948        14.3118 
 225   0.0000       0.528877        14.3915 
 226   0.0000       0.532193        14.4817 
 227   0.0000       0.535032        14.5590 
 228   0.0000       0.537256        14.6195 
 229   0.0000       0.544681        14.8215 
 230   0.0000       0.547421        14.8961 
 231   0.0000       0.550241        14.9728 
 232   0.0000       0.552973        15.0472 
 233   0.0000       0.558354        15.1936 
 234   0.0000       0.564451        15.3595 
 235   0.0000       0.566055        15.4031 
 236   0.0000       0.571753        15.5582 
 237   0.0000       0.575648        15.6642 
 238   0.0000       0.576145        15.6777 
 239   0.0000       0.579659        15.7733 
 240   0.0000       0.583954        15.8902 
 241   0.0000       0.585564        15.9340 
 242   0.0000       0.589233        16.0338 
 243   0.0000       0.596700        16.2370 
 244   0.0000       0.597393        16.2559 
 245   0.0000       0.602351        16.3908 
 246   0.0000       0.604766        16.4565 
 247   0.0000       0.608084        16.5468 
 248   0.0000       0.611810        16.6482 
 249   0.0000       0.613169        16.6852 
 250   0.0000       0.618757        16.8372 
 251   0.0000       0.622563        16.9408 
 252   0.0000       0.627499        17.0751 
 253   0.0000       0.632654        17.2154 
 254   0.0000       0.635167        17.2838 
 255   0.0000       0.641778        17.4637 
 256   0.0000       0.646128        17.5820 
 257   0.0000       0.653784        17.7904 
 258   0.0000       0.655474        17.8364 
 259   0.0000       0.658846        17.9281 
 260   0.0000       0.662582        18.0298 
 261   0.0000       0.664942        18.0940 
 262   0.0000       0.667059        18.1516 
 263   0.0000       0.668377        18.1875 
 264   0.0000       0.671958        18.2849 
 265   0.0000       0.682481        18.5712 
 266   0.0000       0.689052        18.7501 
 267   0.0000       0.691063        18.8048 
 268   0.0000       0.693397        18.8683 
 269   0.0000       0.699734        19.0407 
 270   0.0000       0.708550        19.2806 
 271   0.0000       0.712162        19.3789 
 272   0.0000       0.713704        19.4209 
 273   0.0000       0.721336        19.6286 
 274   0.0000       0.724045        19.7023 
 275   0.0000       0.728741        19.8301 
 276   0.0000       0.731127        19.8950 
 277   0.0000       0.740435        20.1483 
 278   0.0000       0.742631        20.2080 
 279   0.0000       0.743965        20.2443 
 280   0.0000       0.747667        20.3451 
 281   0.0000       0.749900        20.4058 
 282   0.0000       0.755517        20.5586 
 283   0.0000       0.767124        20.8745 
 284   0.0000       0.770998        20.9799 
 285   0.0000       0.775744        21.1091 
 286   0.0000       0.782167        21.2839 
 287   0.0000       0.787247        21.4221 
 288   0.0000       0.792571        21.5670 
 289   0.0000       0.800508        21.7829 
 290   0.0000       0.811336        22.0776 
 291   0.0000       0.814701        22.1692 
 292   0.0000       0.821096        22.3431 
 293   0.0000       0.828312        22.5395 
 294   0.0000       0.834950        22.7201 
 295   0.0000       0.840588        22.8736 
 296   0.0000       0.842615        22.9287 
 297   0.0000       0.846893        23.0451 
 298   0.0000       0.847817        23.0703 
 299   0.0000       0.858049        23.3487 
 300   0.0000       0.861941        23.4546 
 301   0.0000       0.869029        23.6475 
 302   0.0000       0.869748        23.6670 
 303   0.0000       0.874323        23.7915 
 304   0.0000       0.883639        24.0450 
 305   0.0000       0.883892        24.0519 
 306   0.0000       0.891607        24.2619 
 307   0.0000       0.895696        24.3731 
 308   0.0000       0.899049        24.4644 
 309   0.0000       0.905317        24.6349 
 310   0.0000       0.906839        24.6763 
 311   0.0000       0.912776        24.8379 
 312   0.0000       0.916616        24.9424 
 313   0.0000       0.918583        24.9959 
 314   0.0000       0.923310        25.1245 
 315   0.0000       0.925433        25.1823 
 316   0.0000       0.931846        25.3568 
 317   0.0000       0.935978        25.4692 
 318   0.0000       0.938030        25.5251 
 319   0.0000       0.943347        25.6698 
 320   0.0000       0.944883        25.7116 
 321   0.0000       0.949281        25.8312 
 322   0.0000       0.953902        25.9570 
 323   0.0000       0.960203        26.1284 
 324   0.0000       0.963364        26.2145 
 325   0.0000       0.963982        26.2313 
 326   0.0000       0.970726        26.4148 
 327   0.0000       0.972138        26.4532 
 328   0.0000       0.976902        26.5829 
 329   0.0000       0.979840        26.6628 
 330   0.0000       0.981806        26.7163 
 331   0.0000       0.983222        26.7548 
 332   0.0000       0.988009        26.8851 
 333   0.0000       0.994959        27.0742 
 334   0.0000       0.997024        27.1304 
 335   0.0000       1.001847        27.2617 
 336   0.0000       1.003664        27.3111 
 337   0.0000       1.009129        27.4598 
 338   0.0000       1.012077        27.5400 
 339   0.0000       1.014719        27.6119 
 340   0.0000       1.020289        27.7635 
 341   0.0000       1.023266        27.8445 
 342   0.0000       1.024244        27.8711 
 343   0.0000       1.031934        28.0803 
 344   0.0000       1.034377        28.1468 
 345   0.0000       1.038558        28.2606 
 346   0.0000       1.042592        28.3704 
 347   0.0000       1.048448        28.5297 
 348   0.0000       1.049911        28.5695 
 349   0.0000       1.051751        28.6196 
 350   0.0000       1.053396        28.6644 
 351   0.0000       1.058398        28.8005 
 352   0.0000       1.062899        28.9230 
 353   0.0000       1.064518        28.9670 
 354   0.0000       1.070374        29.1264 
 355   0.0000       1.075211        29.2580 
 356   0.0000       1.083472        29.4828 
 357   0.0000       1.085381        29.5347 
 358   0.0000       1.089801        29.6550 
 359   0.0000       1.091848        29.7107 
 360   0.0000       1.096043        29.8249 
 361   0.0000       1.098638        29.8955 
 362   0.0000       1.103138        30.0179 
 363   0.0000       1.108758        30.1708 
 364   0.0000       1.114180        30.3184 
 365   0.0000       1.117468        30.4079 
 366   0.0000       1.121934        30.5294 
 367   0.0000       1.122686        30.5499 
 368   0.0000       1.131065        30.7778 
 369   0.0000       1.132072        30.8052 
 370   0.0000       1.139567        31.0092 
 371   0.0000       1.143120        31.1059 
 372   0.0000       1.144496        31.1433 
 373   0.0000       1.147429        31.2231 
 374   0.0000       1.151371        31.3304 
 375   0.0000       1.158451        31.5231 
 376   0.0000       1.163014        31.6472 
 377   0.0000       1.173056        31.9205 
 378   0.0000       1.173444        31.9310 
 379   0.0000       1.176958        32.0266 
 380   0.0000       1.182391        32.1745 
 381   0.0000       1.188625        32.3441 
 382   0.0000       1.190299        32.3897 
 383   0.0000       1.192526        32.4503 
 384   0.0000       1.196799        32.5666 
 385   0.0000       1.203600        32.7516 
 386   0.0000       1.212204        32.9857 
 387   0.0000       1.216001        33.0891 
 388   0.0000       1.221971        33.2515 
 389   0.0000       1.222429        33.2640 
 390   0.0000       1.225959        33.3601 
 391   0.0000       1.229905        33.4674 
 392   0.0000       1.240345        33.7515 
 393   0.0000       1.242200        33.8020 
 394   0.0000       1.244624        33.8679 
 395   0.0000       1.252470        34.0814 
 396   0.0000       1.258825        34.2544 
 397   0.0000       1.265939        34.4480 
 398   0.0000       1.269220        34.5372 
 399   0.0000       1.274027        34.6680 
 400   0.0000       1.276699        34.7408 
 401   0.0000       1.285038        34.9677 
 402   0.0000       1.287282        35.0287 
 403   0.0000       1.288036        35.0492 
 404   0.0000       1.291018        35.1304 
 405   0.0000       1.298541        35.3351 
 406   0.0000       1.301600        35.4183 
 407   0.0000       1.306712        35.5574 
 408   0.0000       1.314564        35.7711 
 409   0.0000       1.316945        35.8359 
 410   0.0000       1.321976        35.9728 
 411   0.0000       1.326958        36.1084 
 412   0.0000       1.335081        36.3294 
 413   0.0000       1.340484        36.4764 
 414   0.0000       1.349777        36.7293 
 415   0.0000       1.351908        36.7873 
 416   0.0000       1.354194        36.8495 
 417   0.0000       1.360666        37.0256 
 418   0.0000       1.362283        37.0696 
 419   0.0000       1.369815        37.2746 
 420   0.0000       1.381196        37.5843 
 421   0.0000       1.382640        37.6235 
 422   0.0000       1.384311        37.6690 
 423   0.0000       1.393054        37.9069 
 424   0.0000       1.399069        38.0706 
 425   0.0000       1.407733        38.3064 
 426   0.0000       1.410657        38.3859 
 427   0.0000       1.419567        38.6284 
 428   0.0000       1.425724        38.7959 
 429   0.0000       1.429900        38.9096 
 430   0.0000       1.435752        39.0688 
 431   0.0000       1.437589        39.1188 
 432   0.0000       1.441675        39.2300 
 433   0.0000       1.444298        39.3014 
 434   0.0000       1.452467        39.5236 
 435   0.0000       1.458683        39.6928 
 436   0.0000       1.461590        39.7719 
 437   0.0000       1.462921        39.8081 
 438   0.0000       1.465879        39.8886 
 439   0.0000       1.476060        40.1656 
 440   0.0000       1.479932        40.2710 
 441   0.0000       1.488277        40.4981 
 442   0.0000       1.490191        40.5501 
 443   0.0000       1.493057        40.6281 
 444   0.0000       1.501502        40.8579 
 445   0.0000       1.505696        40.9721 
 446   0.0000       1.518326        41.3157 
 447   0.0000       1.525519        41.5115 
 448   0.0000       1.529095        41.6088 
 449   0.0000       1.534302        41.7505 
 450   0.0000       1.535023        41.7701 
 451   0.0000       1.543895        42.0115 
 452   0.0000       1.548058        42.1248 
 453   0.0000       1.550946        42.2034 
 454   0.0000       1.558536        42.4099 
 455   0.0000       1.563390        42.5420 
 456   0.0000       1.566152        42.6172 
 457   0.0000       1.566211        42.6188 
 458   0.0000       1.576310        42.8936 
 459   0.0000       1.584700        43.1219 
 460   0.0000       1.590109        43.2691 
 461   0.0000       1.595797        43.4239 
 462   0.0000       1.599606        43.5275 
 463   0.0000       1.601590        43.5815 
 464   0.0000       1.608217        43.7618 
 465   0.0000       1.612847        43.8878 
 466   0.0000       1.619175        44.0600 
 467   0.0000       1.621848        44.1327 
 468   0.0000       1.627457        44.2854 
 469   0.0000       1.632278        44.4165 
 470   0.0000       1.637118        44.5482 
 471   0.0000       1.647847        44.8402 
 472   0.0000       1.650667        44.9169 
 473   0.0000       1.654462        45.0202 
 474   0.0000       1.662694        45.2442 
 475   0.0000       1.670633        45.4602 
 476   0.0000       1.675697        45.5980 
 477   0.0000       1.681374        45.7525 
 478   0.0000       1.685016        45.8516 
 479   0.0000       1.691026        46.0152 
 480   0.0000       1.691739        46.0345 
 481   0.0000       1.695623        46.1402 
 482   0.0000       1.700985        46.2862 
 483   0.0000       1.705643        46.4129 
 484   0.0000       1.715588        46.6835 
 485   0.0000       1.717034        46.7229 
 486   0.0000       1.720978        46.8302 
 487   0.0000       1.723904        46.9098 
 488   0.0000       1.730638        47.0931 
 489   0.0000       1.733514        47.1713 
 490   0.0000       1.743603        47.4459 
 491   0.0000       1.748906        47.5902 
 492   0.0000       1.757897        47.8348 
 493   0.0000       1.760193        47.8973 
 494   0.0000       1.762861        47.9699 
 495   0.0000       1.771954        48.2173 
 496   0.0000       1.781642        48.4809 
 497   0.0000       1.786624        48.6165 
 498   0.0000       1.791889        48.7598 
 499   0.0000       1.794528        48.8316 
 500   0.0000       1.802141        49.0388 
 501   0.0000       1.803582        49.0780 
 502   0.0000       1.809168        49.2300 
 503   0.0000       1.819350        49.5070 
 504   0.0000       1.822815        49.6013 
 505   0.0000       1.826312        49.6965 
 506   0.0000       1.835111        49.9359 
 507   0.0000       1.835820        49.9552 
 508   0.0000       1.843829        50.1731 
 509   0.0000       1.849426        50.3254 
 510   0.0000       1.850279        50.3487 
 511   0.0000       1.855894        50.5014 
 512   0.0000       1.861672        50.6587 
 513   0.0000       1.864186        50.7271 
 514   0.0000       1.872621        50.9566 
 515   0.0000       1.877492        51.0892 
 516   0.0000       1.881923        51.2097 
 517   0.0000       1.887329        51.3568 
 518   0.0000       1.890964        51.4557 
 519   0.0000       1.896631        51.6100 
 520   0.0000       1.901098        51.7315 
 521   0.0000       1.906257        51.8719 
 522   0.0000       1.910250        51.9805 
 523   0.0000       1.916585        52.1529 
 524   0.0000       1.917084        52.1665 
 525   0.0000       1.920930        52.2712 
 526   0.0000       1.925311        52.3904 
 527   0.0000       1.933992        52.6266 
 528   0.0000       1.936477        52.6942 
 529   0.0000       1.946225        52.9595 
 530   0.0000       1.951249        53.0962 
 531   0.0000       1.954577        53.1867 
 532   0.0000       1.959810        53.3292 
 533   0.0000       1.962853        53.4120 
 534   0.0000       1.974151        53.7194 
 535   0.0000       1.975572        53.7580 
 536   0.0000       1.989554        54.1385 
 537   0.0000       1.993782        54.2536 
 538   0.0000       2.005928        54.5841 
 539   0.0000       2.007032        54.6141 
 540   0.0000       2.014096        54.8063 
 541   0.0000       2.021093        54.9967 
 542   0.0000       2.023736        55.0686 
 543   0.0000       2.035103        55.3780 
 544   0.0000       2.042315        55.5742 
 545   0.0000       2.050989        55.8103 
 546   0.0000       2.053857        55.8883 
 547   0.0000       2.062286        56.1177 
 548   0.0000       2.067148        56.2499 
 549   0.0000       2.074759        56.4571 
 550   0.0000       2.081011        56.6272 
 551   0.0000       2.083894        56.7056 
 552   0.0000       2.090439        56.8837 
 553   0.0000       2.095104        57.0107 
 554   0.0000       2.105011        57.2803 
 555   0.0000       2.117022        57.6071 
 556   0.0000       2.125085        57.8265 
 557   0.0000       2.131112        57.9905 
 558   0.0000       2.135268        58.1036 
 559   0.0000       2.139617        58.2220 
 560   0.0000       2.145289        58.3763 
 561   0.0000       2.154801        58.6351 
 562   0.0000       2.157201        58.7004 
 563   0.0000       2.167191        58.9723 
 564   0.0000       2.174668        59.1757 
 565   0.0000       2.183432        59.4142 
 566   0.0000       2.196272        59.7636 
 567   0.0000       2.204320        59.9826 
 568   0.0000       2.208424        60.0943 
 569   0.0000       2.214605        60.2625 
 570   0.0000       2.217224        60.3337 
 571   0.0000       2.229099        60.6569 
 572   0.0000       2.233695        60.7819 
 573   0.0000       2.245019        61.0901 
 574   0.0000       2.249547        61.2133 
 575   0.0000       2.254373        61.3446 
 576   0.0000       2.265414        61.6451 
 577   0.0000       2.272658        61.8422 
 578   0.0000       2.276235        61.9395 
 579   0.0000       2.277556        61.9755 
 580   0.0000       2.292326        62.3774 
 581   0.0000       2.296192        62.4826 
 582   0.0000       2.300736        62.6062 
 583   0.0000       2.308827        62.8264 
 584   0.0000       2.322625        63.2018 
 585   0.0000       2.329676        63.3937 
 586   0.0000       2.332880        63.4809 
 587   0.0000       2.340042        63.6758 
 588   0.0000       2.346658        63.8558 
 589   0.0000       2.357992        64.1642 
 590   0.0000       2.361400        64.2570 
 591   0.0000       2.374150        64.6039 
 592   0.0000       2.374997        64.6269 
 593   0.0000       2.388439        64.9927 
 594   0.0000       2.404366        65.4261 
 595   0.0000       2.404993        65.4432 
 596   0.0000       2.413520        65.6752 
 597   0.0000       2.420978        65.8782 
 598   0.0000       2.431007        66.1511 
 599   0.0000       2.437228        66.3203 
 600   0.0000       2.438584        66.3572 
 601   0.0000       2.445798        66.5535 
 602   0.0000       2.463186        67.0267 
 603   0.0000       2.467190        67.1357 
 604   0.0000       2.471361        67.2491 
 605   0.0000       2.486672        67.6658 
 606   0.0000       2.496890        67.9438 
 607   0.0000       2.509888        68.2975 
 608   0.0000       2.521152        68.6040 
 609   0.0000       2.539955        69.1157 
 610   0.0000       2.544735        69.2458 
 611   0.0000       2.547892        69.3317 
 612   0.0000       2.565908        69.8219 
 613   0.0000       2.587373        70.4060 
 614   0.0000       2.598852        70.7184 
 615   0.0000       2.614621        71.1474 
 616   0.0000       2.620775        71.3149 
 617   0.0000       2.622001        71.3483 
 618   0.0000       2.635318        71.7106 
 619   0.0000       2.646636        72.0186 
 620   0.0000       2.668550        72.6149 
 621   0.0000       2.670053        72.6558 
 622   0.0000       2.674692        72.7821 
 623   0.0000       2.680474        72.9394 
 624   0.0000       2.689183        73.1764 
 625   0.0000       2.708400        73.6993 
 626   0.0000       2.712565        73.8127 
 627   0.0000       2.721324        74.0510 
 628   0.0000       2.728147        74.2367 
 629   0.0000       2.731281        74.3219 
 630   0.0000       2.735349        74.4326 
 631   0.0000       2.739491        74.5453 
 632   0.0000       2.754048        74.9415 
 633   0.0000       2.763095        75.1876 
 634   0.0000       2.775292        75.5195 
 635   0.0000       2.785582        75.7995 
 636   0.0000       2.803369        76.2835 
 637   0.0000       2.810625        76.4810 
 638   0.0000       2.828872        76.9775 
 639   0.0000       2.839211        77.2589 
 640   0.0000       2.847923        77.4959 
 641   0.0000       2.854958        77.6874 
 642   0.0000       2.866690        78.0066 
 643   0.0000       2.877000        78.2872 
 644   0.0000       2.892448        78.7075 
 645   0.0000       2.900318        78.9217 
 646   0.0000       2.913271        79.2741 
 647   0.0000       2.928078        79.6771 
 648   0.0000       2.928692        79.6938 
 649   0.0000       2.964423        80.6660 
 650   0.0000       2.965739        80.7019 
 651   0.0000       2.978963        81.0617 
 652   0.0000       3.000616        81.6509 
 653   0.0000       3.014486        82.0283 
 654   0.0000       3.031784        82.4990 
 655   0.0000       3.044970        82.8578 
 656   0.0000       3.062699        83.3403 
 657   0.0000       3.070153        83.5431 
 658   0.0000       3.087372        84.0117 
 659   0.0000       3.097108        84.2766 
 660   0.0000       3.105162        84.4957 
 661   0.0000       3.141389        85.4815 
 662   0.0000       3.149540        85.7033 
 663   0.0000       3.169270        86.2402 
 664   0.0000       3.176032        86.4242 
 665   0.0000       3.194591        86.9292 
 666   0.0000       3.200765        87.0972 
 667   0.0000       3.206650        87.2574 
 668   0.0000       3.218909        87.5910 
 669   0.0000       3.228035        87.8393 
 670   0.0000       3.232055        87.9487 
 671   0.0000       3.244153        88.2779 
 672   0.0000       3.248723        88.4023 
 673   0.0000       3.261330        88.7453 
 674   0.0000       3.267387        88.9101 
 675   0.0000       3.272760        89.0563 
 676   0.0000       3.280932        89.2787 
 677   0.0000       3.293225        89.6132 
 678   0.0000       3.302021        89.8526 
 679   0.0000       3.308278        90.0228 
 680   0.0000       3.318611        90.3040 
 681   0.0000       3.330401        90.6248 
 682   0.0000       3.336017        90.7777 
 683   0.0000       3.345692        91.0409 
 684   0.0000       3.356711        91.3407 
 685   0.0000       3.363012        91.5122 
 686   0.0000       3.369418        91.6865 
 687   0.0000       3.382269        92.0362 
 688   0.0000       3.396318        92.4185 
 689   0.0000       3.405646        92.6723 
 690   0.0000       3.410462        92.8034 
 691   0.0000       3.421035        93.0911 
 692   0.0000       3.434781        93.4652 
 693   0.0000       3.441648        93.6520 
 694   0.0000       3.462861        94.2292 
 695   0.0000       3.467343        94.3512 
 696   0.0000       3.473093        94.5077 
 697   0.0000       3.491075        94.9970 
 698   0.0000       3.493461        95.0619 
 699   0.0000       3.503546        95.3363 
 700   0.0000       3.510383        95.5224 
 701   0.0000       3.518970        95.7560 
 702   0.0000       3.523921        95.8908 
 703   0.0000       3.528903        96.0263 
 704   0.0000       3.539764        96.3219 
 705   0.0000       3.551027        96.6284 
 706   0.0000       3.556373        96.7738 
 707   0.0000       3.559056        96.8468 
 708   0.0000       3.567385        97.0735 
 709   0.0000       3.573875        97.2501 
 710   0.0000       3.591653        97.7338 
 711   0.0000       3.595520        97.8391 
 712   0.0000       3.607864        98.1750 
 713   0.0000       3.611432        98.2720 
 714   0.0000       3.616810        98.4184 
 715   0.0000       3.627448        98.7079 
 716   0.0000       3.630240        98.7839 
 717   0.0000       3.650923        99.3467 
 718   0.0000       3.656235        99.4912 
 719   0.0000       3.664575        99.7182 
 720   0.0000       3.674724        99.9943 
 721   0.0000       3.688353       100.3652 
 722   0.0000       3.693852       100.5148 
 723   0.0000       3.701356       100.7190 
 724   0.0000       3.706268       100.8527 
 725   0.0000       3.717145       101.1486 
 726   0.0000       3.720914       101.2512 
 727   0.0000       3.727037       101.4178 
 728   0.0000       3.730119       101.5017 
 729   0.0000       3.739263       101.7505 
 730   0.0000       3.747361       101.9709 
 731   0.0000       3.759085       102.2899 
 732   0.0000       3.770281       102.5946 
 733   0.0000       3.771702       102.6332 
 734   0.0000       3.779158       102.8361 
 735   0.0000       3.787026       103.0502 
 736   0.0000       3.794161       103.2444 
 737   0.0000       3.802133       103.4613 
 738   0.0000       3.809814       103.6703 
 739   0.0000       3.812567       103.7452 
 740   0.0000       3.813841       103.7799 
 741   0.0000       3.831034       104.2477 
 742   0.0000       3.838592       104.4534 
 743   0.0000       3.841285       104.5267 
 744   0.0000       3.845424       104.6393 
 745   0.0000       3.855040       104.9010 
 746   0.0000       3.863314       105.1261 
 747   0.0000       3.873705       105.4089 
 748   0.0000       3.880531       105.5946 
 749   0.0000       3.883696       105.6807 
 750   0.0000       3.884627       105.7061 
 751   0.0000       3.887986       105.7975 
 752   0.0000       3.902494       106.1923 
 753   0.0000       3.909938       106.3948 
 754   0.0000       3.914463       106.5179 
 755   0.0000       3.923251       106.7571 
 756   0.0000       3.933785       107.0437 
 757   0.0000       3.943668       107.3127 
 758   0.0000       3.947485       107.4165 
 759   0.0000       3.958610       107.7193 
 760   0.0000       3.965507       107.9069 
 761   0.0000       3.975080       108.1674 
 762   0.0000       3.984256       108.4171 
 763   0.0000       3.994868       108.7059 
 764   0.0000       4.001037       108.8737 
 765   0.0000       4.003077       108.9293 
 766   0.0000       4.010395       109.1284 
 767   0.0000       4.016439       109.2929 
 768   0.0000       4.025272       109.5332 
 769   0.0000       4.033257       109.7505 
 770   0.0000       4.036862       109.8486 
 771   0.0000       4.051154       110.2375 
 772   0.0000       4.054924       110.3401 
 773   0.0000       4.060100       110.4809 
 774   0.0000       4.067032       110.6696 
 775   0.0000       4.072478       110.8178 
 776   0.0000       4.073567       110.8474 
 777   0.0000       4.082908       111.1016 
 778   0.0000       4.095816       111.4528 
 779   0.0000       4.101496       111.6074 
 780   0.0000       4.116204       112.0076 
 781   0.0000       4.125135       112.2506 
 782   0.0000       4.134853       112.5151 
 783   0.0000       4.139875       112.6517 
 784   0.0000       4.147467       112.8583 
 785   0.0000       4.157318       113.1264 
 786   0.0000       4.162291       113.2617 
 787   0.0000       4.174152       113.5845 
 788   0.0000       4.181843       113.7937 
 789   0.0000       4.195429       114.1634 
 790   0.0000       4.201220       114.3210 
 791   0.0000       4.208109       114.5085 
 792   0.0000       4.218774       114.7987 
 793   0.0000       4.225424       114.9796 
 794   0.0000       4.231369       115.1414 
 795   0.0000       4.249408       115.6323 
 796   0.0000       4.263156       116.0064 
 797   0.0000       4.264808       116.0513 
 798   0.0000       4.268313       116.1467 
 799   0.0000       4.278335       116.4194 
 800   0.0000       4.288105       116.6853 
 801   0.0000       4.295447       116.8850 
 802   0.0000       4.314581       117.4057 
 803   0.0000       4.320628       117.5703 
 804   0.0000       4.326232       117.7228 
 805   0.0000       4.333649       117.9246 
 806   0.0000       4.341818       118.1469 
 807   0.0000       4.350650       118.3872 
 808   0.0000       4.353104       118.4540 
 809   0.0000       4.365468       118.7904 
 810   0.0000       4.373101       118.9981 
 811   0.0000       4.378856       119.1547 
 812   0.0000       4.381737       119.2331 
 813   0.0000       4.394245       119.5735 
 814   0.0000       4.405406       119.8772 
 815   0.0000       4.412254       120.0635 
 816   0.0000       4.423804       120.3778 
 817   0.0000       4.428595       120.5082 
 818   0.0000       4.443758       120.9208 
 819   0.0000       4.461413       121.4012 
 820   0.0000       4.475231       121.7772 
 821   0.0000       4.479156       121.8840 
 822   0.0000       4.486108       122.0732 
 823   0.0000       4.502085       122.5080 
 824   0.0000       4.509333       122.7052 
 825   0.0000       4.517690       122.9326 
 826   0.0000       4.524406       123.1154 
 827   0.0000       4.524673       123.1226 
 828   0.0000       4.545978       123.7024 
 829   0.0000       4.548193       123.7626 
 830   0.0000       4.557012       124.0026 
 831   0.0000       4.573589       124.4537 
 832   0.0000       4.577343       124.5558 
 833   0.0000       4.596025       125.0642 
 834   0.0000       4.602018       125.2273 
 835   0.0000       4.607642       125.3803 
 836   0.0000       4.626813       125.9020 
 837   0.0000       4.637734       126.1992 
 838   0.0000       4.648349       126.4880 
 839   0.0000       4.650686       126.5516 
 840   0.0000       4.664740       126.9340 
 841   0.0000       4.679641       127.3395 
 842   0.0000       4.682674       127.4220 
 843   0.0000       4.701438       127.9326 
 844   0.0000       4.712686       128.2387 
 845   0.0000       4.725504       128.5875 
 846   0.0000       4.732351       128.7738 
 847   0.0000       4.740930       129.0073 
 848   0.0000       4.755346       129.3995 
 849   0.0000       4.761323       129.5622 
 850   0.0000       4.769382       129.7815 
 851   0.0000       4.781334       130.1067 
 852   0.0000       4.800179       130.6195 
 853   0.0000       4.810221       130.8928 
 854   0.0000       4.822700       131.2323 
 855   0.0000       4.832948       131.5112 
 856   0.0000       4.843869       131.8084 
 857   0.0000       4.853232       132.0632 
 858   0.0000       4.862137       132.3055 
 859   0.0000       4.878509       132.7510 
 860   0.0000       4.899220       133.3146 
 861   0.0000       4.912381       133.6727 
 862   0.0000       4.919586       133.8687 
 863   0.0000       4.925128       134.0195 
 864   0.0000       4.941753       134.4719 
 865   0.0000       4.952032       134.7516 
 866   0.0000       4.977934       135.4565 
 867   0.0000       4.984931       135.6469 
 868   0.0000       4.992705       135.8584 
 869   0.0000       4.997136       135.9790 
 870   0.0000       5.003434       136.1504 
 871   0.0000       5.008755       136.2951 
 872   0.0000       5.028136       136.8225 
 873   0.0000       5.045464       137.2941 
 874   0.0000       5.057076       137.6100 
 875   0.0000       5.067574       137.8957 
 876   0.0000       5.073784       138.0647 
 877   0.0000       5.080026       138.2345 
 878   0.0000       5.088712       138.4709 
 879   0.0000       5.111904       139.1020 
 880   0.0000       5.124304       139.4394 
 881   0.0000       5.130352       139.6040 
 882   0.0000       5.151263       140.1730 
 883   0.0000       5.170066       140.6847 
 884   0.0000       5.174975       140.8182 
 885   0.0000       5.182146       141.0134 
 886   0.0000       5.185124       141.0944 
 887   0.0000       5.200758       141.5198 
 888   0.0000       5.204548       141.6229 
 889   0.0000       5.216876       141.9584 
 890   0.0000       5.233328       142.4061 
 891   0.0000       5.245346       142.7331 
 892   0.0000       5.265161       143.2723 
 893   0.0000       5.268840       143.3724 
 894   0.0000       5.290878       143.9721 
 895   0.0000       5.297010       144.1390 
 896   0.0000       5.317713       144.7023 
 897   0.0000       5.328242       144.9888 
 898   0.0000       5.352428       145.6470 
 899   0.0000       5.358409       145.8097 
 900   0.0000       5.369300       146.1061 
 901   0.0000       5.384545       146.5209 
 902   0.0000       5.395426       146.8170 
 903   0.0000       5.403395       147.0339 
 904   0.0000       5.417995       147.4311 
 905   0.0000       5.423462       147.5799 
 906   0.0000       5.435364       147.9038 
 907   0.0000       5.443568       148.1270 
 908   0.0000       5.466890       148.7616 
 909   0.0000       5.472061       148.9023 
 910   0.0000       5.478383       149.0744 
 911   0.0000       5.501507       149.7036 
 912   0.0000       5.502680       149.7355 
 913   0.0000       5.521838       150.2569 
 914   0.0000       5.536313       150.6507 
 915   0.0000       5.547626       150.9586 
 916   0.0000       5.560505       151.3090 
 917   0.0000       5.571131       151.5982 
 918   0.0000       5.591515       152.1529 
 919   0.0000       5.599355       152.3662 
 920   0.0000       5.603230       152.4716 
 921   0.0000       5.609229       152.6349 
 922   0.0000       5.616134       152.8228 
 923   0.0000       5.634856       153.3322 
 924   0.0000       5.641527       153.5137 
 925   0.0000       5.648691       153.7087 
 926   0.0000       5.671307       154.3241 
 927   0.0000       5.673201       154.3757 
 928   0.0000       5.678105       154.5091 
 929   0.0000       5.699604       155.0941 
 930   0.0000       5.705659       155.2589 
 931   0.0000       5.716312       155.5487 
 932   0.0000       5.729424       155.9056 
 933   0.0000       5.744733       156.3221 
 934   0.0000       5.747499       156.3974 
 935   0.0000       5.764926       156.8716 
 936   0.0000       5.790188       157.5590 
 937   0.0000       5.801628       157.8703 
 938   0.0000       5.816391       158.2721 
 939   0.0000       5.837553       158.8479 
 940   0.0000       5.848187       159.1372 
 941   0.0000       5.856998       159.3770 
 942   0.0000       5.892366       160.3394 
 943   0.0000       5.915324       160.9641 
 944   0.0000       5.932206       161.4235 
 945   0.0000       5.992373       163.0608 
 946   0.0000       6.046340       164.5293 
 947   0.0000       6.068630       165.1358 
 948   0.0000       6.097114       165.9109 
 949   0.0000       6.133068       166.8893 
 950   0.0000       6.142708       167.1516 
 951   0.0000       6.152869       167.4281 
 952   0.0000       6.167683       167.8312 
 953   0.0000       6.193962       168.5463 
 954   0.0000       6.219631       169.2448 
 955   0.0000       6.223856       169.3597 
 956   0.0000       6.233938       169.6341 
 957   0.0000       6.262059       170.3993 
 958   0.0000       6.292895       171.2384 
 959   0.0000       6.304441       171.5526 
 960   0.0000       6.309778       171.6978 
 961   0.0000       6.314292       171.8206 
 962   0.0000       6.344323       172.6378 
 963   0.0000       6.350524       172.8065 
 964   0.0000       6.353513       172.8879 
 965   0.0000       6.378088       173.5566 
 966   0.0000       6.387383       173.8095 
 967   0.0000       6.399783       174.1470 
 968   0.0000       6.462856       175.8632 
 969   0.0000       6.534774       177.8202 
 970   0.0000       6.560621       178.5236 
 971   0.0000       6.658673       181.1917 
 972   0.0000       6.807762       185.2486 
 973   0.0000       6.853921       186.5047 
 974   0.0000       6.877574       187.1483 
 975   0.0000       6.907472       187.9619 
 976   0.0000       6.928145       188.5244 
 977   0.0000       6.940752       188.8675 
 978   0.0000       6.977284       189.8615 
 979   0.0000       6.994807       190.3384 
 980   0.0000       7.005147       190.6197 
 981   0.0000       7.031947       191.3490 
 982   0.0000       7.047363       191.7685 
 983   0.0000       7.060979       192.1390 
 984   0.0000       7.103690       193.3012 
 985   0.0000       7.157335       194.7610 
 986   0.0000       7.283774       198.2016 
 987   0.0000       7.340179       199.7364 
 988   0.0000       7.399896       201.3614 
 989   0.0000       7.452268       202.7865 
 990   0.0000       7.539463       205.1592 
 991   0.0000       7.605268       206.9499 
 992   0.0000       7.645490       208.0444 
 993   0.0000       7.701560       209.5701 
 994   0.0000       7.797843       212.1901 
 995   0.0000       7.926066       215.6792 
 996   0.0000       7.994686       217.5465 
 997   0.0000       8.085126       220.0075 
 998   0.0000       8.298777       225.8212 
 999   0.0000       9.423780       256.4341 
 1000   0.0000       9.441753       256.9231 
 1001   0.0000       9.450416       257.1589 
 1002   0.0000       9.457571       257.3536 
 1003   0.0000       9.471722       257.7387 
 1004   0.0000       9.496053       258.4007 
 1005   0.0000       9.710382       264.2329 
 1006   0.0000      10.095163       274.7033 
 1007   0.0000      10.105551       274.9860 
 1008   0.0000      10.129245       275.6308 
 1009   0.0000      10.212774       277.9037 
 1010   0.0000      10.220771       278.1213 
 1011   0.0000      10.247669       278.8532 
 1012   0.0000      10.372522       282.2507 
 1013   0.0000      10.406842       283.1846 
 1014   0.0000      10.513806       286.0952 
 1015   0.0000      14.484609       394.1463 
 1016   0.0000      17.340284       471.8531 
 1017   0.0000      17.831407       485.2173 
 1018   0.0000      18.421054       501.2624 
 1019   0.0000      18.637018       507.1390 
 1020   0.0000      18.728772       509.6358 
 1021   0.0000      19.016629       517.4688 
 1022   0.0000      20.126404       547.6673 
 1023   0.0000      20.785876       565.6124 
 1024   0.0000      21.773015       592.4739 

                 SPIN DOWN ORBITALS
  NO   OCC          E(Eh)            E(eV) 
   0   1.0000    -261.557858     -7117.3512 
   1   1.0000    -104.782273     -2851.2706 
   2   1.0000    -104.779030     -2851.1824 
   3   1.0000    -104.777714     -2851.1465 
   4   1.0000     -32.067204      -872.5930 
   5   1.0000     -27.545152      -749.5417 
   6   1.0000     -27.545086      -749.5399 
   7   1.0000     -27.544826      -749.5328 
   8   1.0000     -20.581192      -560.0427 
   9   1.0000     -11.406340      -310.3823 
  10   1.0000     -11.316744      -307.9442 
  11   1.0000     -11.268631      -306.6350 
  12   1.0000     -11.266287      -306.5713 
  13   1.0000     -11.265498      -306.5498 
  14   1.0000     -11.261558      -306.4426 
  15   1.0000     -11.248835      -306.0964 
  16   1.0000     -11.243493      -305.9510 
  17   1.0000     -10.508830      -285.9598 
  18   1.0000     -10.505577      -285.8713 
  19   1.0000     -10.504219      -285.8343 
  20   1.0000      -7.974721      -217.0032 
  21   1.0000      -7.974083      -216.9858 
  22   1.0000      -7.974021      -216.9841 
  23   1.0000      -7.971491      -216.9153 
  24   1.0000      -7.970805      -216.8966 
  25   1.0000      -7.970714      -216.8942 
  26   1.0000      -7.970186      -216.8798 
  27   1.0000      -7.969418      -216.8589 
  28   1.0000      -7.969321      -216.8563 
  29   1.0000      -4.142183      -112.7145 
  30   1.0000      -2.663844       -72.4869 
  31   1.0000      -2.663812       -72.4860 
  32   1.0000      -2.663190       -72.4691 
  33   1.0000      -1.418412       -38.5969 
  34   1.0000      -1.156681       -31.4749 
  35   1.0000      -1.085317       -29.5330 
  36   1.0000      -1.040895       -28.3242 
  37   1.0000      -1.034779       -28.1578 
  38   1.0000      -1.028124       -27.9767 
  39   1.0000      -1.025733       -27.9116 
  40   1.0000      -0.995183       -27.0803 
  41   1.0000      -0.983666       -26.7669 
  42   1.0000      -0.914568       -24.8867 
  43   1.0000      -0.812751       -22.1161 
  44   1.0000      -0.754175       -20.5221 
  45   1.0000      -0.695854       -18.9351 
  46   1.0000      -0.685425       -18.6514 
  47   1.0000      -0.680479       -18.5168 
  48   1.0000      -0.671477       -18.2718 
  49   1.0000      -0.642495       -17.4832 
  50   1.0000      -0.622873       -16.9492 
  51   1.0000      -0.603178       -16.4133 
  52   1.0000      -0.595608       -16.2073 
  53   1.0000      -0.581994       -15.8369 
  54   1.0000      -0.574479       -15.6324 
  55   1.0000      -0.571566       -15.5531 
  56   1.0000      -0.562475       -15.3057 
  57   1.0000      -0.556754       -15.1501 
  58   1.0000      -0.541095       -14.7239 
  59   1.0000      -0.534540       -14.5456 
  60   1.0000      -0.516665       -14.0592 
  61   1.0000      -0.512196       -13.9376 
  62   1.0000      -0.486006       -13.2249 
  63   1.0000      -0.473931       -12.8963 
  64   1.0000      -0.471763       -12.8373 
  65   1.0000      -0.444611       -12.0985 
  66   1.0000      -0.440988       -11.9999 
  67   1.0000      -0.438817       -11.9408 
  68   1.0000      -0.424813       -11.5597 
  69   1.0000      -0.418841       -11.3973 
  70   1.0000      -0.404439       -11.0053 
  71   1.0000      -0.374990       -10.2040 
  72   0.0000       0.010255         0.2791 
  73   0.0000       0.020905         0.5689 
  74   0.0000       0.022482         0.6118 
  75   0.0000       0.027918         0.7597 
  76   0.0000       0.035069         0.9543 
  77   0.0000       0.039525         1.0755 
  78   0.0000       0.040970         1.1148 
  79   0.0000       0.043740         1.1902 
  80   0.0000       0.045290         1.2324 
  81   0.0000       0.046780         1.2729 
  82   0.0000       0.057352         1.5606 
  83   0.0000       0.059251         1.6123 
  84   0.0000       0.061532         1.6744 
  85   0.0000       0.062296         1.6952 
  86   0.0000       0.064633         1.7588 
  87   0.0000       0.070770         1.9258 
  88   0.0000       0.076233         2.0744 
  89   0.0000       0.082920         2.2564 
  90   0.0000       0.088397         2.4054 
  91   0.0000       0.091017         2.4767 
  92   0.0000       0.092703         2.5226 
  93   0.0000       0.098639         2.6841 
  94   0.0000       0.099610         2.7105 
  95   0.0000       0.103940         2.8283 
  96   0.0000       0.106522         2.8986 
  97   0.0000       0.114141         3.1059 
  98   0.0000       0.114595         3.1183 
  99   0.0000       0.116746         3.1768 
 100   0.0000       0.118497         3.2245 
 101   0.0000       0.119303         3.2464 
 102   0.0000       0.121764         3.3134 
 103   0.0000       0.123432         3.3588 
 104   0.0000       0.125013         3.4018 
 105   0.0000       0.125814         3.4236 
 106   0.0000       0.127744         3.4761 
 107   0.0000       0.131847         3.5877 
 108   0.0000       0.133898         3.6435 
 109   0.0000       0.135585         3.6895 
 110   0.0000       0.138177         3.7600 
 111   0.0000       0.138549         3.7701 
 112   0.0000       0.145622         3.9626 
 113   0.0000       0.150612         4.0984 
 114   0.0000       0.155468         4.2305 
 115   0.0000       0.156559         4.2602 
 116   0.0000       0.157373         4.2823 
 117   0.0000       0.160205         4.3594 
 118   0.0000       0.162646         4.4258 
 119   0.0000       0.167302         4.5525 
 120   0.0000       0.170312         4.6344 
 121   0.0000       0.172402         4.6913 
 122   0.0000       0.173565         4.7229 
 123   0.0000       0.178492         4.8570 
 124   0.0000       0.181859         4.9486 
 125   0.0000       0.184648         5.0245 
 126   0.0000       0.187174         5.0933 
 127   0.0000       0.190137         5.1739 
 128   0.0000       0.193039         5.2529 
 129   0.0000       0.200984         5.4690 
 130   0.0000       0.205442         5.5904 
 131   0.0000       0.205950         5.6042 
 132   0.0000       0.208602         5.6763 
 133   0.0000       0.211972         5.7681 
 134   0.0000       0.217842         5.9278 
 135   0.0000       0.220890         6.0107 
 136   0.0000       0.226105         6.1526 
 137   0.0000       0.228096         6.2068 
 138   0.0000       0.231065         6.2876 
 139   0.0000       0.234132         6.3711 
 140   0.0000       0.235575         6.4103 
 141   0.0000       0.236749         6.4423 
 142   0.0000       0.241746         6.5782 
 143   0.0000       0.244071         6.6415 
 144   0.0000       0.251277         6.8376 
 145   0.0000       0.252534         6.8718 
 146   0.0000       0.256148         6.9701 
 147   0.0000       0.262377         7.1396 
 148   0.0000       0.267435         7.2773 
 149   0.0000       0.269972         7.3463 
 150   0.0000       0.272833         7.4242 
 151   0.0000       0.276939         7.5359 
 152   0.0000       0.281098         7.6491 
 153   0.0000       0.288904         7.8615 
 154   0.0000       0.291097         7.9212 
 155   0.0000       0.292052         7.9471 
 156   0.0000       0.295463         8.0400 
 157   0.0000       0.300750         8.1838 
 158   0.0000       0.302506         8.2316 
 159   0.0000       0.305085         8.3018 
 160   0.0000       0.310146         8.4395 
 161   0.0000       0.313804         8.5391 
 162   0.0000       0.319975         8.7070 
 163   0.0000       0.326420         8.8823 
 164   0.0000       0.330620         8.9966 
 165   0.0000       0.333135         9.0651 
 166   0.0000       0.335769         9.1367 
 167   0.0000       0.337222         9.1763 
 168   0.0000       0.344259         9.3678 
 169   0.0000       0.345271         9.3953 
 170   0.0000       0.347898         9.4668 
 171   0.0000       0.351517         9.5653 
 172   0.0000       0.357509         9.7283 
 173   0.0000       0.358841         9.7646 
 174   0.0000       0.363126         9.8812 
 175   0.0000       0.364469         9.9177 
 176   0.0000       0.369370        10.0511 
 177   0.0000       0.375389        10.2149 
 178   0.0000       0.375516        10.2183 
 179   0.0000       0.380364        10.3502 
 180   0.0000       0.381626        10.3846 
 181   0.0000       0.387245        10.5375 
 182   0.0000       0.390629        10.6295 
 183   0.0000       0.395133        10.7521 
 184   0.0000       0.395632        10.7657 
 185   0.0000       0.397043        10.8041 
 186   0.0000       0.399535        10.8719 
 187   0.0000       0.403443        10.9783 
 188   0.0000       0.404808        11.0154 
 189   0.0000       0.413038        11.2393 
 190   0.0000       0.416171        11.3246 
 191   0.0000       0.420386        11.4393 
 192   0.0000       0.421953        11.4819 
 193   0.0000       0.426331        11.6011 
 194   0.0000       0.431791        11.7496 
 195   0.0000       0.434538        11.8244 
 196   0.0000       0.439754        11.9663 
 197   0.0000       0.444481        12.0949 
 198   0.0000       0.445328        12.1180 
 199   0.0000       0.451827        12.2948 
 200   0.0000       0.455089        12.3836 
 201   0.0000       0.457399        12.4465 
 202   0.0000       0.462494        12.5851 
 203   0.0000       0.465229        12.6595 
 204   0.0000       0.467711        12.7271 
 205   0.0000       0.472735        12.8638 
 206   0.0000       0.476743        12.9728 
 207   0.0000       0.477331        12.9888 
 208   0.0000       0.479944        13.0599 
 209   0.0000       0.483226        13.1493 
 210   0.0000       0.484411        13.1815 
 211   0.0000       0.489393        13.3171 
 212   0.0000       0.491046        13.3621 
 213   0.0000       0.500189        13.6108 
 214   0.0000       0.502089        13.6625 
 215   0.0000       0.502516        13.6742 
 216   0.0000       0.508917        13.8483 
 217   0.0000       0.511544        13.9198 
 218   0.0000       0.513749        13.9798 
 219   0.0000       0.517389        14.0789 
 220   0.0000       0.519745        14.1430 
 221   0.0000       0.522136        14.2080 
 222   0.0000       0.522997        14.2315 
 223   0.0000       0.527330        14.3494 
 224   0.0000       0.528194        14.3729 
 225   0.0000       0.531785        14.4706 
 226   0.0000       0.536136        14.5890 
 227   0.0000       0.542004        14.7487 
 228   0.0000       0.542913        14.7734 
 229   0.0000       0.548635        14.9291 
 230   0.0000       0.551383        15.0039 
 231   0.0000       0.552147        15.0247 
 232   0.0000       0.554111        15.0781 
 233   0.0000       0.560413        15.2496 
 234   0.0000       0.565674        15.3928 
 235   0.0000       0.568059        15.4577 
 236   0.0000       0.573341        15.6014 
 237   0.0000       0.576807        15.6957 
 238   0.0000       0.578356        15.7379 
 239   0.0000       0.582314        15.8456 
 240   0.0000       0.586502        15.9595 
 241   0.0000       0.587671        15.9913 
 242   0.0000       0.591688        16.1006 
 243   0.0000       0.599074        16.3016 
 244   0.0000       0.599872        16.3233 
 245   0.0000       0.604249        16.4424 
 246   0.0000       0.606314        16.4986 
 247   0.0000       0.609698        16.5907 
 248   0.0000       0.613324        16.6894 
 249   0.0000       0.614889        16.7320 
 250   0.0000       0.620670        16.8893 
 251   0.0000       0.624494        16.9933 
 252   0.0000       0.629249        17.1227 
 253   0.0000       0.634723        17.2717 
 254   0.0000       0.638723        17.3805 
 255   0.0000       0.644766        17.5450 
 256   0.0000       0.646930        17.6039 
 257   0.0000       0.655892        17.8477 
 258   0.0000       0.658533        17.9196 
 259   0.0000       0.663259        18.0482 
 260   0.0000       0.666490        18.1361 
 261   0.0000       0.667209        18.1557 
 262   0.0000       0.669961        18.2306 
 263   0.0000       0.672707        18.3053 
 264   0.0000       0.677055        18.4236 
 265   0.0000       0.685766        18.6606 
 266   0.0000       0.690830        18.7984 
 267   0.0000       0.694935        18.9101 
 268   0.0000       0.697439        18.9783 
 269   0.0000       0.701670        19.0934 
 270   0.0000       0.711959        19.3734 
 271   0.0000       0.712874        19.3983 
 272   0.0000       0.714835        19.4517 
 273   0.0000       0.725048        19.7296 
 274   0.0000       0.727306        19.7910 
 275   0.0000       0.730615        19.8810 
 276   0.0000       0.736123        20.0309 
 277   0.0000       0.744951        20.2712 
 278   0.0000       0.746527        20.3140 
 279   0.0000       0.748838        20.3769 
 280   0.0000       0.752984        20.4897 
 281   0.0000       0.755167        20.5491 
 282   0.0000       0.759601        20.6698 
 283   0.0000       0.770151        20.9569 
 284   0.0000       0.772425        21.0187 
[...]
  | sigma^2 in % of trace(Dij) retained ...   9.37e+00
  | sigma^2 in % of trace(Dip) retained ...   1.56e+01
  | sigma^2 in % of trace(Dpq) retained ...   1.36e-01
  | Av. % of trace(Di) retained         ...  99.998515768942
  | Av. % of trace(Dp) retained         ...  99.999998704029
  | sigma^2 in % of trace(Di) retained  ...   7.10e-07
  | sigma^2 in % of trace(Dp) retained  ...   2.21e-12
 Distributions of % trace(Dij) recovered:
  |       >= 99.9  ...   105 ( 21.5 % of all IJ-pairs)
  |   [80.0, 90.0) ...    32 (  6.6 % of all IJ-pairs)
  |   [90.0, 99.0) ...   253 ( 51.8 % of all IJ-pairs)
  |   [99.0, 99.9) ...    98 ( 20.1 % of all IJ-pairs)
 Distributions of % trace(Dip) recovered:
  |   [80.0, 90.0) ...    16 ( 13.7 % of all IP-pairs)
  |   [90.0, 99.0) ...    59 ( 50.4 % of all IP-pairs)
  |   [99.0, 99.9) ...    42 ( 35.9 % of all IP-pairs)
 Distributions of % trace(Dpq) recovered:
  |       >= 99.9  ...     5 ( 33.3 % of all PQ-pairs)
  |   [99.0, 99.9) ...    10 ( 66.7 % of all PQ-pairs)
 Distributions of % trace(Di) recovered :
  |       >= 99.9  ...    43 (100.0 % of all I-pairs )
 Distributions of % trace(Dp) recovered :
  |       >= 99.9  ...     5 (100.0 % of all P-pairs )

                       ===========================
                       1075 OF 1669 PAIRS ARE KEPT
                       ===========================

 Initial PAO correlation energy (all pairs)    ...  -2.6959780454 Eh
 Energy constituents in PAO basis (Eh):
  | Vijab(+0) ...  -2.2679970017
  | Viab (-1) ...  -0.1746030723
  | Vab  (-2) ...  -0.0573544656
  | Va   (-1) ...  -0.0000438395
  | Vija (+1) ...  -0.0719456261
  | Vij  (+2) ...  -0.0155127878
  | Via  (+0) ...  -0.1083606975
  | Vi   (+1) ...  -0.0001605550
 Initial PNO correlation energy                ...  -2.6610682188 Eh
 Energy constituents in PNO basis (Eh):
  | Vijab(+0) ...  -2.2488311333 (err=  0.0191658683)
  | Viab (-1) ...  -0.1604761732 (err=  0.0141268991)
  | Vab  (-2) ...  -0.0569014268 (err=  0.0004530388)
  | Va   (-1) ...  -0.0000253100 (err=  0.0000185295)
  | Vija (+1) ...  -0.0709448704 (err=  0.0010007557)
  | Vij  (+2) ...  -0.0154617459 (err=  0.0000510418)
  | Via  (+0) ...  -0.1082673806 (err=  0.0000933169)
  | Vi   (+1) ...  -0.0001601786 (err=  0.0000003764)
 Sum of total truncation errors ...   0.0349098266 Eh
  | Pair screening ...   0.0120382995 Eh
  | PNO truncation ...   0.0228715271 Eh

 UMP2 correlation energy (PAO) ...  -2.6910116884
  | alpha-alpha ...  -0.3870305820 (NP_aa=  897)
  | alpha-beta  ...  -1.9965289854 (NP_ab= 1644)
  | beta -beta  ...  -0.3074521210 (NP_bb=  714)
 UMP2 correlation energy (PNO) ...  -2.6557184348
  | alpha-alpha ...  -0.3748832596 (err=  0.0121473224, NP_aa=  572)
  | alpha-beta  ...  -1.9775680895 (err=  0.0189608959, NP_ab= 1050)
  | beta -beta  ...  -0.3032670857 (err=  0.0041850354, NP_bb=  445)
 Sum of total UMP2 truncation errors ...   0.0352932536 Eh
  | Pair screening ...   0.0120542355 Eh
  | PNO truncation ...   0.0232390181 Eh
 Timing for NEV-PNO construction (sec.)
  | Intermediate construction  ..           40.440
  | Amplitude construction     ..           62.823
  | Total time                 ..          103.263
 Making pair pair interaction lists ...      ok
 Total size for 2-ext PNO integrals ...     11.0 MB
Checking the number of SOMO/SOMO doubles PNOs ... 
 #Truncate: (72, 72)[167] -> [87] .. 
 #Truncate: (73, 73)[170] -> [87] .. 
 #Truncate: (74, 74)[171] -> [87] .. 
 #Truncate: (75, 75)[168] -> [87] .. 
 #Truncate: (76, 76)[168] -> [87] .. 

--------------------------------
LOCAL RI TRANSFORMATION (VABPAO)
--------------------------------

Number of PAOs:    1030
Basis functions:   1025 (343 shells)
Aux. functions:    2424 (644 shells)

Processing maps (0.0 sec)
Average map sizes:
   Aux shells -> PAOs           1030.0
   PAOs       -> AO shells       343.0

Calculating integrals (194.3 sec, 37370.165 MB)
Finished
-----------------------------
LOCAL RI TRANSFORMATION (IJV)
-----------------------------

Orbital window:      29 to 76
Basis functions:   1025 (343 shells)
Aux. functions:    2424 (644 shells)

Processing maps (0.0 sec)
Average map sizes:
   Aux shells -> MOs(i)           46.1
   Aux shells -> MOs(j)           48.0
   MOs        -> AO shells       338.9

Calculating integrals (23.9 sec, 41.068 MB)
Sorting integrals (0.3 sec, 41.041 MB)
Total time for the integral transformation: 24.3 sec


-------------------------------------
Pair Pair Term precalculation with     
RI-(ij|mn) and (im|jn) transformation  
ON THE FLY                             
-------------------------------------

   IBatch   1 (of   2)              ... done ( 1211.999 sec)
   IBatch   2 (of   2)              ... done (  983.169 sec)
Total EXT                           ...        2195.168 sec

---------------------
RI-PNO TRANSFORMATION
---------------------

Total Number of PNOs                   ... 34152
Total Number of IJ-PNOs                ... 29983
Total Number of IP-PNOs                ...  3206
Total Number of PQ-PNOs                ...   963
Total Number of IJ-pairs               ...   933
Total Number of PI-pairs               ...   117
Total Number of PQ-pairs               ...    25
Average number of PNOs per pair        ...    31
Maximal number of PNOs per pair        ...    87
>> Statistics for ij-pairs..
   #pairs with  1 -  5 PNOs   :    0
   #pairs with  6 - 10 PNOs   :    0
   #pairs with 11 - 15 PNOs   :   60
   #pairs with 16 - 20 PNOs   :  198
   #pairs with 21 - 25 PNOs   :  152
   #pairs with 26 - 30 PNOs   :  164
   #pairs with 31 - 35 PNOs   :   62
   #pairs with 36 - 40 PNOs   :   50
   #pairs with 41 - 45 PNOs   :   52
   #pairs with 46 - 50 PNOs   :   24
   #pairs with 51 - 55 PNOs   :   35
   #pairs with 56 - 60 PNOs   :   53
   #pairs with 61 - 65 PNOs   :   74
   #pairs with 66 - 70 PNOs   :    6
   #pairs with 76 - 80 PNOs   :    1
   #pairs with 81 - 85 PNOs   :    2
>> Statistics for ip-pairs..
   #pairs with  1 -  5 PNOs   :    0
   #pairs with  6 - 10 PNOs   :    0
   #pairs with 11 - 15 PNOs   :   16
   #pairs with 16 - 20 PNOs   :    5
   #pairs with 21 - 25 PNOs   :   26
   #pairs with 26 - 30 PNOs   :   11
   #pairs with 31 - 35 PNOs   :   46
   #pairs with 36 - 40 PNOs   :   13
   #pairs with 41 - 45 PNOs   :    0
   #pairs with 46 - 50 PNOs   :    0
>> Statistics for pq-pairs..
   #pairs with  1 -  5 PNOs   :    0
   #pairs with  6 - 10 PNOs   :    0
   #pairs with 11 - 15 PNOs   :    0
   #pairs with 16 - 20 PNOs   :    0
   #pairs with 21 - 25 PNOs   :   10
   #pairs with 26 - 30 PNOs   :   10
   #pairs with 31 - 35 PNOs   :    0
   #pairs with 36 - 40 PNOs   :    0
   #pairs with 41 - 45 PNOs   :    0
   #pairs with 46 - 50 PNOs   :    0
   #pairs with 86 - 90 PNOs   :    5

Generation of (ij|ab)[P] integrals            ... on
Generation of (ia|bc)[P],(ja|bc)[P] integrals ... on
Storage of 3 and 4 external integrals         ... on
Generation of ALL (ka|bc)[P] integrals        ... on
Keep RI integrals in memory                   ... off

Ibatch:  1 (of  1)
Starting 2-4 index PNO integral generation ... done

Timings:
Total PNO integral transformation time     ...       1998.692 sec
Size of the 3-external file                ...       291 MB
Size of the 4-external file                ...      2001 MB
Size of the IKJL file                      ...        17 MB
Size of the all 3-external file            ...      7005 MB
Size of the 1-external file                ...        22 MB

Size of the PAO/PNO coefficient matrices   ...     219.4 MB

Making pair/pair overlap matrices          ... done (  315.070 sec)
Size of the pair overlap file              ...    2408.0 MB
Total # unrestricted pairs ...       2067
  # of alpha-alpha pairs   ...        572
  # of alpha-beta pairs    ...       1050
  # of beta-beta pairs     ...        445
Constructing the guess amplitudes          ... done (    0.722 sec)

-------------------------
FINAL STARTUP INFORMATION
-------------------------

E(0)                                       ...  -3028.437169515
E(SL-UMP2 in NEV-PNO space)                ...     -2.691993479
Initial E(tot)                             ...  -3031.129162994
<T|T>                                      ...      0.536927248
Number of unrestricted pairs included      ... 2067
Total number of pairs                      ... 4095
----------------------------------------------------------
                     OPEN-SHELL COUPLED CLUSTER ITERATIONS
----------------------------------------------------------

Number of PNO amplitudes to be optimized        ...          2129695
Number of canonical amplitudes for strong pairs ...       1866914376
Untruncated number of canonical amplitudes      ...       3698645738

Iter       E(tot)           E(Corr)          Delta-E          Residual     Time
  0  -3031.136355225     -2.662910666      0.029082813      0.020753366 1859.89
                           *** Turning on DIIS ***
  1  -3031.247511434     -2.774066875     -0.111156209      0.010153628 1895.84
  2  -3031.312135723     -2.838691163     -0.064624288      0.008279132 1901.48
  3  -3031.333443640     -2.859999081     -0.021307917      0.002917977 1884.76
  4  -3031.340695940     -2.867251381     -0.007252300      0.002634265 1850.26
  5  -3031.344600406     -2.871155847     -0.003904466      0.001595940 1897.22
  6  -3031.346014796     -2.872570237     -0.001414390      0.000765785 1896.60
  7  -3031.346712714     -2.873268155     -0.000697918      0.000697309 1881.33
  8  -3031.346876046     -2.873431486     -0.000163331      0.000239430 1892.93
  9  -3031.346933231     -2.873488672     -0.000057185      0.000213669 1859.66
 10  -3031.346928771     -2.873484211      0.000004460      0.000091611 1872.29
 11  -3031.346941198     -2.873496638     -0.000012427      0.000079903 1833.20
 12  -3031.346947438     -2.873502878     -0.000006240      0.000029458 1847.63
 13  -3031.346949938     -2.873505378     -0.000002500      0.000015535 1860.05
 14  -3031.346951507     -2.873506948     -0.000001570      0.000007069 1897.27
               --- The CCSD iterations have converged ---

E(0)                                       ...  -3028.437169515
E(CORR)(strong-pairs)                      ...     -2.873506948
E(CORR)(weak-pairs)                        ...     -0.036275044
E(CORR)(corrected)                         ...     -2.909781992
E(TOT)                                     ...  -3031.346951507
Singles norm <S|S>**1/2                    ...      0.194162090 ( 0.065879967, 0.128282123)  
T1 diagnostic                              ...      0.020353717                              
<S**2>(linearized)                         ...      8.7508100 (ideal value:      8.7500000)

----------------------
LARGEST PNO AMPLITUDES
----------------------
  71a-> 77a  71b-> 77b       0.063101
  50b-> 76b  -1b-> -1b       0.054175
  51b-> 76b  -1b-> -1b       0.054003
  48b-> 72b  -1b-> -1b       0.053074
  71a-> 78a  71b-> 78b       0.051362
  43a-> 77a  -1a-> -1a       0.048503
  48b-> 75b  -1b-> -1b       0.046398
  43b-> 77b  -1b-> -1b       0.046177
  62a-> 77a  62b-> 77b       0.045900
  66a-> 77a  66b-> 77b       0.045713
  48b-> 74b  -1b-> -1b       0.045571
  55a-> 78a  55b-> 78b       0.043864
  54a-> 77a  54b-> 77b       0.043741
  57a-> 78a  57b-> 78b       0.043609
  43a-> 77a  43b-> 77b       0.043581
  70a-> 77a  70b-> 77b       0.043493

Total # unrestricted pairs ...       1188
  # of alpha-alpha pairs   ...        325
  # of alpha-beta pairs    ...        594
  # of beta-beta pairs     ...        269

-------------------------------------------
DLPNO BASED TRIPLES CORRECTION
-------------------------------------------

Singles multiplier          ...  1.000000
Fragment selection                          .... not used
TCutTNO                     ... 1.000e-09
TCutMP2Pairs                ... 1.000e-05
TCutDOStrong                ... 2.000e-02
TCutMKNStrong               ... 1.000e-02
TCutDOWeak                  ... 4.000e-02
TCutMKNWeak                 ... 1.000e-01
NTCutTNO                    ... 1

Number of Triples that are to be computed         ...     32108

 . . . . . . . . .
10% done  
20% done  
30% done  
40% done  
50% done  
60% done  
70% done  
80% done  
90% done  
          Batch   1   done (  13865.943 sec)

Triples-Correction TCutTNO=   1.000e-09 (NWeakPairs = 0  1  2  3)  -0.118091019439   -0.001974393198    0.000000000000    0.000000000000
Triples-Correction  -0.120065412637

Triples timings:
Total time                      ... 14480.094 sec

Triples List generation         ...     0.000 sec
TNO generation                  ...   612.531 sec
Pair density generation         ...     0.088 sec
Look up tables                  ...     0.103 sec
Generating 3-index integrals    ...  8491.629 sec
Make 4-ind.int. from 3-ind.int  ...     3.322 sec
Projecting amplitudes (D + S)   ...  5113.970 sec
Sorting integrals for spin cases...    52.539 sec
Calculate W0/W1                 ...   165.323 sec
Energy contr. (sum over a,b,c)  ...    39.024 sec

Everything after 3-index        ...  5498.065 sec

Energy contribution AAA         ...    25.327 sec
Energy contribution AAB         ...   113.308 sec
Energy contribution ABB         ...   103.906 sec
Energy contribution BBB         ...    14.390 sec
prep                ...     3.057 sec
makeTTNO            ...  5061.170 sec
copyij              ...     0.123 sec
copyil              ...     3.906 sec
transposeij         ...     0.075 sec
newMatInDoubleProj  ...    50.161 sec
BlasInDoubleProj    ...  2777.813 sec
ProjSingles         ...    43.367 sec
ProjDoubles         ...  5070.602 sec
overall Doubles for projection      ... 2861701
used Doubles for projection         ... 2861701


Number of Triples   (0, 1, 2, 3 weak pairs; overall):  15710   10861       0       0  ( 26571)
Number of Atoms     (0, 1, 2, 3 weak pairs; overall):   19.0    14.6     0.0     0.0  (    29)
Number of PAOs      (0, 1, 2, 3 weak pairs; overall):  745.0   588.8     0.0     0.0  (  1025)
Number of AuxFcns   (0, 1, 2, 3 weak pairs; overall):  890.0   571.3     0.0     0.0  (  2424)
Number of TNOs (0, 1, 2, 3 weak pairs         ):   80.0    58.3     0.0     0.0
Aver. Number of NTNO, Atoms, PAOs, AuxFcns / Triples:  26571    71.2    17.2   681.2   759.7

Triples Correction (T)                     ...     -0.120065413
    alpha-alpha-alpha ... -0.003904346 (  3.3%)
    alpha-alpha-beta  ... -0.056361838 ( 46.9%)
    alpha-beta -beta  ... -0.055658930 ( 46.4%)
    beta -beta -beta  ... -0.004140298 (  3.4%)
Final correlation energy                   ...     -3.029847405
E(CCSD)                                    ...  -3031.346951507
E(CCSD(T))                                 ...  -3031.467016920

----------------------------
STATISTICS FOR PAIR-ENERGIES
----------------------------
Minimum, maximum and average ratios of UMP and CCSD pair-energies ... 0.54, 1.43, 1.02


------------------------------------------------------------------------------- 
                                     TIMINGS                                   
------------------------------------------------------------------------------- 


Total execution time                   ...    50851.417 sec

Localization of occupied MO's          ...       10.816 sec (  0.0%)
Fock Matrix Formation                  ...     1324.796 sec (  2.6%)
Differential overlap integrals         ...        1.438 sec (  0.0%)
Organizing maps                        ...        1.692 sec (  0.0%)
RI 3-index integral generations        ...      281.543 sec (  0.6%)
RI-PNO integral transformation         ...     4591.621 sec (  9.0%)
Initial Guess                          ...     1782.717 sec (  3.5%)
DIIS Solver                            ...       23.186 sec (  0.0%)
State Vector Update                    ...        0.721 sec (  0.0%)
Sigma-vector construction              ...    28130.410 sec ( 55.3%)
  <0|H|D>                              ...        0.029 sec (  0.0% of sigma)
  <D|H|D>(0-ext)                       ...     5155.529 sec ( 18.3% of sigma)
  <D|H|D>(2-ext Fock)                  ...        1.467 sec (  0.0% of sigma)
  <D|H|D>(2-ext)                       ...     3952.913 sec ( 14.1% of sigma)
  <D|H|D>(4-ext)                       ...      155.694 sec (  0.6% of sigma)
  <D|H|D>(4-ext-corr)                  ...      979.519 sec (  3.5% of sigma)
  CCSD doubles correction              ...      513.514 sec (  1.8% of sigma)
  <S|H|S>                              ...      678.615 sec (  2.4% of sigma)
  <S|H|D>(1-ext)                       ...      267.061 sec (  0.9% of sigma)
  <D|H|S>(1-ext)                       ...        0.890 sec (  0.0% of sigma)
  <S|H|D>(3-ext)                       ...       20.244 sec (  0.1% of sigma)
  CCSD singles correction              ...        0.005 sec (  0.0% of sigma)
  Fock-dressing                        ...     8301.821 sec ( 29.5% of sigma)
  Singles amplitudes                   ...      115.644 sec (  0.4% of sigma)
  (ik|jl)-dressing                     ...     6326.297 sec ( 22.5% of sigma)
  (ij|ab),(ia|jb)-dressing             ...     1448.944 sec (  5.2% of sigma)
  Pair energies                        ...        0.150 sec (  0.0% of sigma)
Total Time for computing (T)           ...    15031.210 sec ( 29.6% of ALL)


-------------------------   --------------------
FINAL SINGLE POINT ENERGY     -3031.467016920104
-------------------------   --------------------


                            ***************************************
                            *     ORCA property calculations      *
                            ***************************************

                                    ---------------------
                                    Active property flags
                                    ---------------------
   (+) Dipole Moment


------------------------------------------------------------------------------
                       ORCA ELECTRIC PROPERTIES CALCULATION
------------------------------------------------------------------------------

Dipole Moment Calculation                       ... on
Quadrupole Moment Calculation                   ... off
Polarizability Calculation                      ... off
GBWName                                         ... simple-grid-215-280-b3lyp_d3bj-631gd-gas-singlepoint-DLPNO_CCSD_T1-NormalPNO-augtz-gas.gbw
Electron density file                           ... simple-grid-215-280-b3lyp_d3bj-631gd-gas-singlepoint-DLPNO_CCSD_T1-NormalPNO-augtz-gas.scfp.tmp
The origin for moment calculation is the CENTER OF MASS  = ( 0.319237,  0.046072 -0.000142)

-------------
DIPOLE MOMENT
-------------
                                X             Y             Z
Electronic contribution:     43.21222       5.94450      -0.33546
Nuclear contribution   :    -47.56637      -6.86461       0.02110
                        -----------------------------------------
Total Dipole Moment    :     -4.35415      -0.92011      -0.31437
                        -----------------------------------------
Magnitude (a.u.)       :      4.46139
Magnitude (Debye)      :     11.33996



--------------------
Rotational spectrum 
--------------------
 
Rotational constants in cm-1:     0.019341     0.010546     0.010019 
Rotational constants in MHz :   579.821065   316.161452   300.362066 

 Dipole components along the rotational axes: 
x,y,z [a.u.] :    -4.353257     0.902812    -0.371650 
x,y,z [Debye]:   -11.065100     2.294766    -0.944659 

 

Timings for individual modules:

Sum of individual times         ...    66415.093 sec (=1106.918 min)
GTO integral calculation        ...       11.867 sec (=   0.198 min)   0.0 %
SCF iterations                  ...    15534.084 sec (= 258.901 min)  23.4 %
MDCI module                     ...    50869.142 sec (= 847.819 min)  76.6 %
                             ****ORCA TERMINATED NORMALLY****
TOTAL RUN TIME: 0 days 18 hours 26 minutes 59 seconds 140 msec
