
                                 *****************
                                 * O   R   C   A *
                                 *****************

           --- An Ab Initio, DFT and Semiempirical electronic structure package ---

                  #######################################################
                  #                        -***-                        #
                  #          Department of theory and spectroscopy      #
                  #               Directorship: Frank Neese             #
                  #        Max Planck Institute fuer Kohlenforschung    #
                  #                Kaiser Wilhelm Platz 1               #
                  #                 D-45470 Muelheim/Ruhr               #
                  #                      Germany                        #
                  #                                                     #
                  #                  All rights reserved                #
                  #                        -***-                        #
                  #######################################################


                         Program Version 4.1.2  - RELEASE  -


 With contributions from (in alphabetic order):
   Daniel Aravena         : Magnetic Properties
   Michael Atanasov       : Ab Initio Ligand Field Theory
   Alexander A. Auer      : GIAO ZORA
   Ute Becker             : Parallelization
   Giovanni Bistoni       : ED, Open-shell LED
   Martin Brehm           : Molecular dynamics
   Dmytro Bykov           : SCF Hessian
   Vijay G. Chilkuri      : MRCI spin determinant printing
   Dipayan Datta          : RHF DLPNO-CCSD density
   Achintya Kumar Dutta   : EOM-CC, STEOM-CC
   Dmitry Ganyushin       : Spin-Orbit,Spin-Spin,Magnetic field MRCI
   Miquel Garcia          : C-PCM Hessian
   Yang Guo               : DLPNO-NEVPT2, CIM, IAO-localization
   Andreas Hansen         : Spin unrestricted coupled pair/coupled cluster methods
   Benjamin Helmich-Paris : CASSCF linear response (MC-RPA)
   Lee Huntington         : MR-EOM, pCC
   Robert Izsak           : Overlap fitted RIJCOSX, COSX-SCS-MP3, EOM
   Christian Kollmar      : KDIIS, OOCD, Brueckner-CCSD(T), CCSD density
   Simone Kossmann        : Meta GGA functionals, TD-DFT gradient, OOMP2, MP2 Hessian
   Martin Krupicka        : AUTO-CI
   Lucas Lang             : DCDCAS
   Dagmar Lenk            : GEPOL surface, SMD
   Dimitrios Liakos       : Extrapolation schemes; parallel MDCI
   Dimitrios Manganas     : ROCIS; embedding schemes
   Dimitrios Pantazis     : SARC Basis sets
   Taras Petrenko         : DFT Hessian,TD-DFT gradient, ASA, ECA, R-Raman, ABS, FL, XAS/XES, NRVS
   Peter Pinski           : DLPNO-MP2, DLPNO-MP2 Gradient
   Christoph Reimann      : Effective Core Potentials
   Marius Retegan         : Local ZFS, SOC
   Christoph Riplinger    : Optimizer, TS searches, QM/MM, DLPNO-CCSD(T), (RO)-DLPNO pert. Triples
   Tobias Risthaus        : Range-separated hybrids, TD-DFT gradient, RPA, STAB
   Michael Roemelt        : Restricted open shell CIS
   Masaaki Saitow         : Open-shell DLPNO
   Barbara Sandhoefer     : DKH picture change effects
   Avijit Sen             : IP-ROCIS
   Kantharuban Sivalingam : CASSCF convergence, NEVPT2, FIC-MRCI
   Bernardo de Souza      : ESD, SOC TD-DFT
   Georgi Stoychev        : AutoAux, RI-MP2 NMR
   Willem Van den Heuvel  : Paramagnetic NMR
   Boris Wezisla          : Elementary symmetry handling
   Frank Wennmohs         : Technical directorship


 We gratefully acknowledge several colleagues who have allowed us to
 interface, adapt or use parts of their codes:
   Stefan Grimme, W. Hujo, H. Kruse,             : VdW corrections, initial TS optimization,
                  C. Bannwarth                     DFT functionals, gCP, sTDA/sTD-DF
   Ed Valeev                                     : LibInt (2-el integral package), F12 methods
   Garnet Chan, S. Sharma, J. Yang, R. Olivares  : DMRG
   Ulf Ekstrom                                   : XCFun DFT Library
   Mihaly Kallay                                 : mrcc  (arbitrary order and MRCC methods)
   Andreas Klamt, Michael Diedenhofen            : otool_cosmo (COSMO solvation model)
   Jiri Pittner, Ondrej Demel                    : Mk-CCSD
   Frank Weinhold                                : gennbo (NPA and NBO analysis)
   Christopher J. Cramer and Donald G. Truhlar   : smd solvation model
   Lars Goerigk                                  : TD-DFT with DH, B97 family of functionals
   V. Asgeirsson, H. Jonsson                     : NEB implementation
   FAccTs GmbH                                   : IRC, NEB, NEB-TS, Multilevel


 Your calculation uses the libint2 library for the computation of 2-el integrals
 For citations please refer to: http://libint.valeyev.net

 This ORCA versions uses:
   CBLAS   interface :  Fast vector & matrix operations
   LAPACKE interface :  Fast linear algebra routines
   SCALAPACK package :  Parallel linear algebra routines


----- Orbital basis set information -----
Your calculation utilizes the basis: aug-cc-pVTZ 
    H, B-Ne : Obtained from the ccRepo (grant-hill.group.shef.ac.uk/ccrepo) Feb. 2017
              R. A. Kendall, T. H. Dunning, Jr., R. J. Harrison, J. Chem. Phys. 96, 6796 (1992)
         He : Obtained from the ccRepo (grant-hill.group.shef.ac.uk/ccrepo) Feb. 2017
              D. E. Woon, T. H. Dunning, Jr., J. Chem. Phys. 100, 2975 (1994)
  Li-Be, Na : Obtained from the ccRepo (grant-hill.group.shef.ac.uk/ccrepo) Feb. 2017
              B. P. Prascher, D. E. Woon, K. A. Peterson, T. H. Dunning, Jr., A. K. Wilson, Theor. Chem. Acc. 128, 69 (2011)
         Mg : Obtained from the Peterson Research Group Website (tyr0.chem.wsu.edu/~kipeters) Feb. 2017
              B. P. Prascher, D. E. Woon, K. A. Peterson, T. H. Dunning, Jr., A. K. Wilson, Theor. Chem. Acc. 128, 69 (2011)
      Al-Ar : Obtained from the ccRepo (grant-hill.group.shef.ac.uk/ccrepo) Feb. 2017
              D. E. Woon, T. H. Dunning, Jr., J. Chem. Phys. 98, 1358 (1993)
      Sc-Zn : Obtained from the ccRepo (grant-hill.group.shef.ac.uk/ccrepo) Feb. 2017
              N. B. Balabanov, K. A. Peterson, J. Chem. Phys. 123, 064107 (2005)
              N. B. Balabanov, K. A. Peterson, J. Chem. Phys. 125, 074110 (2006)
      Ga-Kr : Obtained from the ccRepo (grant-hill.group.shef.ac.uk/ccrepo) Feb. 2017
              A. K. Wilson, D. E. Woon, K. A. Peterson, T. H. Dunning, Jr., J. Chem. Phys. 110, 7667 (1999)
     Ag, Au : Obtained from the Peterson Research Group Website (tyr0.chem.wsu.edu/~kipeters) Feb. 2017
              K. A. Peterson, C. Puzzarini, Theor. Chem. Acc. 114, 283 (2005)

----- AuxJ basis set information -----
Your calculation utilizes the AutoAux generation procedure.
  G. L. Stoychev, A. A. Auer, F. Neese, J. Chem. Theory Comput. 13, 554 (2017)

----- AuxC basis set information -----
Your calculation utilizes the auxiliary basis: aug-cc-pVTZ/C 
  H-He, B-F, Al-Ar, Ga-Kr : Obtained from the EMSL Basis Set Exchange (bse.pnl.gov) Feb. 2017
                            F. Weigend, A. Kohn, C. Hattig, J. Chem. Phys. 116, 3175 (2002)
                   Be, Mg : Obtained from the TURBOMOLE 7.0 basis set library
                            C. Haettig, Phys. Chem. Chem. Phys. 7, 59 (2005)
                       Ne : Obtained from the EMSL Basis Set Exchange (bse.pnl.gov) Feb. 2017
                            C. Haettig, Phys. Chem. Chem. Phys. 7, 59 (2005)
                            F. Weigend, A. Kohn, C. Hattig, J. Chem. Phys. 116, 3175 (2002)
                    Sc-Zn : Obtained from the EMSL Basis Set Exchange (bse.pnl.gov) Feb. 2017
                            J. G. Hill, J. A. Platts, J. Chem. Phys. 128, 044104 (2008)

----- AuxJK basis set information -----
Your calculation utilizes the AutoAux generation procedure.
  G. L. Stoychev, A. A. Auer, F. Neese, J. Chem. Theory Comput. 13, 554 (2017)

================================================================================
                                        WARNINGS
                       Please study these warnings very carefully!
================================================================================


WARNING: your system is open-shell and RHF/RKS was chosen
  ===> : WILL SWITCH to UHF/UKS


WARNING: MDCI localization with Augmented Hessian Foster-Boys
  ===> : Switching off randomization!

WARNING: Post HF methods need fully converged wavefunctions
  ===> : Setting SCFConvForced true
         You can overwrite this default with %scf ConvForced false 


INFO   : the flag for use of LIBINT has been found!

================================================================================
                                       INPUT FILE
================================================================================
NAME = simple-grid-245-295-b3lyp_d3bj-631gd-gas-singlepoint-DLPNO_CCSD_T1-NormalPNO-augtz-gas.inp
|  1> ! aug-cc-pVTZ aug-cc-pVTZ/C DLPNO-CCSD(T1) TightSCF NormalPNO UNO MiniPrint AutoAux
|  2> %pal nproc 10 end
|  3> %maxcore 20000
|  4> %mdci
|  5>      density none
|  6> end
|  7> 
|  8> * xyz 0 6
|  9>  O      0.19164500      0.34712700     -0.84278500
| 10>  C      1.04184300      1.26271900     -0.64939600
| 11>  C      2.89793500      0.27238000      0.60625400
| 12>  C      2.76056700     -0.88811400     -0.08301100
| 13>  C      3.44764700     -1.11239700     -1.39917100
| 14> Fe     -1.49694300     -0.17095000     -0.01811500
| 15> Cl     -2.01583500     -2.03956500     -1.01187600
| 16>  C      1.86799700     -2.00556400      0.36145400
| 17> Cl     -2.76404100      1.55396800     -0.47421500
| 18> Cl     -1.14868400     -0.40540800      2.13975500
| 19>  H      3.60242700      1.00083100      0.20622900
| 20>  H      2.40597300     -2.96134200      0.33947200
| 21>  H      1.44856900     -1.86220900      1.35701300
| 22>  H      1.03184400     -2.10547200     -0.34607500
| 23>  H      4.09884500     -1.99341800     -1.32853400
| 24>  H      2.71903300     -1.33287300     -2.19117800
| 25>  H      4.06334100     -0.26226100     -1.70368600
| 26>  C      2.53477100      0.45790300      2.06098300
| 27>  H      3.26945500     -0.06114800      2.69028500
| 28>  H      2.56187400      1.51165000      2.34838000
| 29>  H      1.54872400      0.06391600      2.31527700
| 30>  C      0.79641300      2.28524600      0.42273400
| 31>  H      1.67790800      2.89142500      0.63396600
| 32>  H      0.00983900      2.94078200      0.02051000
| 33>  H      0.40675600      1.83745800      1.33660900
| 34>  C      1.86061500      1.68163600     -1.84012200
| 35>  H      1.23157400      2.39025100     -2.39780500
| 36>  H      2.78094900      2.19627500     -1.56179900
| 37>  H      2.06906300      0.83805800     -2.49604200
| 38> *
| 39> 
| 40> 
| 41>                          ****END OF INPUT****
================================================================================

                       ****************************
                       * Single Point Calculation *
                       ****************************

---------------------------------
CARTESIAN COORDINATES (ANGSTROEM)
---------------------------------
  O      0.191645    0.347127   -0.842785
  C      1.041843    1.262719   -0.649396
  C      2.897935    0.272380    0.606254
  C      2.760567   -0.888114   -0.083011
  C      3.447647   -1.112397   -1.399171
  Fe    -1.496943   -0.170950   -0.018115
  Cl    -2.015835   -2.039565   -1.011876
  C      1.867997   -2.005564    0.361454
  Cl    -2.764041    1.553968   -0.474215
  Cl    -1.148684   -0.405408    2.139755
  H      3.602427    1.000831    0.206229
  H      2.405973   -2.961342    0.339472
  H      1.448569   -1.862209    1.357013
  H      1.031844   -2.105472   -0.346075
  H      4.098845   -1.993418   -1.328534
  H      2.719033   -1.332873   -2.191178
  H      4.063341   -0.262261   -1.703686
  C      2.534771    0.457903    2.060983
  H      3.269455   -0.061148    2.690285
  H      2.561874    1.511650    2.348380
  H      1.548724    0.063916    2.315277
  C      0.796413    2.285246    0.422734
  H      1.677908    2.891425    0.633966
  H      0.009839    2.940782    0.020510
  H      0.406756    1.837458    1.336609
  C      1.860615    1.681636   -1.840122
  H      1.231574    2.390251   -2.397805
  H      2.780949    2.196275   -1.561799
  H      2.069063    0.838058   -2.496042

----------------------------
CARTESIAN COORDINATES (A.U.)
----------------------------
  NO LB      ZA    FRAG     MASS         X           Y           Z
   0 O     8.0000    0    15.999    0.362157    0.655975   -1.592633
   1 C     6.0000    0    12.011    1.968798    2.386193   -1.227181
   2 C     6.0000    0    12.011    5.476304    0.514724    1.145654
   3 C     6.0000    0    12.011    5.216716   -1.678292   -0.156868
   4 C     6.0000    0    12.011    6.515109   -2.102126   -2.644050
   5 Fe   26.0000    0    55.850   -2.828812   -0.323049   -0.034232
   6 Cl   17.0000    0    35.453   -3.809376   -3.854219   -1.912169
   7 C     6.0000    0    12.011    3.530003   -3.789967    0.683049
   8 Cl   17.0000    0    35.453   -5.223281    2.936574   -0.896136
   9 Cl   17.0000    0    35.453   -2.170698   -0.766110    4.043551
  10 H     1.0000    0     1.008    6.807600    1.891296    0.389716
  11 H     1.0000    0     1.008    4.546630   -5.596125    0.641509
  12 H     1.0000    0     1.008    2.737399   -3.519065    2.564383
  13 H     1.0000    0     1.008    1.949903   -3.978765   -0.653987
  14 H     1.0000    0     1.008    7.745695   -3.767014   -2.510565
  15 H     1.0000    0     1.008    5.138228   -2.518765   -4.140726
  16 H     1.0000    0     1.008    7.678602   -0.495601   -3.219500
  17 C     6.0000    0    12.011    4.790023    0.865311    3.894693
  18 H     1.0000    0     1.008    6.178375   -0.115553    5.083902
  19 H     1.0000    0     1.008    4.841240    2.856605    4.437795
  20 H     1.0000    0     1.008    2.926664    0.120784    4.375239
  21 C     6.0000    0    12.011    1.505002    4.318489    0.798851
  22 H     1.0000    0     1.008    3.170787    5.464001    1.198022
  23 H     1.0000    0     1.008    0.018593    5.557273    0.038758
  24 H     1.0000    0     1.008    0.768657    3.472292    2.525825
  25 C     6.0000    0    12.011    3.516053    3.177831   -3.477327
  26 H     1.0000    0     1.008    2.327338    4.516920   -4.531195
  27 H     1.0000    0     1.008    5.255232    4.150358   -2.951372
  28 H     1.0000    0     1.008    3.909962    1.583700   -4.716836



           ************************************************************
           *        Program running with 10 parallel MPI-processes    *
           *              working on a common directory               *
           ************************************************************


           ************************************************************
           *        Program running with 10 parallel MPI-processes    *
           *              working on a common directory               *
           ************************************************************

Diagonalization of the overlap matrix:
Smallest eigenvalue                        ... 9.321e-07
Time for diagonalization                   ...    0.349 sec
Threshold for overlap eigenvalues          ... 1.000e-08
Number of eigenvalues below threshold      ... 0
Time for construction of square roots      ...    0.283 sec
Total time needed                          ...    0.637 sec

-------------------
DFT GRID GENERATION
-------------------

General Integration Accuracy     IntAcc      ...  4.340
Radial Grid Type                 RadialGrid  ... Gauss-Chebyshev
Angular Grid (max. acc.)         AngularGrid ... Lebedev-110
Angular grid pruning method      GridPruning ... 3 (G Style)
Weight generation scheme         WeightScheme... Becke
Basis function cutoff            BFCut       ...    1.0000e-11
Integration weight cutoff        WCut        ...    1.0000e-14
Grids for H and He will be reduced by one unit

# of grid points (after initial pruning)     ...  36112 (   0.0 sec)
# of grid points (after weights+screening)   ...  32426 (   0.1 sec)
nearest neighbour list constructed           ...    0.0 sec
Grid point re-assignment to atoms done       ...    0.0 sec
Grid point division into batches done        ...    0.0 sec
Reduced shell lists constructed in    0.3 sec

Total number of grid points                  ...    32426
Total number of batches                      ...      524
Average number of points per batch           ...       61
Average number of grid points per atom       ...     1118
Average number of shells per batch           ...   287.76 (83.89%)
Average number of basis functions per batch  ...   853.80 (83.30%)
Average number of large shells per batch     ...   233.28 (81.07%)
Average number of large basis fcns per batch ...   693.72 (81.25%)
Maximum spatial batch extension              ...   5.14,  6.23,  7.66 au
Average spatial batch extension              ...   0.19,  0.20,  0.19 au

Time for grid setup =    0.428 sec

Loading Hartree-Fock densities                     ... done
Calculating cut-offs                               ... done
Setting up the integral package                    ... done
Initializing the effective Hamiltonian             ... done
Starting the Coulomb interaction                   ... done (   1.1 sec)
Reading the grid                                   ... done
Mapping shells                                     ... done
Starting the XC term evaluation                    ... done (   0.9 sec)
Transforming the Hamiltonian                       ... done (   0.2 sec)
Diagonalizing the Hamiltonian                      ... done (   0.4 sec)
Back transforming the eigenvectors                 ... done (   0.1 sec)
Now organizing SCF variables                       ... done
--------------
SCF ITERATIONS
--------------
ITER       Energy         Delta-E        Max-DP      RMS-DP      [F,P]     Damp
               ***  Starting incremental Fock matrix formation  ***
  0  -3027.5908923178   0.000000000000 0.19291086  0.00098489  0.2511642 0.7000
  1  -3027.8425431113  -0.251650793472 0.14361880  0.00077061  0.1526628 0.7000
                               ***Turning on DIIS***
  2  -3028.0112748261  -0.168731714806 0.10187921  0.00056758  0.1095054 0.7000
  3  -3029.5996000529  -1.588325226757 0.24616665  0.00142725  0.0818625 0.0000
  4  -3028.3090938725   1.290506180322 0.04283829  0.00021399  0.0197541 0.0000
  5  -3028.4279578343  -0.118863961780 0.03975732  0.00017140  0.0108655 0.0000
  6  -3028.4750549778  -0.047097143505 0.01977592  0.00006969  0.0052493 0.0000
  7  -3028.4881420009  -0.013087023084 0.00864711  0.00003234  0.0032330 0.0000
  8  -3028.4766421214   0.011499879565 0.00635479  0.00001852  0.0015587 0.0000
  9  -3028.4728007781   0.003841343265 0.00232898  0.00001088  0.0007007 0.0000
 10  -3028.4606416316   0.012159146519 0.00090867  0.00000318  0.0003987 0.0000
 11  -3028.4659635071  -0.005321875534 0.00026549  0.00000168  0.0000790 0.0000
 12  -3028.4640110308   0.001952476266 0.00021942  0.00000113  0.0000221 0.0000
 13  -3028.4640236420  -0.000012611210 0.00041450  0.00000156  0.0000088 0.0000
 14  -3028.4640452828  -0.000021640719 0.00037040  0.00000159  0.0000054 0.0000
 15  -3028.4639938133   0.000051469483 0.00057961  0.00000179  0.0000031 0.0000
 16  -3028.4640035978  -0.000009784470 0.00050223  0.00000175  0.0000026 0.0000
 17  -3028.4640191072  -0.000015509495 0.00046607  0.00000171  0.0000017 0.0000
 18  -3028.4640030498   0.000016057402 0.00082919  0.00000289  0.0000013 0.0000
                            ***DIIS convergence achieved***

               *****************************************************
               *                     SUCCESS                       *
               *           SCF CONVERGED AFTER  19 CYCLES          *
               *****************************************************

Total Energy       :        -3028.46400826 Eh          -82408.69524 eV
  Last Energy change         ...   -5.2087e-06  Tolerance :   1.0000e-08
  Last MAX-Density change    ...    6.5810e-04  Tolerance :   1.0000e-07
             **** THE GBW FILE WAS UPDATED (simple-grid-245-295-b3lyp_d3bj-631gd-gas-singlepoint-DLPNO_CCSD_T1-NormalPNO-augtz-gas.gbw) ****
             **** DENSITY FILE WAS UPDATED (simple-grid-245-295-b3lyp_d3bj-631gd-gas-singlepoint-DLPNO_CCSD_T1-NormalPNO-augtz-gas.scfp.tmp) ****
             **** ENERGY FILE WAS UPDATED (simple-grid-245-295-b3lyp_d3bj-631gd-gas-singlepoint-DLPNO_CCSD_T1-NormalPNO-augtz-gas.en.tmp) ****
----------------------
UHF SPIN CONTAMINATION
----------------------

Expectation value of <S**2>     :     8.764855
Ideal value S*(S+1) for S=2.5   :     8.750000
Deviation                       :     0.014855

----------------
ORBITAL ENERGIES
----------------
                 SPIN UP ORBITALS
  NO   OCC          E(Eh)            E(eV) 
   0   1.0000    -261.571079     -7117.7109 
   1   1.0000    -104.791240     -2851.5146 
   2   1.0000    -104.787505     -2851.4130 
   3   1.0000    -104.785152     -2851.3489 
   4   1.0000     -32.238848      -877.2637 
   5   1.0000     -27.715254      -754.1704 
   6   1.0000     -27.714241      -754.1428 
   7   1.0000     -27.714032      -754.1371 
   8   1.0000     -20.611358      -560.8636 
   9   1.0000     -11.419400      -310.7377 
  10   1.0000     -11.281583      -306.9875 
  11   1.0000     -11.274989      -306.8080 
  12   1.0000     -11.270583      -306.6882 
  13   1.0000     -11.251100      -306.1580 
  14   1.0000     -11.250523      -306.1423 
  15   1.0000     -11.237416      -305.7856 
  16   1.0000     -11.235889      -305.7441 
  17   1.0000     -10.517958      -286.2082 
  18   1.0000     -10.514182      -286.1054 
  19   1.0000     -10.511780      -286.0401 
  20   1.0000      -7.984798      -217.2774 
  21   1.0000      -7.984025      -217.2564 
  22   1.0000      -7.983988      -217.2554 
  23   1.0000      -7.981042      -217.1752 
  24   1.0000      -7.980285      -217.1546 
  25   1.0000      -7.980232      -217.1532 
  26   1.0000      -7.978583      -217.1083 
  27   1.0000      -7.977910      -217.0900 
  28   1.0000      -7.977847      -217.0883 
  29   1.0000      -4.593854      -125.0051 
  30   1.0000      -3.206984       -87.2665 
  31   1.0000      -3.205334       -87.2216 
  32   1.0000      -3.205136       -87.2162 
  33   1.0000      -1.453970       -39.5645 
  34   1.0000      -1.135380       -30.8953 
  35   1.0000      -1.096705       -29.8429 
  36   1.0000      -1.063772       -28.9467 
  37   1.0000      -1.057815       -28.7846 
  38   1.0000      -1.054422       -28.6923 
  39   1.0000      -1.024625       -27.8815 
  40   1.0000      -1.007084       -27.4042 
  41   1.0000      -0.965977       -26.2856 
  42   1.0000      -0.939310       -25.5599 
  43   1.0000      -0.922901       -25.1134 
  44   1.0000      -0.922740       -25.1090 
  45   1.0000      -0.912434       -24.8286 
  46   1.0000      -0.911667       -24.8077 
  47   1.0000      -0.901312       -24.5260 
  48   1.0000      -0.809650       -22.0317 
  49   1.0000      -0.737664       -20.0729 
  50   1.0000      -0.706178       -19.2161 
  51   1.0000      -0.696404       -18.9501 
  52   1.0000      -0.682461       -18.5707 
  53   1.0000      -0.660879       -17.9834 
  54   1.0000      -0.627201       -17.0670 
  55   1.0000      -0.621204       -16.9038 
  56   1.0000      -0.605942       -16.4885 
  57   1.0000      -0.598245       -16.2791 
  58   1.0000      -0.584487       -15.9047 
  59   1.0000      -0.576399       -15.6846 
  60   1.0000      -0.561259       -15.2726 
  61   1.0000      -0.557946       -15.1825 
  62   1.0000      -0.546387       -14.8679 
  63   1.0000      -0.545505       -14.8439 
  64   1.0000      -0.534800       -14.5526 
  65   1.0000      -0.529177       -14.3996 
  66   1.0000      -0.501348       -13.6424 
  67   1.0000      -0.497767       -13.5449 
  68   1.0000      -0.474533       -12.9127 
  69   1.0000      -0.472436       -12.8556 
  70   1.0000      -0.443635       -12.0719 
  71   1.0000      -0.437850       -11.9145 
  72   1.0000      -0.435728       -11.8568 
  73   1.0000      -0.427441       -11.6313 
  74   1.0000      -0.426111       -11.5951 
  75   1.0000      -0.424706       -11.5568 
  76   1.0000      -0.364521        -9.9191 
  77   0.0000       0.012160         0.3309 
  78   0.0000       0.022708         0.6179 
  79   0.0000       0.023723         0.6455 
  80   0.0000       0.030093         0.8189 
  81   0.0000       0.038828         1.0566 
  82   0.0000       0.040692         1.1073 
  83   0.0000       0.042432         1.1546 
  84   0.0000       0.043701         1.1892 
  85   0.0000       0.044478         1.2103 
  86   0.0000       0.054688         1.4881 
  87   0.0000       0.057039         1.5521 
  88   0.0000       0.061249         1.6667 
  89   0.0000       0.062766         1.7079 
  90   0.0000       0.063476         1.7273 
  91   0.0000       0.065536         1.7833 
  92   0.0000       0.071969         1.9584 
  93   0.0000       0.077374         2.1054 
  94   0.0000       0.082884         2.2554 
  95   0.0000       0.089592         2.4379 
  96   0.0000       0.091031         2.4771 
  97   0.0000       0.093780         2.5519 
  98   0.0000       0.099442         2.7060 
  99   0.0000       0.101221         2.7544 
 100   0.0000       0.103938         2.8283 
 101   0.0000       0.107426         2.9232 
 102   0.0000       0.116791         3.1780 
 103   0.0000       0.120652         3.2831 
 104   0.0000       0.122473         3.3326 
 105   0.0000       0.123253         3.3539 
 106   0.0000       0.125841         3.4243 
 107   0.0000       0.127808         3.4778 
 108   0.0000       0.130720         3.5571 
 109   0.0000       0.133183         3.6241 
 110   0.0000       0.133563         3.6344 
 111   0.0000       0.137989         3.7549 
 112   0.0000       0.143824         3.9137 
 113   0.0000       0.145803         3.9675 
 114   0.0000       0.150187         4.0868 
 115   0.0000       0.151653         4.1267 
 116   0.0000       0.156345         4.2544 
 117   0.0000       0.160562         4.3691 
 118   0.0000       0.161589         4.3971 
 119   0.0000       0.165977         4.5165 
 120   0.0000       0.168756         4.5921 
 121   0.0000       0.171248         4.6599 
 122   0.0000       0.173067         4.7094 
 123   0.0000       0.177580         4.8322 
 124   0.0000       0.182152         4.9566 
 125   0.0000       0.184222         5.0129 
 126   0.0000       0.185379         5.0444 
 127   0.0000       0.189558         5.1581 
 128   0.0000       0.193449         5.2640 
 129   0.0000       0.197832         5.3833 
 130   0.0000       0.198737         5.4079 
 131   0.0000       0.199987         5.4419 
 132   0.0000       0.205640         5.5958 
 133   0.0000       0.207392         5.6434 
 134   0.0000       0.211900         5.7661 
 135   0.0000       0.218133         5.9357 
 136   0.0000       0.219101         5.9620 
 137   0.0000       0.223328         6.0771 
 138   0.0000       0.227458         6.1894 
 139   0.0000       0.231672         6.3041 
 140   0.0000       0.233063         6.3420 
 141   0.0000       0.235045         6.3959 
 142   0.0000       0.237828         6.4716 
 143   0.0000       0.240149         6.5348 
 144   0.0000       0.241719         6.5775 
 145   0.0000       0.245062         6.6685 
 146   0.0000       0.252978         6.8839 
 147   0.0000       0.255684         6.9575 
 148   0.0000       0.257374         7.0035 
 149   0.0000       0.260738         7.0950 
 150   0.0000       0.264050         7.1852 
 151   0.0000       0.269027         7.3206 
 152   0.0000       0.275794         7.5047 
 153   0.0000       0.280500         7.6328 
 154   0.0000       0.283144         7.7047 
 155   0.0000       0.284561         7.7433 
 156   0.0000       0.288943         7.8625 
 157   0.0000       0.291057         7.9201 
 158   0.0000       0.295016         8.0278 
 159   0.0000       0.304740         8.2924 
 160   0.0000       0.308241         8.3877 
 161   0.0000       0.310336         8.4447 
 162   0.0000       0.318827         8.6757 
 163   0.0000       0.319362         8.6903 
 164   0.0000       0.323100         8.7920 
 165   0.0000       0.325206         8.8493 
 166   0.0000       0.333645         9.0789 
 167   0.0000       0.334458         9.1011 
 168   0.0000       0.340207         9.2575 
 169   0.0000       0.340971         9.2783 
 170   0.0000       0.343643         9.3510 
 171   0.0000       0.350741         9.5442 
 172   0.0000       0.354001         9.6329 
 173   0.0000       0.357154         9.7186 
 174   0.0000       0.359323         9.7777 
 175   0.0000       0.367106         9.9895 
 176   0.0000       0.369791        10.0625 
 177   0.0000       0.371942        10.1211 
 178   0.0000       0.373734        10.1698 
 179   0.0000       0.375377        10.2145 
 180   0.0000       0.381706        10.3867 
 181   0.0000       0.382766        10.4156 
 182   0.0000       0.383490        10.4353 
 183   0.0000       0.384938        10.4747 
 184   0.0000       0.386406        10.5146 
 185   0.0000       0.388025        10.5587 
 186   0.0000       0.394484        10.7345 
 187   0.0000       0.399009        10.8576 
 188   0.0000       0.401710        10.9311 
 189   0.0000       0.403165        10.9707 
 190   0.0000       0.412424        11.2226 
 191   0.0000       0.413536        11.2529 
 192   0.0000       0.418440        11.3863 
 193   0.0000       0.422403        11.4942 
 194   0.0000       0.427194        11.6245 
 195   0.0000       0.430952        11.7268 
 196   0.0000       0.435991        11.8639 
 197   0.0000       0.438919        11.9436 
 198   0.0000       0.442811        12.0495 
 199   0.0000       0.445831        12.1317 
 200   0.0000       0.448497        12.2042 
 201   0.0000       0.450171        12.2498 
 202   0.0000       0.452646        12.3171 
 203   0.0000       0.457557        12.4508 
 204   0.0000       0.460098        12.5199 
 205   0.0000       0.464525        12.6404 
 206   0.0000       0.469165        12.7666 
 207   0.0000       0.471236        12.8230 
 208   0.0000       0.479055        13.0357 
 209   0.0000       0.479687        13.0529 
 210   0.0000       0.483275        13.1506 
 211   0.0000       0.487610        13.2685 
 212   0.0000       0.489002        13.3064 
 213   0.0000       0.492957        13.4140 
 214   0.0000       0.497928        13.5493 
 215   0.0000       0.500156        13.6099 
 216   0.0000       0.502204        13.6657 
 217   0.0000       0.507008        13.7964 
 218   0.0000       0.511146        13.9090 
 219   0.0000       0.512504        13.9459 
 220   0.0000       0.514950        14.0125 
 221   0.0000       0.516905        14.0657 
 222   0.0000       0.522515        14.2184 
 223   0.0000       0.524802        14.2806 
 224   0.0000       0.525312        14.2945 
 225   0.0000       0.528600        14.3839 
 226   0.0000       0.531686        14.4679 
 227   0.0000       0.534435        14.5427 
 228   0.0000       0.539104        14.6698 
 229   0.0000       0.540189        14.6993 
 230   0.0000       0.543926        14.8010 
 231   0.0000       0.549343        14.9484 
 232   0.0000       0.554611        15.0917 
 233   0.0000       0.555560        15.1175 
 234   0.0000       0.561357        15.2753 
 235   0.0000       0.564158        15.3515 
 236   0.0000       0.568535        15.4706 
 237   0.0000       0.573575        15.6078 
 238   0.0000       0.578042        15.7293 
 239   0.0000       0.581896        15.8342 
 240   0.0000       0.583273        15.8717 
 241   0.0000       0.584517        15.9055 
 242   0.0000       0.588808        16.0223 
 243   0.0000       0.592824        16.1316 
 244   0.0000       0.596925        16.2432 
 245   0.0000       0.599148        16.3036 
 246   0.0000       0.604461        16.4482 
 247   0.0000       0.609490        16.5851 
 248   0.0000       0.611617        16.6429 
 249   0.0000       0.616231        16.7685 
 250   0.0000       0.620434        16.8829 
 251   0.0000       0.624475        16.9928 
 252   0.0000       0.626658        17.0522 
 253   0.0000       0.631291        17.1783 
 254   0.0000       0.636843        17.3294 
 255   0.0000       0.638987        17.3877 
 256   0.0000       0.643576        17.5126 
 257   0.0000       0.649531        17.6746 
 258   0.0000       0.651244        17.7212 
 259   0.0000       0.655864        17.8470 
 260   0.0000       0.657606        17.8944 
 261   0.0000       0.663610        18.0577 
 262   0.0000       0.667592        18.1661 
 263   0.0000       0.670821        18.2540 
 264   0.0000       0.671340        18.2681 
 265   0.0000       0.679024        18.4772 
 266   0.0000       0.684803        18.6344 
 267   0.0000       0.688123        18.7248 
 268   0.0000       0.694365        18.8946 
 269   0.0000       0.696737        18.9592 
 270   0.0000       0.701663        19.0932 
 271   0.0000       0.709164        19.2973 
 272   0.0000       0.712923        19.3996 
 273   0.0000       0.716279        19.4909 
 274   0.0000       0.717888        19.5347 
 275   0.0000       0.723327        19.6827 
 276   0.0000       0.725218        19.7342 
 277   0.0000       0.729899        19.8616 
 278   0.0000       0.736162        20.0320 
 279   0.0000       0.737290        20.0627 
 280   0.0000       0.741215        20.1695 
 281   0.0000       0.746402        20.3106 
 282   0.0000       0.754494        20.5308 
 283   0.0000       0.764252        20.7963 
 284   0.0000       0.770454        20.9651 
 285   0.0000       0.773226        21.0406 
 286   0.0000       0.781275        21.2596 
 287   0.0000       0.785518        21.3750 
 288   0.0000       0.793554        21.5937 
 289   0.0000       0.798479        21.7277 
 290   0.0000       0.807265        21.9668 
 291   0.0000       0.815463        22.1899 
 292   0.0000       0.817740        22.2518 
 293   0.0000       0.824806        22.4441 
 294   0.0000       0.827734        22.5238 
 295   0.0000       0.834946        22.7200 
 296   0.0000       0.839739        22.8504 
 297   0.0000       0.843669        22.9574 
 298   0.0000       0.848528        23.0896 
 299   0.0000       0.852565        23.1995 
 300   0.0000       0.863774        23.5045 
 301   0.0000       0.864854        23.5339 
 302   0.0000       0.869347        23.6561 
 303   0.0000       0.874244        23.7894 
 304   0.0000       0.875151        23.8141 
 305   0.0000       0.878972        23.9180 
 306   0.0000       0.887202        24.1420 
 307   0.0000       0.889640        24.2083 
 308   0.0000       0.899711        24.4824 
 309   0.0000       0.904646        24.6167 
 310   0.0000       0.908598        24.7242 
 311   0.0000       0.914705        24.8904 
 312   0.0000       0.918652        24.9978 
 313   0.0000       0.920156        25.0387 
 314   0.0000       0.923821        25.1385 
 315   0.0000       0.927645        25.2425 
 316   0.0000       0.928569        25.2676 
 317   0.0000       0.935327        25.4516 
 318   0.0000       0.937428        25.5087 
 319   0.0000       0.939885        25.5756 
 320   0.0000       0.942069        25.6350 
 321   0.0000       0.947290        25.7771 
 322   0.0000       0.949793        25.8452 
 323   0.0000       0.955472        25.9997 
 324   0.0000       0.961705        26.1693 
 325   0.0000       0.963683        26.2232 
 326   0.0000       0.965630        26.2761 
 327   0.0000       0.969894        26.3921 
 328   0.0000       0.976588        26.5743 
 329   0.0000       0.978838        26.6355 
 330   0.0000       0.979588        26.6560 
 331   0.0000       0.982188        26.7267 
 332   0.0000       0.983370        26.7588 
 333   0.0000       0.991663        26.9845 
 334   0.0000       0.998604        27.1734 
 335   0.0000       1.000335        27.2205 
 336   0.0000       1.001689        27.2574 
 337   0.0000       1.006844        27.3976 
 338   0.0000       1.008979        27.4557 
 339   0.0000       1.013551        27.5801 
 340   0.0000       1.015798        27.6413 
 341   0.0000       1.018517        27.7153 
 342   0.0000       1.022777        27.8312 
 343   0.0000       1.026442        27.9309 
 344   0.0000       1.029015        28.0009 
 345   0.0000       1.033250        28.1162 
 346   0.0000       1.035668        28.1820 
 347   0.0000       1.041188        28.3322 
 348   0.0000       1.043751        28.4019 
 349   0.0000       1.049741        28.5649 
 350   0.0000       1.052677        28.6448 
 351   0.0000       1.055168        28.7126 
 352   0.0000       1.061123        28.8746 
 353   0.0000       1.063512        28.9396 
 354   0.0000       1.068555        29.0769 
 355   0.0000       1.074810        29.2471 
 356   0.0000       1.076118        29.2827 
 357   0.0000       1.079322        29.3698 
 358   0.0000       1.083832        29.4926 
 359   0.0000       1.087236        29.5852 
 360   0.0000       1.089800        29.6550 
 361   0.0000       1.093626        29.7591 
 362   0.0000       1.097189        29.8560 
 363   0.0000       1.099966        29.9316 
 364   0.0000       1.106361        30.1056 
 365   0.0000       1.111827        30.2544 
 366   0.0000       1.114585        30.3294 
 367   0.0000       1.115688        30.3594 
 368   0.0000       1.121748        30.5243 
 369   0.0000       1.124415        30.5969 
 370   0.0000       1.131223        30.7821 
 371   0.0000       1.136476        30.9251 
 372   0.0000       1.137983        30.9661 
 373   0.0000       1.141992        31.0752 
 374   0.0000       1.146689        31.2030 
 375   0.0000       1.157075        31.4856 
 376   0.0000       1.157715        31.5030 
 377   0.0000       1.166168        31.7330 
 378   0.0000       1.169220        31.8161 
 379   0.0000       1.173510        31.9328 
 380   0.0000       1.176513        32.0146 
 381   0.0000       1.184658        32.2362 
 382   0.0000       1.187375        32.3101 
 383   0.0000       1.190988        32.4084 
 384   0.0000       1.192047        32.4373 
 385   0.0000       1.201528        32.6952 
 386   0.0000       1.203350        32.7448 
 387   0.0000       1.213482        33.0205 
 388   0.0000       1.213780        33.0286 
 389   0.0000       1.223367        33.2895 
 390   0.0000       1.223849        33.3026 
 391   0.0000       1.227615        33.4051 
 392   0.0000       1.232267        33.5317 
 393   0.0000       1.234460        33.5914 
 394   0.0000       1.242614        33.8133 
 395   0.0000       1.246840        33.9282 
 396   0.0000       1.250003        34.0143 
 397   0.0000       1.255462        34.1629 
 398   0.0000       1.260724        34.3060 
 399   0.0000       1.262874        34.3645 
 400   0.0000       1.269382        34.5416 
 401   0.0000       1.272256        34.6199 
 402   0.0000       1.276610        34.7383 
 403   0.0000       1.285481        34.9797 
 404   0.0000       1.291805        35.1518 
 405   0.0000       1.293935        35.2098 
 406   0.0000       1.300257        35.3818 
 407   0.0000       1.306675        35.5564 
 408   0.0000       1.313947        35.7543 
 409   0.0000       1.315268        35.7903 
 410   0.0000       1.320009        35.9193 
 411   0.0000       1.320468        35.9318 
 412   0.0000       1.326250        36.0891 
 413   0.0000       1.328992        36.1637 
 414   0.0000       1.340242        36.4698 
 415   0.0000       1.342524        36.5319 
 416   0.0000       1.345512        36.6132 
 417   0.0000       1.350878        36.7593 
 418   0.0000       1.354946        36.8700 
 419   0.0000       1.362524        37.0762 
 420   0.0000       1.371143        37.3107 
 421   0.0000       1.373542        37.3760 
 422   0.0000       1.379871        37.5482 
 423   0.0000       1.387041        37.7433 
 424   0.0000       1.389461        37.8092 
 425   0.0000       1.396751        38.0075 
 426   0.0000       1.403283        38.1853 
 427   0.0000       1.406641        38.2767 
 428   0.0000       1.414370        38.4870 
 429   0.0000       1.416079        38.5335 
 430   0.0000       1.418834        38.6084 
 431   0.0000       1.427106        38.8335 
 432   0.0000       1.428680        38.8764 
 433   0.0000       1.436348        39.0850 
 434   0.0000       1.439077        39.1593 
 435   0.0000       1.445742        39.3406 
 436   0.0000       1.454035        39.5663 
 437   0.0000       1.461025        39.7565 
 438   0.0000       1.468422        39.9578 
 439   0.0000       1.473046        40.0836 
 440   0.0000       1.476786        40.1854 
 441   0.0000       1.481639        40.3174 
 442   0.0000       1.484283        40.3894 
 443   0.0000       1.488316        40.4991 
 444   0.0000       1.496798        40.7299 
 445   0.0000       1.499953        40.8158 
 446   0.0000       1.506775        41.0014 
 447   0.0000       1.510198        41.0946 
 448   0.0000       1.514289        41.2059 
 449   0.0000       1.521201        41.3940 
 450   0.0000       1.523210        41.4486 
 451   0.0000       1.528465        41.5916 
 452   0.0000       1.535089        41.7719 
 453   0.0000       1.537922        41.8490 
 454   0.0000       1.542673        41.9783 
 455   0.0000       1.550522        42.1918 
 456   0.0000       1.559781        42.4438 
 457   0.0000       1.566622        42.6300 
 458   0.0000       1.567561        42.6555 
 459   0.0000       1.572950        42.8022 
 460   0.0000       1.578315        42.9481 
 461   0.0000       1.581981        43.0479 
 462   0.0000       1.591147        43.2973 
 463   0.0000       1.596317        43.4380 
 464   0.0000       1.602694        43.6115 
 465   0.0000       1.608723        43.7756 
 466   0.0000       1.611016        43.8380 
 467   0.0000       1.613611        43.9086 
 468   0.0000       1.616354        43.9832 
 469   0.0000       1.622165        44.1414 
 470   0.0000       1.628685        44.3188 
 471   0.0000       1.636869        44.5415 
 472   0.0000       1.640763        44.6474 
 473   0.0000       1.643091        44.7108 
 474   0.0000       1.653180        44.9853 
 475   0.0000       1.659708        45.1630 
 476   0.0000       1.667490        45.3747 
 477   0.0000       1.669006        45.4160 
 478   0.0000       1.673973        45.5511 
 479   0.0000       1.681471        45.7552 
 480   0.0000       1.687414        45.9169 
 481   0.0000       1.690284        45.9950 
 482   0.0000       1.696746        46.1708 
 483   0.0000       1.702671        46.3320 
 484   0.0000       1.708140        46.4809 
 485   0.0000       1.713545        46.6279 
 486   0.0000       1.715528        46.6819 
 487   0.0000       1.724084        46.9147 
 488   0.0000       1.728817        47.0435 
 489   0.0000       1.739399        47.3314 
 490   0.0000       1.740959        47.3739 
 491   0.0000       1.744409        47.4678 
 492   0.0000       1.749922        47.6178 
 493   0.0000       1.755857        47.7793 
 494   0.0000       1.757961        47.8365 
 495   0.0000       1.762995        47.9735 
 496   0.0000       1.765547        48.0430 
 497   0.0000       1.768710        48.1290 
 498   0.0000       1.776726        48.3472 
 499   0.0000       1.782859        48.5141 
 500   0.0000       1.795361        48.8543 
 501   0.0000       1.797609        48.9154 
 502   0.0000       1.800707        48.9997 
 503   0.0000       1.804132        49.0929 
 504   0.0000       1.807457        49.1834 
 505   0.0000       1.813753        49.3547 
 506   0.0000       1.821901        49.5764 
 507   0.0000       1.830724        49.8165 
 508   0.0000       1.832811        49.8733 
 509   0.0000       1.837825        50.0098 
 510   0.0000       1.842685        50.1420 
 511   0.0000       1.851141        50.3721 
 512   0.0000       1.857614        50.5483 
 513   0.0000       1.862312        50.6761 
 514   0.0000       1.863318        50.7035 
 515   0.0000       1.872866        50.9633 
 516   0.0000       1.874991        51.0211 
 517   0.0000       1.878753        51.1235 
 518   0.0000       1.885027        51.2942 
 519   0.0000       1.890422        51.4410 
 520   0.0000       1.897844        51.6430 
 521   0.0000       1.903641        51.8007 
 522   0.0000       1.905377        51.8479 
 523   0.0000       1.908043        51.9205 
 524   0.0000       1.912164        52.0326 
 525   0.0000       1.914999        52.1098 
 526   0.0000       1.920280        52.2535 
 527   0.0000       1.929861        52.5142 
 528   0.0000       1.934757        52.6474 
 529   0.0000       1.937705        52.7276 
 530   0.0000       1.941896        52.8417 
 531   0.0000       1.946180        52.9582 
 532   0.0000       1.956127        53.2289 
 533   0.0000       1.957560        53.2679 
 534   0.0000       1.963513        53.4299 
 535   0.0000       1.972219        53.6668 
 536   0.0000       1.977172        53.8016 
 537   0.0000       1.985170        54.0192 
 538   0.0000       1.987586        54.0850 
 539   0.0000       1.997428        54.3528 
 540   0.0000       2.007531        54.6277 
 541   0.0000       2.010419        54.7063 
 542   0.0000       2.024468        55.0886 
 543   0.0000       2.027557        55.1726 
 544   0.0000       2.036804        55.4242 
 545   0.0000       2.040624        55.5282 
 546   0.0000       2.043489        55.6062 
 547   0.0000       2.046036        55.6755 
 548   0.0000       2.052757        55.8584 
 549   0.0000       2.061426        56.0943 
 550   0.0000       2.075235        56.4700 
 551   0.0000       2.081418        56.6383 
 552   0.0000       2.083484        56.6945 
 553   0.0000       2.097389        57.0728 
 554   0.0000       2.106001        57.3072 
 555   0.0000       2.113068        57.4995 
 556   0.0000       2.118073        57.6357 
 557   0.0000       2.119605        57.6774 
 558   0.0000       2.125080        57.8264 
 559   0.0000       2.128058        57.9074 
 560   0.0000       2.142026        58.2875 
 561   0.0000       2.143763        58.3348 
 562   0.0000       2.150042        58.5056 
 563   0.0000       2.163061        58.8599 
 564   0.0000       2.164916        58.9104 
 565   0.0000       2.181711        59.3674 
 566   0.0000       2.187221        59.5173 
 567   0.0000       2.190169        59.5975 
 568   0.0000       2.200335        59.8742 
 569   0.0000       2.205830        60.0237 
 570   0.0000       2.211146        60.1684 
 571   0.0000       2.214586        60.2619 
 572   0.0000       2.220807        60.4312 
 573   0.0000       2.228937        60.6524 
 574   0.0000       2.235107        60.8204 
 575   0.0000       2.240791        60.9750 
 576   0.0000       2.253678        61.3257 
 577   0.0000       2.254478        61.3475 
 578   0.0000       2.265115        61.6369 
 579   0.0000       2.272389        61.8349 
 580   0.0000       2.276110        61.9361 
 581   0.0000       2.284859        62.1742 
 582   0.0000       2.301070        62.6153 
 583   0.0000       2.306068        62.7513 
 584   0.0000       2.315023        62.9950 
 585   0.0000       2.320127        63.1339 
 586   0.0000       2.324453        63.2516 
 587   0.0000       2.333017        63.4846 
 588   0.0000       2.344378        63.7938 
 589   0.0000       2.351591        63.9900 
 590   0.0000       2.353394        64.0391 
 591   0.0000       2.365104        64.3578 
 592   0.0000       2.370889        64.5152 
 593   0.0000       2.377202        64.6870 
 594   0.0000       2.384792        64.8935 
 595   0.0000       2.392145        65.0936 
 596   0.0000       2.398426        65.2645 
 597   0.0000       2.409683        65.5708 
 598   0.0000       2.412186        65.6389 
 599   0.0000       2.421369        65.8888 
 600   0.0000       2.428223        66.0753 
 601   0.0000       2.437053        66.3156 
 602   0.0000       2.444393        66.5153 
 603   0.0000       2.457991        66.8853 
 604   0.0000       2.462383        67.0049 
 605   0.0000       2.469922        67.2100 
 606   0.0000       2.478317        67.4384 
 607   0.0000       2.493267        67.8452 
 608   0.0000       2.503929        68.1354 
 609   0.0000       2.517594        68.5072 
 610   0.0000       2.527555        68.7783 
 611   0.0000       2.539973        69.1162 
 612   0.0000       2.550795        69.4107 
 613   0.0000       2.575114        70.0724 
 614   0.0000       2.582042        70.2609 
 615   0.0000       2.586486        70.3819 
 616   0.0000       2.608959        70.9934 
 617   0.0000       2.609416        71.0058 
 618   0.0000       2.634224        71.6809 
 619   0.0000       2.641079        71.8674 
 620   0.0000       2.646647        72.0189 
 621   0.0000       2.655001        72.2462 
 622   0.0000       2.665873        72.5421 
 623   0.0000       2.667619        72.5896 
 624   0.0000       2.670243        72.6610 
 625   0.0000       2.680945        72.9522 
 626   0.0000       2.689129        73.1749 
 627   0.0000       2.700354        73.4804 
 628   0.0000       2.713623        73.8414 
 629   0.0000       2.719724        74.0075 
 630   0.0000       2.725844        74.1740 
 631   0.0000       2.739805        74.5539 
 632   0.0000       2.752739        74.9058 
 633   0.0000       2.755824        74.9898 
 634   0.0000       2.771785        75.4241 
 635   0.0000       2.776227        75.5450 
 636   0.0000       2.792258        75.9812 
 637   0.0000       2.798909        76.1622 
 638   0.0000       2.802484        76.2595 
 639   0.0000       2.814991        76.5998 
 640   0.0000       2.834993        77.1441 
 641   0.0000       2.844496        77.4027 
 642   0.0000       2.848896        77.5224 
 643   0.0000       2.860950        77.8504 
 644   0.0000       2.879381        78.3519 
 645   0.0000       2.892473        78.7082 
 646   0.0000       2.898353        78.8682 
 647   0.0000       2.913084        79.2691 
 648   0.0000       2.930167        79.7339 
 649   0.0000       2.946143        80.1686 
 650   0.0000       2.946257        80.1717 
 651   0.0000       2.956593        80.4530 
 652   0.0000       2.971890        80.8692 
 653   0.0000       2.979175        81.0675 
 654   0.0000       3.010048        81.9076 
 655   0.0000       3.026602        82.3580 
 656   0.0000       3.034996        82.5864 
 657   0.0000       3.056740        83.1781 
 658   0.0000       3.070400        83.5498 
 659   0.0000       3.079511        83.7977 
 660   0.0000       3.100183        84.3603 
 661   0.0000       3.108739        84.5931 
 662   0.0000       3.124555        85.0235 
 663   0.0000       3.143065        85.5271 
 664   0.0000       3.155577        85.8676 
 665   0.0000       3.177827        86.4731 
 666   0.0000       3.186914        86.7203 
 667   0.0000       3.188155        86.7541 
 668   0.0000       3.205879        87.2364 
 669   0.0000       3.209163        87.3258 
 670   0.0000       3.218981        87.5929 
 671   0.0000       3.224401        87.7404 
 672   0.0000       3.231981        87.9467 
 673   0.0000       3.248577        88.3983 
 674   0.0000       3.250366        88.4469 
 675   0.0000       3.267515        88.9136 
 676   0.0000       3.271790        89.0299 
 677   0.0000       3.281515        89.2946 
 678   0.0000       3.285263        89.3966 
 679   0.0000       3.301187        89.8299 
 680   0.0000       3.313421        90.1628 
 681   0.0000       3.319514        90.3286 
 682   0.0000       3.328247        90.5662 
 683   0.0000       3.332735        90.6883 
 684   0.0000       3.337447        90.8166 
 685   0.0000       3.350503        91.1718 
 686   0.0000       3.359608        91.4196 
 687   0.0000       3.384478        92.0963 
 688   0.0000       3.389228        92.2256 
 689   0.0000       3.401624        92.5629 
 690   0.0000       3.413786        92.8939 
 691   0.0000       3.417521        92.9955 
 692   0.0000       3.434786        93.4653 
 693   0.0000       3.442516        93.6756 
 694   0.0000       3.453485        93.9741 
 695   0.0000       3.460968        94.1777 
 696   0.0000       3.467880        94.3658 
 697   0.0000       3.470749        94.4439 
 698   0.0000       3.484498        94.8180 
 699   0.0000       3.489383        94.9509 
 700   0.0000       3.496880        95.1549 
 701   0.0000       3.503097        95.3241 
 702   0.0000       3.520745        95.8043 
 703   0.0000       3.524113        95.8960 
 704   0.0000       3.532586        96.1266 
 705   0.0000       3.536090        96.2219 
 706   0.0000       3.540522        96.3425 
 707   0.0000       3.553221        96.6881 
 708   0.0000       3.556576        96.7793 
 709   0.0000       3.569627        97.1345 
 710   0.0000       3.570778        97.1658 
 711   0.0000       3.579638        97.4069 
 712   0.0000       3.593115        97.7736 
 713   0.0000       3.608308        98.1871 
 714   0.0000       3.611091        98.2628 
 715   0.0000       3.618427        98.4624 
 716   0.0000       3.626190        98.6736 
 717   0.0000       3.631950        98.8304 
 718   0.0000       3.637095        98.9704 
 719   0.0000       3.650385        99.3320 
 720   0.0000       3.652927        99.4012 
 721   0.0000       3.671883        99.9170 
 722   0.0000       3.677388       100.0668 
 723   0.0000       3.681626       100.1821 
 724   0.0000       3.691624       100.4542 
 725   0.0000       3.709157       100.9313 
 726   0.0000       3.711657       100.9993 
 727   0.0000       3.719182       101.2041 
 728   0.0000       3.724690       101.3540 
 729   0.0000       3.734753       101.6278 
 730   0.0000       3.739671       101.7616 
 731   0.0000       3.750871       102.0664 
 732   0.0000       3.760315       102.3234 
 733   0.0000       3.764323       102.4324 
 734   0.0000       3.771532       102.6286 
 735   0.0000       3.776037       102.7512 
 736   0.0000       3.781922       102.9113 
 737   0.0000       3.787480       103.0626 
 738   0.0000       3.792233       103.1919 
 739   0.0000       3.799393       103.3868 
 740   0.0000       3.805205       103.5449 
 741   0.0000       3.811623       103.7195 
 742   0.0000       3.816351       103.8482 
 743   0.0000       3.828818       104.1874 
 744   0.0000       3.834831       104.3511 
 745   0.0000       3.840466       104.5044 
 746   0.0000       3.854742       104.8929 
 747   0.0000       3.860257       105.0429 
 748   0.0000       3.864614       105.1615 
 749   0.0000       3.876842       105.4942 
 750   0.0000       3.881526       105.6217 
 751   0.0000       3.891354       105.8891 
 752   0.0000       3.900552       106.1394 
 753   0.0000       3.906875       106.3115 
 754   0.0000       3.916703       106.5789 
 755   0.0000       3.920375       106.6788 
 756   0.0000       3.923702       106.7693 
 757   0.0000       3.928771       106.9073 
 758   0.0000       3.939238       107.1921 
 759   0.0000       3.942818       107.2895 
 760   0.0000       3.950469       107.4977 
 761   0.0000       3.955322       107.6298 
 762   0.0000       3.963020       107.8393 
 763   0.0000       3.973582       108.1267 
 764   0.0000       3.981323       108.3373 
 765   0.0000       3.988603       108.5354 
 766   0.0000       3.999922       108.8434 
 767   0.0000       4.003023       108.9278 
 768   0.0000       4.010487       109.1309 
 769   0.0000       4.015182       109.2586 
 770   0.0000       4.020387       109.4003 
 771   0.0000       4.027265       109.5875 
 772   0.0000       4.037460       109.8649 
 773   0.0000       4.044588       110.0588 
 774   0.0000       4.055852       110.3653 
 775   0.0000       4.062170       110.5373 
 776   0.0000       4.066396       110.6523 
 777   0.0000       4.074272       110.8666 
 778   0.0000       4.080208       111.0281 
 779   0.0000       4.092146       111.3530 
 780   0.0000       4.093103       111.3790 
 781   0.0000       4.097693       111.5039 
 782   0.0000       4.108730       111.8042 
 783   0.0000       4.121378       112.1484 
 784   0.0000       4.125157       112.2512 
 785   0.0000       4.132152       112.4416 
 786   0.0000       4.135891       112.5433 
 787   0.0000       4.150763       112.9480 
 788   0.0000       4.155370       113.0734 
 789   0.0000       4.167187       113.3949 
 790   0.0000       4.172529       113.5403 
 791   0.0000       4.186377       113.9171 
 792   0.0000       4.198514       114.2474 
 793   0.0000       4.207902       114.5028 
 794   0.0000       4.210659       114.5779 
 795   0.0000       4.218969       114.8040 
 796   0.0000       4.230354       115.1138 
 797   0.0000       4.246077       115.5416 
 798   0.0000       4.250316       115.6570 
 799   0.0000       4.261331       115.9567 
 800   0.0000       4.265720       116.0762 
 801   0.0000       4.282551       116.5341 
 802   0.0000       4.290249       116.7436 
 803   0.0000       4.299608       116.9983 
 804   0.0000       4.303296       117.0986 
 805   0.0000       4.311997       117.3354 
 806   0.0000       4.317832       117.4942 
 807   0.0000       4.331096       117.8551 
 808   0.0000       4.336987       118.0154 
 809   0.0000       4.343617       118.1958 
 810   0.0000       4.359513       118.6284 
 811   0.0000       4.367132       118.8357 
 812   0.0000       4.376049       119.0783 
 813   0.0000       4.384939       119.3203 
 814   0.0000       4.394850       119.5900 
 815   0.0000       4.402288       119.7923 
 816   0.0000       4.411693       120.0483 
 817   0.0000       4.414886       120.1352 
 818   0.0000       4.432310       120.6093 
 819   0.0000       4.444261       120.9345 
 820   0.0000       4.457555       121.2962 
 821   0.0000       4.459524       121.3498 
 822   0.0000       4.472108       121.6922 
 823   0.0000       4.481351       121.9438 
 824   0.0000       4.496192       122.3476 
 825   0.0000       4.502212       122.5114 
 826   0.0000       4.510905       122.7480 
 827   0.0000       4.511448       122.7627 
 828   0.0000       4.521864       123.0462 
 829   0.0000       4.532455       123.3344 
 830   0.0000       4.547437       123.7420 
 831   0.0000       4.551993       123.8660 
 832   0.0000       4.564356       124.2025 
 833   0.0000       4.568588       124.3176 
 834   0.0000       4.575642       124.5095 
 835   0.0000       4.591576       124.9431 
 836   0.0000       4.601359       125.2093 
 837   0.0000       4.622867       125.7946 
 838   0.0000       4.628034       125.9352 
 839   0.0000       4.639553       126.2487 
 840   0.0000       4.649462       126.5183 
 841   0.0000       4.664973       126.9404 
 842   0.0000       4.672268       127.1389 
 843   0.0000       4.684486       127.4714 
 844   0.0000       4.694200       127.7357 
 845   0.0000       4.704903       128.0269 
 846   0.0000       4.707202       128.0895 
 847   0.0000       4.720075       128.4398 
 848   0.0000       4.726666       128.6191 
 849   0.0000       4.734588       128.8347 
 850   0.0000       4.756507       129.4311 
 851   0.0000       4.763295       129.6158 
 852   0.0000       4.785439       130.2184 
 853   0.0000       4.807953       130.8311 
 854   0.0000       4.810204       130.8923 
 855   0.0000       4.813974       130.9949 
 856   0.0000       4.827839       131.3722 
 857   0.0000       4.830120       131.4342 
 858   0.0000       4.842539       131.7722 
 859   0.0000       4.862711       132.3211 
 860   0.0000       4.878212       132.7429 
 861   0.0000       4.885973       132.9541 
 862   0.0000       4.903705       133.4366 
 863   0.0000       4.919557       133.8679 
 864   0.0000       4.926656       134.0611 
 865   0.0000       4.941207       134.4571 
 866   0.0000       4.947858       134.6381 
 867   0.0000       4.961433       135.0075 
 868   0.0000       4.966678       135.1502 
 869   0.0000       4.974726       135.3692 
 870   0.0000       4.991098       135.8147 
 871   0.0000       4.995137       135.9246 
 872   0.0000       4.999326       136.0386 
 873   0.0000       5.009499       136.3154 
 874   0.0000       5.021675       136.6467 
 875   0.0000       5.039936       137.1436 
 876   0.0000       5.045388       137.2920 
 877   0.0000       5.056578       137.5965 
 878   0.0000       5.066759       137.8735 
 879   0.0000       5.080966       138.2601 
 880   0.0000       5.095782       138.6633 
 881   0.0000       5.111345       139.0868 
 882   0.0000       5.121628       139.3666 
 883   0.0000       5.128204       139.5455 
 884   0.0000       5.148187       140.0893 
 885   0.0000       5.155285       140.2824 
 886   0.0000       5.162328       140.4741 
 887   0.0000       5.179235       140.9342 
 888   0.0000       5.200083       141.5015 
 889   0.0000       5.209708       141.7634 
 890   0.0000       5.212474       141.8386 
 891   0.0000       5.221795       142.0923 
 892   0.0000       5.239621       142.5773 
 893   0.0000       5.253410       142.9526 
 894   0.0000       5.266073       143.2971 
 895   0.0000       5.275749       143.5604 
 896   0.0000       5.284528       143.7993 
 897   0.0000       5.299127       144.1966 
 898   0.0000       5.308279       144.4456 
 899   0.0000       5.322998       144.8461 
 900   0.0000       5.334249       145.1523 
 901   0.0000       5.357934       145.7968 
 902   0.0000       5.374395       146.2447 
 903   0.0000       5.379714       146.3895 
 904   0.0000       5.404809       147.0723 
 905   0.0000       5.418209       147.4370 
 906   0.0000       5.420128       147.4892 
 907   0.0000       5.428868       147.7270 
 908   0.0000       5.437620       147.9652 
 909   0.0000       5.449391       148.2855 
 910   0.0000       5.458852       148.5429 
 911   0.0000       5.468563       148.8072 
 912   0.0000       5.478530       149.0784 
 913   0.0000       5.496165       149.5582 
 914   0.0000       5.507571       149.8686 
 915   0.0000       5.522610       150.2779 
 916   0.0000       5.537398       150.6803 
 917   0.0000       5.554203       151.1376 
 918   0.0000       5.573029       151.6498 
 919   0.0000       5.575528       151.7178 
 920   0.0000       5.588309       152.0656 
 921   0.0000       5.590183       152.1166 
 922   0.0000       5.598918       152.3543 
 923   0.0000       5.610590       152.6719 
 924   0.0000       5.618232       152.8799 
 925   0.0000       5.637927       153.4158 
 926   0.0000       5.647783       153.6840 
 927   0.0000       5.656679       153.9261 
 928   0.0000       5.673425       154.3817 
 929   0.0000       5.683645       154.6598 
 930   0.0000       5.693327       154.9233 
 931   0.0000       5.708835       155.3453 
 932   0.0000       5.713495       155.4721 
 933   0.0000       5.725406       155.7962 
 934   0.0000       5.733675       156.0212 
 935   0.0000       5.759871       156.7341 
 936   0.0000       5.762163       156.7964 
 937   0.0000       5.787828       157.4948 
 938   0.0000       5.795204       157.6955 
 939   0.0000       5.818959       158.3419 
 940   0.0000       5.835448       158.7906 
 941   0.0000       5.848581       159.1480 
 942   0.0000       5.866091       159.6244 
 943   0.0000       5.889398       160.2587 
 944   0.0000       5.911366       160.8565 
 945   0.0000       6.009004       163.5133 
 946   0.0000       6.052378       164.6936 
 947   0.0000       6.059674       164.8921 
 948   0.0000       6.098951       165.9609 
 949   0.0000       6.111458       166.3012 
 950   0.0000       6.146814       167.2633 
 951   0.0000       6.157653       167.5583 
 952   0.0000       6.182681       168.2393 
 953   0.0000       6.189926       168.4364 
 954   0.0000       6.207300       168.9092 
 955   0.0000       6.227836       169.4680 
 956   0.0000       6.239029       169.7726 
 957   0.0000       6.246308       169.9707 
 958   0.0000       6.268876       170.5848 
 959   0.0000       6.278496       170.8466 
 960   0.0000       6.298818       171.3996 
 961   0.0000       6.307338       171.6314 
 962   0.0000       6.315013       171.8402 
 963   0.0000       6.335605       172.4006 
 964   0.0000       6.351236       172.8259 
 965   0.0000       6.361726       173.1114 
 966   0.0000       6.376166       173.5043 
 967   0.0000       6.390337       173.8899 
 968   0.0000       6.442761       175.3164 
 969   0.0000       6.516081       177.3116 
 970   0.0000       6.561582       178.5497 
 971   0.0000       6.626071       180.3046 
 972   0.0000       6.821344       185.6182 
 973   0.0000       6.835476       186.0027 
 974   0.0000       6.856609       186.5778 
 975   0.0000       6.891240       187.5202 
 976   0.0000       6.911999       188.0850 
 977   0.0000       6.927496       188.5067 
 978   0.0000       6.937013       188.7657 
 979   0.0000       6.981377       189.9729 
 980   0.0000       7.008717       190.7169 
 981   0.0000       7.015723       190.9075 
 982   0.0000       7.020475       191.0368 
 983   0.0000       7.031373       191.3334 
 984   0.0000       7.066333       192.2847 
 985   0.0000       7.119343       193.7272 
 986   0.0000       7.223095       196.5504 
 987   0.0000       7.313874       199.0206 
 988   0.0000       7.319507       199.1739 
 989   0.0000       7.386170       200.9879 
 990   0.0000       7.497723       204.0234 
 991   0.0000       7.559345       205.7002 
 992   0.0000       7.621699       207.3970 
 993   0.0000       7.692978       209.3366 
 994   0.0000       7.757961       211.1048 
 995   0.0000       7.864447       214.0025 
 996   0.0000       7.920313       215.5227 
 997   0.0000       8.005241       217.8337 
 998   0.0000       8.266247       224.9360 
 999   0.0000       9.405352       255.9327 
 1000   0.0000       9.418174       256.2815 
 1001   0.0000       9.429763       256.5969 
 1002   0.0000       9.441769       256.9236 
 1003   0.0000       9.456561       257.3261 
 1004   0.0000       9.481436       258.0030 
 1005   0.0000       9.679842       263.4019 
 1006   0.0000      10.087063       274.4829 
 1007   0.0000      10.091079       274.5922 
 1008   0.0000      10.106198       275.0036 
 1009   0.0000      10.204776       277.6861 
 1010   0.0000      10.210158       277.8325 
 1011   0.0000      10.237923       278.5881 
 1012   0.0000      10.341199       281.3983 
 1013   0.0000      10.386151       282.6215 
 1014   0.0000      10.475070       285.0411 
 1015   0.0000      11.730954       319.2155 
 1016   0.0000      16.829060       457.9420 
 1017   0.0000      17.578668       478.3399 
 1018   0.0000      18.234793       496.1940 
 1019   0.0000      18.379511       500.1319 
 1020   0.0000      18.616078       506.5692 
 1021   0.0000      18.761753       510.5332 
 1022   0.0000      20.288760       552.0852 
 1023   0.0000      21.012542       571.7803 
 1024   0.0000      21.544500       586.2557 

                 SPIN DOWN ORBITALS
  NO   OCC          E(Eh)            E(eV) 
   0   1.0000    -261.567502     -7117.6136 
   1   1.0000    -104.789767     -2851.4745 
   2   1.0000    -104.785963     -2851.3710 
   3   1.0000    -104.783609     -2851.3070 
   4   1.0000     -32.076829      -872.8549 
   5   1.0000     -27.554743      -749.8027 
   6   1.0000     -27.554683      -749.8010 
   7   1.0000     -27.554545      -749.7973 
   8   1.0000     -20.607628      -560.7621 
   9   1.0000     -11.419303      -310.7350 
  10   1.0000     -11.281521      -306.9858 
  11   1.0000     -11.274880      -306.8051 
  12   1.0000     -11.270569      -306.6878 
  13   1.0000     -11.251108      -306.1582 
  14   1.0000     -11.250540      -306.1428 
  15   1.0000     -11.237411      -305.7855 
  16   1.0000     -11.235908      -305.7446 
  17   1.0000     -10.516383      -286.1653 
  18   1.0000     -10.512536      -286.0606 
  19   1.0000     -10.510139      -285.9954 
  20   1.0000      -7.982290      -217.2092 
  21   1.0000      -7.981590      -217.1901 
  22   1.0000      -7.981547      -217.1889 
  23   1.0000      -7.978439      -217.1044 
  24   1.0000      -7.977726      -217.0850 
  25   1.0000      -7.977640      -217.0826 
  26   1.0000      -7.976118      -217.0412 
  27   1.0000      -7.975269      -217.0181 
  28   1.0000      -7.975180      -217.0157 
  29   1.0000      -4.151697      -112.9734 
  30   1.0000      -2.673302       -72.7442 
  31   1.0000      -2.673237       -72.7425 
  32   1.0000      -2.672758       -72.7294 
  33   1.0000      -1.444727       -39.3130 
  34   1.0000      -1.135018       -30.8854 
  35   1.0000      -1.094105       -29.7721 
  36   1.0000      -1.048216       -28.5234 
  37   1.0000      -1.035776       -28.1849 
  38   1.0000      -1.032026       -28.0829 
  39   1.0000      -1.024024       -27.8651 
  40   1.0000      -1.006475       -27.3876 
  41   1.0000      -0.965910       -26.2838 
  42   1.0000      -0.901515       -24.5315 
  43   1.0000      -0.823759       -22.4156 
  44   1.0000      -0.737752       -20.0753 
  45   1.0000      -0.708526       -19.2800 
  46   1.0000      -0.695422       -18.9234 
  47   1.0000      -0.681834       -18.5536 
  48   1.0000      -0.660800       -17.9813 
  49   1.0000      -0.627175       -17.0663 
  50   1.0000      -0.620729       -16.8909 
  51   1.0000      -0.605580       -16.4787 
  52   1.0000      -0.598092       -16.2749 
  53   1.0000      -0.584147       -15.8954 
  54   1.0000      -0.574736       -15.6393 
  55   1.0000      -0.560929       -15.2637 
  56   1.0000      -0.557772       -15.1778 
  57   1.0000      -0.546208       -14.8631 
  58   1.0000      -0.544095       -14.8056 
  59   1.0000      -0.530568       -14.4375 
  60   1.0000      -0.521194       -14.1824 
  61   1.0000      -0.501834       -13.6556 
  62   1.0000      -0.498779       -13.5725 
  63   1.0000      -0.482177       -13.1207 
  64   1.0000      -0.479106       -13.0372 
  65   1.0000      -0.451686       -12.2910 
  66   1.0000      -0.447754       -12.1840 
  67   1.0000      -0.445079       -12.1112 
  68   1.0000      -0.429232       -11.6800 
  69   1.0000      -0.425554       -11.5799 
  70   1.0000      -0.410639       -11.1741 
  71   1.0000      -0.363665        -9.8958 
  72   0.0000       0.012143         0.3304 
  73   0.0000       0.022682         0.6172 
  74   0.0000       0.023687         0.6446 
  75   0.0000       0.029956         0.8151 
  76   0.0000       0.038606         1.0505 
  77   0.0000       0.040444         1.1005 
  78   0.0000       0.042266         1.1501 
  79   0.0000       0.043744         1.1903 
  80   0.0000       0.044384         1.2077 
  81   0.0000       0.051252         1.3946 
  82   0.0000       0.056954         1.5498 
  83   0.0000       0.061143         1.6638 
  84   0.0000       0.062049         1.6884 
  85   0.0000       0.062940         1.7127 
  86   0.0000       0.064697         1.7605 
  87   0.0000       0.070759         1.9255 
  88   0.0000       0.077003         2.0954 
  89   0.0000       0.082776         2.2525 
  90   0.0000       0.089218         2.4278 
  91   0.0000       0.090981         2.4757 
  92   0.0000       0.093140         2.5345 
  93   0.0000       0.099086         2.6963 
  94   0.0000       0.101173         2.7531 
  95   0.0000       0.101870         2.7720 
  96   0.0000       0.105379         2.8675 
  97   0.0000       0.108531         2.9533 
  98   0.0000       0.109614         2.9827 
  99   0.0000       0.111542         3.0352 
 100   0.0000       0.113641         3.0923 
 101   0.0000       0.115495         3.1428 
 102   0.0000       0.119232         3.2445 
 103   0.0000       0.122310         3.3282 
 104   0.0000       0.124027         3.3749 
 105   0.0000       0.125002         3.4015 
 106   0.0000       0.126824         3.4511 
 107   0.0000       0.129733         3.5302 
 108   0.0000       0.132813         3.6140 
 109   0.0000       0.134480         3.6594 
 110   0.0000       0.135919         3.6986 
 111   0.0000       0.139099         3.7851 
 112   0.0000       0.145785         3.9670 
 113   0.0000       0.147175         4.0048 
 114   0.0000       0.152529         4.1505 
 115   0.0000       0.152831         4.1588 
 116   0.0000       0.157153         4.2763 
 117   0.0000       0.161204         4.3866 
 118   0.0000       0.162020         4.4088 
 119   0.0000       0.168840         4.5944 
 120   0.0000       0.171900         4.6776 
 121   0.0000       0.172685         4.6990 
 122   0.0000       0.174245         4.7415 
 123   0.0000       0.179891         4.8951 
 124   0.0000       0.182978         4.9791 
 125   0.0000       0.184489         5.0202 
 126   0.0000       0.187323         5.0973 
 127   0.0000       0.190725         5.1899 
 128   0.0000       0.196309         5.3418 
 129   0.0000       0.199166         5.4196 
 130   0.0000       0.200179         5.4472 
 131   0.0000       0.202602         5.5131 
 132   0.0000       0.207557         5.6479 
 133   0.0000       0.210403         5.7254 
 134   0.0000       0.215682         5.8690 
 135   0.0000       0.219784         5.9806 
 136   0.0000       0.224386         6.1058 
 137   0.0000       0.228890         6.2284 
 138   0.0000       0.230640         6.2760 
 139   0.0000       0.234376         6.3777 
 140   0.0000       0.234744         6.3877 
 141   0.0000       0.237509         6.4629 
 142   0.0000       0.241886         6.5821 
 143   0.0000       0.246066         6.6958 
 144   0.0000       0.247839         6.7440 
 145   0.0000       0.251611         6.8467 
 146   0.0000       0.254464         6.9243 
 147   0.0000       0.261009         7.1024 
 148   0.0000       0.265475         7.2239 
 149   0.0000       0.269040         7.3209 
 150   0.0000       0.269864         7.3434 
 151   0.0000       0.275298         7.4912 
 152   0.0000       0.280988         7.6461 
 153   0.0000       0.282723         7.6933 
 154   0.0000       0.286726         7.8022 
 155   0.0000       0.290959         7.9174 
 156   0.0000       0.293907         7.9976 
 157   0.0000       0.297011         8.0821 
 158   0.0000       0.298672         8.1273 
 159   0.0000       0.305568         8.3149 
 160   0.0000       0.310870         8.4592 
 161   0.0000       0.313934         8.5426 
 162   0.0000       0.321210         8.7406 
 163   0.0000       0.323955         8.8153 
 164   0.0000       0.327281         8.9058 
 165   0.0000       0.333925         9.0866 
 166   0.0000       0.335607         9.1323 
 167   0.0000       0.339547         9.2395 
 168   0.0000       0.344196         9.3660 
 169   0.0000       0.346111         9.4181 
 170   0.0000       0.348424         9.4811 
 171   0.0000       0.352541         9.5931 
 172   0.0000       0.357255         9.7214 
 173   0.0000       0.360876         9.8199 
 174   0.0000       0.363700         9.8968 
 175   0.0000       0.367773        10.0076 
 176   0.0000       0.372538        10.1373 
 177   0.0000       0.374420        10.1885 
 178   0.0000       0.378010        10.2862 
 179   0.0000       0.379584        10.3290 
 180   0.0000       0.384393        10.4599 
 181   0.0000       0.386150        10.5077 
 182   0.0000       0.387988        10.5577 
 183   0.0000       0.391360        10.6494 
 184   0.0000       0.392340        10.6761 
 185   0.0000       0.394990        10.7482 
 186   0.0000       0.397917        10.8279 
 187   0.0000       0.402424        10.9505 
 188   0.0000       0.405225        11.0267 
 189   0.0000       0.405673        11.0389 
 190   0.0000       0.415511        11.3066 
 191   0.0000       0.419487        11.4148 
 192   0.0000       0.420164        11.4332 
 193   0.0000       0.427781        11.6405 
 194   0.0000       0.430039        11.7020 
 195   0.0000       0.433481        11.7956 
 196   0.0000       0.437949        11.9172 
 197   0.0000       0.442537        12.0420 
 198   0.0000       0.447637        12.1808 
 199   0.0000       0.448334        12.1998 
 200   0.0000       0.453206        12.3324 
 201   0.0000       0.454295        12.3620 
 202   0.0000       0.457158        12.4399 
 203   0.0000       0.463453        12.6112 
 204   0.0000       0.464977        12.6527 
 205   0.0000       0.468448        12.7471 
 206   0.0000       0.474560        12.9134 
 207   0.0000       0.477580        12.9956 
 208   0.0000       0.482494        13.1293 
 209   0.0000       0.484257        13.1773 
 210   0.0000       0.486595        13.2409 
 211   0.0000       0.490470        13.3464 
 212   0.0000       0.495395        13.4804 
 213   0.0000       0.497949        13.5499 
 214   0.0000       0.500078        13.6078 
 215   0.0000       0.504261        13.7216 
 216   0.0000       0.504632        13.7317 
 217   0.0000       0.509218        13.8565 
 218   0.0000       0.514722        14.0063 
 219   0.0000       0.515521        14.0280 
 220   0.0000       0.519858        14.1461 
 221   0.0000       0.520568        14.1654 
 222   0.0000       0.525152        14.2901 
 223   0.0000       0.526592        14.3293 
 224   0.0000       0.528083        14.3699 
 225   0.0000       0.531857        14.4726 
 226   0.0000       0.536234        14.5917 
 227   0.0000       0.538172        14.6444 
 228   0.0000       0.540300        14.7023 
 229   0.0000       0.542877        14.7724 
 230   0.0000       0.547799        14.9064 
 231   0.0000       0.550928        14.9915 
 232   0.0000       0.556937        15.1550 
 233   0.0000       0.558275        15.1914 
 234   0.0000       0.562519        15.3069 
 235   0.0000       0.565288        15.3823 
 236   0.0000       0.569372        15.4934 
 237   0.0000       0.574948        15.6451 
 238   0.0000       0.579879        15.7793 
 239   0.0000       0.583507        15.8780 
 240   0.0000       0.585102        15.9214 
 241   0.0000       0.587283        15.9808 
 242   0.0000       0.591311        16.0904 
 243   0.0000       0.595097        16.1934 
 244   0.0000       0.598338        16.2816 
 245   0.0000       0.600552        16.3418 
 246   0.0000       0.605653        16.4806 
 247   0.0000       0.612415        16.6647 
 248   0.0000       0.613485        16.6938 
 249   0.0000       0.620164        16.8755 
 250   0.0000       0.622916        16.9504 
 251   0.0000       0.625730        17.0270 
 252   0.0000       0.629296        17.1240 
 253   0.0000       0.634226        17.2582 
 254   0.0000       0.639782        17.4094 
 255   0.0000       0.643858        17.5203 
 256   0.0000       0.646178        17.5834 
 257   0.0000       0.651602        17.7310 
 258   0.0000       0.654938        17.8218 
 259   0.0000       0.657337        17.8871 
 260   0.0000       0.661083        17.9890 
 261   0.0000       0.665229        18.1018 
 262   0.0000       0.670761        18.2523 
 263   0.0000       0.673742        18.3334 
 264   0.0000       0.675833        18.3904 
 265   0.0000       0.681910        18.5557 
 266   0.0000       0.685499        18.6534 
 267   0.0000       0.692898        18.8547 
 268   0.0000       0.698174        18.9983 
 269   0.0000       0.700505        19.0617 
 270   0.0000       0.703592        19.1457 
 271   0.0000       0.712437        19.3864 
 272   0.0000       0.715850        19.4793 
 273   0.0000       0.719082        19.5672 
 274   0.0000       0.722036        19.6476 
 275   0.0000       0.727952        19.8086 
 276   0.0000       0.730255        19.8713 
 277   0.0000       0.732964        19.9450 
 278   0.0000       0.739613        20.1259 
 279   0.0000       0.741410        20.1748 
 280   0.0000       0.747669        20.3451 
 281   0.0000       0.749506        20.3951 
 282   0.0000       0.758616        20.6430 
 283   0.0000       0.765667        20.8349 
[...]
  | sigma^2 in % of trace(Dij) retained ...   9.23e+00
  | sigma^2 in % of trace(Dip) retained ...   1.54e+01
  | sigma^2 in % of trace(Dpq) retained ...   1.36e-01
  | Av. % of trace(Di) retained         ...  99.998566216946
  | Av. % of trace(Dp) retained         ...  99.999998399609
  | sigma^2 in % of trace(Di) retained  ...   6.67e-07
  | sigma^2 in % of trace(Dp) retained  ...   1.78e-12
 Distributions of % trace(Dij) recovered:
  |       >= 99.9  ...   105 ( 22.1 % of all IJ-pairs)
  |   [80.0, 90.0) ...    25 (  5.3 % of all IJ-pairs)
  |   [90.0, 99.0) ...   251 ( 52.8 % of all IJ-pairs)
  |   [99.0, 99.9) ...    94 ( 19.8 % of all IJ-pairs)
 Distributions of % trace(Dip) recovered:
  |   [80.0, 90.0) ...    13 ( 11.5 % of all IP-pairs)
  |   [90.0, 99.0) ...    56 ( 49.6 % of all IP-pairs)
  |   [99.0, 99.9) ...    44 ( 38.9 % of all IP-pairs)
 Distributions of % trace(Dpq) recovered:
  |       >= 99.9  ...     5 ( 33.3 % of all PQ-pairs)
  |   [99.0, 99.9) ...    10 ( 66.7 % of all PQ-pairs)
 Distributions of % trace(Di) recovered :
  |       >= 99.9  ...    43 (100.0 % of all I-pairs )
 Distributions of % trace(Dp) recovered :
  |       >= 99.9  ...     5 (100.0 % of all P-pairs )

                       ===========================
                       1045 OF 1664 PAIRS ARE KEPT
                       ===========================

 Initial PAO correlation energy (all pairs)    ...  -2.6861404589 Eh
 Energy constituents in PAO basis (Eh):
  | Vijab(+0) ...  -2.2588354156
  | Viab (-1) ...  -0.1741774557
  | Vab  (-2) ...  -0.0573382003
  | Va   (-1) ...  -0.0000447400
  | Vija (+1) ...  -0.0715375106
  | Vij  (+2) ...  -0.0155305540
  | Via  (+0) ...  -0.1085134991
  | Vi   (+1) ...  -0.0001630835
 Initial PNO correlation energy                ...  -2.6513125919 Eh
 Energy constituents in PNO basis (Eh):
  | Vijab(+0) ...  -2.2396065532 (err=  0.0192288624)
  | Viab (-1) ...  -0.1601814131 (err=  0.0139960426)
  | Vab  (-2) ...  -0.0568834834 (err=  0.0004547170)
  | Va   (-1) ...  -0.0000259317 (err=  0.0000188083)
  | Vija (+1) ...  -0.0705816440 (err=  0.0009558666)
  | Vij  (+2) ...  -0.0154745945 (err=  0.0000559595)
  | Via  (+0) ...  -0.1083964514 (err=  0.0001170476)
  | Vi   (+1) ...  -0.0001625207 (err=  0.0000005629)
 Sum of total truncation errors ...   0.0348278669 Eh
  | Pair screening ...   0.0124539969 Eh
  | PNO truncation ...   0.0223738700 Eh

 UMP2 correlation energy (PAO) ...  -2.6811013150
  | alpha-alpha ...  -0.3847028349 (NP_aa=  893)
  | alpha-beta  ...  -1.9912577384 (NP_ab= 1639)
  | beta -beta  ...  -0.3051407417 (NP_bb=  713)
 UMP2 correlation energy (PNO) ...  -2.6459047644
  | alpha-alpha ...  -0.3725488280 (err=  0.0121540069, NP_aa=  555)
  | alpha-beta  ...  -1.9724492911 (err=  0.0188084474, NP_ab= 1020)
  | beta -beta  ...  -0.3009066453 (err=  0.0042340963, NP_bb=  432)
 Sum of total UMP2 truncation errors ...   0.0351965506 Eh
  | Pair screening ...   0.0124610412 Eh
  | PNO truncation ...   0.0227355094 Eh
 Timing for NEV-PNO construction (sec.)
  | Intermediate construction  ..           39.260
  | Amplitude construction     ..           57.038
  | Total time                 ..           96.298
 Making pair pair interaction lists ...      ok
 Total size for 2-ext PNO integrals ...     10.7 MB
Checking the number of SOMO/SOMO doubles PNOs ... 
 #Truncate: (72, 72)[173] -> [87] .. 
 #Truncate: (73, 73)[177] -> [87] .. 
 #Truncate: (74, 74)[175] -> [87] .. 
 #Truncate: (75, 75)[175] -> [87] .. 
 #Truncate: (76, 76)[175] -> [87] .. 

--------------------------------
LOCAL RI TRANSFORMATION (VABPAO)
--------------------------------

Number of PAOs:    1030
Basis functions:   1025 (343 shells)
Aux. functions:    2424 (644 shells)

Processing maps (0.0 sec)
Average map sizes:
   Aux shells -> PAOs           1030.0
   PAOs       -> AO shells       343.0

Calculating integrals (191.7 sec, 37370.165 MB)
Finished
-----------------------------
LOCAL RI TRANSFORMATION (IJV)
-----------------------------

Orbital window:      29 to 76
Basis functions:   1025 (343 shells)
Aux. functions:    2424 (644 shells)

Processing maps (0.0 sec)
Average map sizes:
   Aux shells -> MOs(i)           46.3
   Aux shells -> MOs(j)           48.0
   MOs        -> AO shells       339.2

Calculating integrals (22.3 sec, 41.270 MB)
Sorting integrals (0.3 sec, 41.242 MB)
Total time for the integral transformation: 22.6 sec


-------------------------------------
Pair Pair Term precalculation with     
RI-(ij|mn) and (im|jn) transformation  
ON THE FLY                             
-------------------------------------

   IBatch   1 (of   2)              ... done ( 1303.584 sec)
   IBatch   2 (of   2)              ... done (  572.664 sec)
Total EXT                           ...        1876.249 sec

---------------------
RI-PNO TRANSFORMATION
---------------------

Total Number of PNOs                   ... 33026
Total Number of IJ-PNOs                ... 28928
Total Number of IP-PNOs                ...  3135
Total Number of PQ-PNOs                ...   963
Total Number of IJ-pairs               ...   907
Total Number of PI-pairs               ...   113
Total Number of PQ-pairs               ...    25
Average number of PNOs per pair        ...    31
Maximal number of PNOs per pair        ...    87
>> Statistics for ij-pairs..
   #pairs with  1 -  5 PNOs   :    0
   #pairs with  6 - 10 PNOs   :    0
   #pairs with 11 - 15 PNOs   :   70
   #pairs with 16 - 20 PNOs   :  192
   #pairs with 21 - 25 PNOs   :  152
   #pairs with 26 - 30 PNOs   :  142
   #pairs with 31 - 35 PNOs   :   60
   #pairs with 36 - 40 PNOs   :   54
   #pairs with 41 - 45 PNOs   :   46
   #pairs with 46 - 50 PNOs   :   24
   #pairs with 51 - 55 PNOs   :   31
   #pairs with 56 - 60 PNOs   :   60
   #pairs with 61 - 65 PNOs   :   71
   #pairs with 66 - 70 PNOs   :    2
   #pairs with 71 - 75 PNOs   :    1
   #pairs with 81 - 85 PNOs   :    2
>> Statistics for ip-pairs..
   #pairs with  1 -  5 PNOs   :    0
   #pairs with  6 - 10 PNOs   :    1
   #pairs with 11 - 15 PNOs   :   12
   #pairs with 16 - 20 PNOs   :    8
   #pairs with 21 - 25 PNOs   :   24
   #pairs with 26 - 30 PNOs   :   10
   #pairs with 31 - 35 PNOs   :   44
   #pairs with 36 - 40 PNOs   :   13
   #pairs with 41 - 45 PNOs   :    1
   #pairs with 46 - 50 PNOs   :    0
>> Statistics for pq-pairs..
   #pairs with  1 -  5 PNOs   :    0
   #pairs with  6 - 10 PNOs   :    0
   #pairs with 11 - 15 PNOs   :    0
   #pairs with 16 - 20 PNOs   :    0
   #pairs with 21 - 25 PNOs   :   10
   #pairs with 26 - 30 PNOs   :   10
   #pairs with 31 - 35 PNOs   :    0
   #pairs with 36 - 40 PNOs   :    0
   #pairs with 41 - 45 PNOs   :    0
   #pairs with 46 - 50 PNOs   :    0
   #pairs with 86 - 90 PNOs   :    5

Generation of (ij|ab)[P] integrals            ... on
Generation of (ia|bc)[P],(ja|bc)[P] integrals ... on
Storage of 3 and 4 external integrals         ... on
Generation of ALL (ka|bc)[P] integrals        ... on
Keep RI integrals in memory                   ... off

Ibatch:  1 (of  1)
Starting 2-4 index PNO integral generation ... done

Timings:
Total PNO integral transformation time     ...       1798.786 sec
Size of the 3-external file                ...       283 MB
Size of the 4-external file                ...      1940 MB
Size of the IKJL file                      ...        16 MB
Size of the all 3-external file            ...      6799 MB
Size of the 1-external file                ...        21 MB

Size of the PAO/PNO coefficient matrices   ...     208.6 MB

Making pair/pair overlap matrices          ... done (  283.299 sec)
Size of the pair overlap file              ...    2296.0 MB
Total # unrestricted pairs ...       2007
  # of alpha-alpha pairs   ...        555
  # of alpha-beta pairs    ...       1020
  # of beta-beta pairs     ...        432
Constructing the guess amplitudes          ... done (    0.571 sec)

-------------------------
FINAL STARTUP INFORMATION
-------------------------

E(0)                                       ...  -3028.455942467
E(SL-UMP2 in NEV-PNO space)                ...     -2.682070627
Initial E(tot)                             ...  -3031.138013094
<T|T>                                      ...      0.533844426
Number of unrestricted pairs included      ... 2007
Total number of pairs                      ... 4095
----------------------------------------------------------
                     OPEN-SHELL COUPLED CLUSTER ITERATIONS
----------------------------------------------------------

Number of PNO amplitudes to be optimized        ...          2050875
Number of canonical amplitudes for strong pairs ...       1812726371
Untruncated number of canonical amplitudes      ...       3698645738

Iter       E(tot)           E(Corr)          Delta-E          Residual     Time
  0  -3031.145214286     -2.653105956      0.028964671      0.020731702 1420.70
                           *** Turning on DIIS ***
  1  -3031.260078000     -2.767969670     -0.114863714      0.010030918 1440.24
  2  -3031.324950018     -2.832841688     -0.064872018      0.008273603 1411.16
  3  -3031.346770631     -2.854662301     -0.021820613      0.003259766 1510.70
  4  -3031.354337261     -2.862228930     -0.007566630      0.002642402 1717.68
  5  -3031.358474317     -2.866365987     -0.004137056      0.001521005 1702.75
  6  -3031.359994326     -2.867885996     -0.001520009      0.000795070 1653.19
  7  -3031.360651906     -2.868543576     -0.000657581      0.000505038 1632.91
  8  -3031.360795057     -2.868686727     -0.000143150      0.000255146 1651.84
  9  -3031.360854904     -2.868746574     -0.000059847      0.000156445 1662.76
 10  -3031.360855314     -2.868746984     -0.000000410      0.000090863 1678.17
 11  -3031.360869238     -2.868760908     -0.000013924      0.000064145 1686.36
 12  -3031.360873321     -2.868764991     -0.000004083      0.000026709 1663.99
 13  -3031.360875536     -2.868767206     -0.000002215      0.000019354 1651.99
 14  -3031.360877192     -2.868768862     -0.000001656      0.000008314 1651.11
               --- The CCSD iterations have converged ---

E(0)                                       ...  -3028.455942467
E(CORR)(strong-pairs)                      ...     -2.868768862
E(CORR)(weak-pairs)                        ...     -0.036165863
E(CORR)(corrected)                         ...     -2.904934725
E(TOT)                                     ...  -3031.360877192
Singles norm <S|S>**1/2                    ...      0.194739404 ( 0.064797862, 0.129941542)  
T1 diagnostic                              ...      0.020414236                              
<S**2>(linearized)                         ...      8.7508341 (ideal value:      8.7500000)

----------------------
LARGEST PNO AMPLITUDES
----------------------
  47a-> 78a  47b-> 78b       0.054429
  49b-> 72b  -1b-> -1b       0.054375
  51b-> 76b  -1b-> -1b       0.054060
  52b-> 76b  -1b-> -1b       0.053339
  49b-> 75b  -1b-> -1b       0.047536
  49b-> 74b  -1b-> -1b       0.045999
  44a-> 77a  44b-> 77b       0.044876
  62a-> 77a  62b-> 77b       0.044345
  55a-> 77a  55b-> 77b       0.043960
  70a-> 77a  70b-> 77b       0.043845
  56a-> 78a  56b-> 78b       0.043355
  38b-> 73b  -1b-> -1b       0.043173
  64a-> 77a  64b-> 77b       0.043107
  35b-> 72b  -1b-> -1b       0.042863
  69a-> 77a  69b-> 77b       0.042561
  61a-> 77a  61b-> 77b       0.042213

Total # unrestricted pairs ...       1238
  # of alpha-alpha pairs   ...        338
  # of alpha-beta pairs    ...        619
  # of beta-beta pairs     ...        281

-------------------------------------------
DLPNO BASED TRIPLES CORRECTION
-------------------------------------------

Singles multiplier          ...  1.000000
Fragment selection                          .... not used
TCutTNO                     ... 1.000e-09
TCutMP2Pairs                ... 1.000e-05
TCutDOStrong                ... 2.000e-02
TCutMKNStrong               ... 1.000e-02
TCutDOWeak                  ... 4.000e-02
TCutMKNWeak                 ... 1.000e-01
NTCutTNO                    ... 1

Number of Triples that are to be computed         ...     30644

 . . . . . . . . .
10% done  
20% done  
30% done  
40% done  
50% done  
60% done  
70% done  
80% done  
90% done  
          Batch   1   done (  12816.965 sec)

Triples-Correction TCutTNO=   1.000e-09 (NWeakPairs = 0  1  2  3)  -0.116660831601   -0.001856441666    0.000000000000    0.000000000000
Triples-Correction  -0.118517273267

Triples timings:
Total time                      ... 13369.398 sec

Triples List generation         ...     0.000 sec
TNO generation                  ...   552.142 sec
Pair density generation         ...     0.096 sec
Look up tables                  ...     0.102 sec
Generating 3-index integrals    ...  7868.047 sec
Make 4-ind.int. from 3-ind.int  ...     2.940 sec
Projecting amplitudes (D + S)   ...  4693.848 sec
Sorting integrals for spin cases...    51.224 sec
Calculate W0/W1                 ...   162.226 sec
Energy contr. (sum over a,b,c)  ...    38.561 sec

Everything after 3-index        ...  5059.619 sec

Energy contribution AAA         ...    24.257 sec
Energy contribution AAB         ...   111.315 sec
Energy contribution ABB         ...   102.465 sec
Energy contribution BBB         ...    14.017 sec
prep                ...     2.879 sec
makeTTNO            ...  4644.558 sec
copyij              ...     0.120 sec
copyil              ...     3.831 sec
transposeij         ...     0.074 sec
newMatInDoubleProj  ...    48.229 sec
BlasInDoubleProj    ...  2507.348 sec
ProjSingles         ...    40.075 sec
ProjDoubles         ...  4653.772 sec
overall Doubles for projection      ... 2701612
used Doubles for projection         ... 2701612


Number of Triples   (0, 1, 2, 3 weak pairs; overall):  14427   10897       0       0  ( 25324)
Number of Atoms     (0, 1, 2, 3 weak pairs; overall):   18.6    13.8     0.0     0.0  (    29)
Number of PAOs      (0, 1, 2, 3 weak pairs; overall):  735.6   556.9     0.0     0.0  (  1025)
Number of AuxFcns   (0, 1, 2, 3 weak pairs; overall):  834.1   569.9     0.0     0.0  (  2424)
Number of TNOs (0, 1, 2, 3 weak pairs         ):   79.5    56.9     0.0     0.0
Aver. Number of NTNO, Atoms, PAOs, AuxFcns / Triples:  25324    69.8    16.6   658.7   720.4

Triples Correction (T)                     ...     -0.118517273
    alpha-alpha-alpha ... -0.003798080 (  3.2%)
    alpha-alpha-beta  ... -0.055675151 ( 47.0%)
    alpha-beta -beta  ... -0.054995320 ( 46.4%)
    beta -beta -beta  ... -0.004048722 (  3.4%)
Final correlation energy                   ...     -3.023451998
E(CCSD)                                    ...  -3031.360877192
E(CCSD(T))                                 ...  -3031.479394465

----------------------------
STATISTICS FOR PAIR-ENERGIES
----------------------------
Minimum, maximum and average ratios of UMP and CCSD pair-energies ... 0.45, 1.44, 1.02


------------------------------------------------------------------------------- 
                                     TIMINGS                                   
------------------------------------------------------------------------------- 


Total execution time                   ...    44780.713 sec

Localization of occupied MO's          ...       10.291 sec (  0.0%)
Fock Matrix Formation                  ...     1368.914 sec (  3.1%)
Differential overlap integrals         ...        1.600 sec (  0.0%)
Organizing maps                        ...        1.622 sec (  0.0%)
RI 3-index integral generations        ...      275.679 sec (  0.6%)
RI-PNO integral transformation         ...     4089.081 sec (  9.1%)
Initial Guess                          ...     1726.772 sec (  3.9%)
DIIS Solver                            ...       15.880 sec (  0.0%)
State Vector Update                    ...        0.680 sec (  0.0%)
Sigma-vector construction              ...    24135.559 sec ( 53.9%)
  <0|H|D>                              ...        0.029 sec (  0.0% of sigma)
  <D|H|D>(0-ext)                       ...     4691.739 sec ( 19.4% of sigma)
  <D|H|D>(2-ext Fock)                  ...        1.439 sec (  0.0% of sigma)
  <D|H|D>(2-ext)                       ...     3075.684 sec ( 12.7% of sigma)
  <D|H|D>(4-ext)                       ...      159.531 sec (  0.7% of sigma)
  <D|H|D>(4-ext-corr)                  ...      988.048 sec (  4.1% of sigma)
  CCSD doubles correction              ...      433.998 sec (  1.8% of sigma)
  <S|H|S>                              ...      653.624 sec (  2.7% of sigma)
  <S|H|D>(1-ext)                       ...      247.409 sec (  1.0% of sigma)
  <D|H|S>(1-ext)                       ...        1.057 sec (  0.0% of sigma)
  <S|H|D>(3-ext)                       ...       20.812 sec (  0.1% of sigma)
  CCSD singles correction              ...        0.005 sec (  0.0% of sigma)
  Fock-dressing                        ...     7032.273 sec ( 29.1% of sigma)
  Singles amplitudes                   ...      101.632 sec (  0.4% of sigma)
  (ik|jl)-dressing                     ...     5305.142 sec ( 22.0% of sigma)
  (ij|ab),(ia|jb)-dressing             ...     1176.709 sec (  4.9% of sigma)
  Pair energies                        ...        0.124 sec (  0.0% of sigma)
Total Time for computing (T)           ...    13481.662 sec ( 30.1% of ALL)


-------------------------   --------------------
FINAL SINGLE POINT ENERGY     -3031.479394464911
-------------------------   --------------------


                            ***************************************
                            *     ORCA property calculations      *
                            ***************************************

                                    ---------------------
                                    Active property flags
                                    ---------------------
   (+) Dipole Moment


------------------------------------------------------------------------------
                       ORCA ELECTRIC PROPERTIES CALCULATION
------------------------------------------------------------------------------

Dipole Moment Calculation                       ... on
Quadrupole Moment Calculation                   ... off
Polarizability Calculation                      ... off
GBWName                                         ... simple-grid-245-295-b3lyp_d3bj-631gd-gas-singlepoint-DLPNO_CCSD_T1-NormalPNO-augtz-gas.gbw
Electron density file                           ... simple-grid-245-295-b3lyp_d3bj-631gd-gas-singlepoint-DLPNO_CCSD_T1-NormalPNO-augtz-gas.scfp.tmp
The origin for moment calculation is the CENTER OF MASS  = (-0.317759, -0.045436  0.010712)

-------------
DIPOLE MOMENT
-------------
                                X             Y             Z
Electronic contribution:    -43.71313      -5.46940       1.01866
Nuclear contribution   :     47.34615       6.76993      -1.59611
                        -----------------------------------------
Total Dipole Moment    :      3.63302       1.30053      -0.57746
                        -----------------------------------------
Magnitude (a.u.)       :      3.90175
Magnitude (Debye)      :      9.91747



--------------------
Rotational spectrum 
--------------------
 
Rotational constants in cm-1:     0.019046     0.010613     0.009990 
Rotational constants in MHz :   570.987740   318.162663   299.485511 

 Dipole components along the rotational axes: 
x,y,z [a.u.] :     3.628459    -1.290040    -0.627499 
x,y,z [Debye]:     9.222811    -3.279022    -1.594975 

 

Timings for individual modules:

Sum of individual times         ...    61047.444 sec (=1017.457 min)
GTO integral calculation        ...       12.406 sec (=   0.207 min)   0.0 %
SCF iterations                  ...    16237.647 sec (= 270.627 min)  26.6 %
MDCI module                     ...    44797.391 sec (= 746.623 min)  73.4 %
                             ****ORCA TERMINATED NORMALLY****
TOTAL RUN TIME: 0 days 16 hours 57 minutes 30 seconds 40 msec
