
                                 *****************
                                 * O   R   C   A *
                                 *****************

           --- An Ab Initio, DFT and Semiempirical electronic structure package ---

                  #######################################################
                  #                        -***-                        #
                  #          Department of theory and spectroscopy      #
                  #               Directorship: Frank Neese             #
                  #        Max Planck Institute fuer Kohlenforschung    #
                  #                Kaiser Wilhelm Platz 1               #
                  #                 D-45470 Muelheim/Ruhr               #
                  #                      Germany                        #
                  #                                                     #
                  #                  All rights reserved                #
                  #                        -***-                        #
                  #######################################################


                         Program Version 4.1.2  - RELEASE  -


 With contributions from (in alphabetic order):
   Daniel Aravena         : Magnetic Properties
   Michael Atanasov       : Ab Initio Ligand Field Theory
   Alexander A. Auer      : GIAO ZORA
   Ute Becker             : Parallelization
   Giovanni Bistoni       : ED, Open-shell LED
   Martin Brehm           : Molecular dynamics
   Dmytro Bykov           : SCF Hessian
   Vijay G. Chilkuri      : MRCI spin determinant printing
   Dipayan Datta          : RHF DLPNO-CCSD density
   Achintya Kumar Dutta   : EOM-CC, STEOM-CC
   Dmitry Ganyushin       : Spin-Orbit,Spin-Spin,Magnetic field MRCI
   Miquel Garcia          : C-PCM Hessian
   Yang Guo               : DLPNO-NEVPT2, CIM, IAO-localization
   Andreas Hansen         : Spin unrestricted coupled pair/coupled cluster methods
   Benjamin Helmich-Paris : CASSCF linear response (MC-RPA)
   Lee Huntington         : MR-EOM, pCC
   Robert Izsak           : Overlap fitted RIJCOSX, COSX-SCS-MP3, EOM
   Christian Kollmar      : KDIIS, OOCD, Brueckner-CCSD(T), CCSD density
   Simone Kossmann        : Meta GGA functionals, TD-DFT gradient, OOMP2, MP2 Hessian
   Martin Krupicka        : AUTO-CI
   Lucas Lang             : DCDCAS
   Dagmar Lenk            : GEPOL surface, SMD
   Dimitrios Liakos       : Extrapolation schemes; parallel MDCI
   Dimitrios Manganas     : ROCIS; embedding schemes
   Dimitrios Pantazis     : SARC Basis sets
   Taras Petrenko         : DFT Hessian,TD-DFT gradient, ASA, ECA, R-Raman, ABS, FL, XAS/XES, NRVS
   Peter Pinski           : DLPNO-MP2, DLPNO-MP2 Gradient
   Christoph Reimann      : Effective Core Potentials
   Marius Retegan         : Local ZFS, SOC
   Christoph Riplinger    : Optimizer, TS searches, QM/MM, DLPNO-CCSD(T), (RO)-DLPNO pert. Triples
   Tobias Risthaus        : Range-separated hybrids, TD-DFT gradient, RPA, STAB
   Michael Roemelt        : Restricted open shell CIS
   Masaaki Saitow         : Open-shell DLPNO
   Barbara Sandhoefer     : DKH picture change effects
   Avijit Sen             : IP-ROCIS
   Kantharuban Sivalingam : CASSCF convergence, NEVPT2, FIC-MRCI
   Bernardo de Souza      : ESD, SOC TD-DFT
   Georgi Stoychev        : AutoAux, RI-MP2 NMR
   Willem Van den Heuvel  : Paramagnetic NMR
   Boris Wezisla          : Elementary symmetry handling
   Frank Wennmohs         : Technical directorship


 We gratefully acknowledge several colleagues who have allowed us to
 interface, adapt or use parts of their codes:
   Stefan Grimme, W. Hujo, H. Kruse,             : VdW corrections, initial TS optimization,
                  C. Bannwarth                     DFT functionals, gCP, sTDA/sTD-DF
   Ed Valeev                                     : LibInt (2-el integral package), F12 methods
   Garnet Chan, S. Sharma, J. Yang, R. Olivares  : DMRG
   Ulf Ekstrom                                   : XCFun DFT Library
   Mihaly Kallay                                 : mrcc  (arbitrary order and MRCC methods)
   Andreas Klamt, Michael Diedenhofen            : otool_cosmo (COSMO solvation model)
   Jiri Pittner, Ondrej Demel                    : Mk-CCSD
   Frank Weinhold                                : gennbo (NPA and NBO analysis)
   Christopher J. Cramer and Donald G. Truhlar   : smd solvation model
   Lars Goerigk                                  : TD-DFT with DH, B97 family of functionals
   V. Asgeirsson, H. Jonsson                     : NEB implementation
   FAccTs GmbH                                   : IRC, NEB, NEB-TS, Multilevel


 Your calculation uses the libint2 library for the computation of 2-el integrals
 For citations please refer to: http://libint.valeyev.net

 This ORCA versions uses:
   CBLAS   interface :  Fast vector & matrix operations
   LAPACKE interface :  Fast linear algebra routines
   SCALAPACK package :  Parallel linear algebra routines


----- Orbital basis set information -----
Your calculation utilizes the basis: aug-cc-pVTZ 
    H, B-Ne : Obtained from the ccRepo (grant-hill.group.shef.ac.uk/ccrepo) Feb. 2017
              R. A. Kendall, T. H. Dunning, Jr., R. J. Harrison, J. Chem. Phys. 96, 6796 (1992)
         He : Obtained from the ccRepo (grant-hill.group.shef.ac.uk/ccrepo) Feb. 2017
              D. E. Woon, T. H. Dunning, Jr., J. Chem. Phys. 100, 2975 (1994)
  Li-Be, Na : Obtained from the ccRepo (grant-hill.group.shef.ac.uk/ccrepo) Feb. 2017
              B. P. Prascher, D. E. Woon, K. A. Peterson, T. H. Dunning, Jr., A. K. Wilson, Theor. Chem. Acc. 128, 69 (2011)
         Mg : Obtained from the Peterson Research Group Website (tyr0.chem.wsu.edu/~kipeters) Feb. 2017
              B. P. Prascher, D. E. Woon, K. A. Peterson, T. H. Dunning, Jr., A. K. Wilson, Theor. Chem. Acc. 128, 69 (2011)
      Al-Ar : Obtained from the ccRepo (grant-hill.group.shef.ac.uk/ccrepo) Feb. 2017
              D. E. Woon, T. H. Dunning, Jr., J. Chem. Phys. 98, 1358 (1993)
      Sc-Zn : Obtained from the ccRepo (grant-hill.group.shef.ac.uk/ccrepo) Feb. 2017
              N. B. Balabanov, K. A. Peterson, J. Chem. Phys. 123, 064107 (2005)
              N. B. Balabanov, K. A. Peterson, J. Chem. Phys. 125, 074110 (2006)
      Ga-Kr : Obtained from the ccRepo (grant-hill.group.shef.ac.uk/ccrepo) Feb. 2017
              A. K. Wilson, D. E. Woon, K. A. Peterson, T. H. Dunning, Jr., J. Chem. Phys. 110, 7667 (1999)
     Ag, Au : Obtained from the Peterson Research Group Website (tyr0.chem.wsu.edu/~kipeters) Feb. 2017
              K. A. Peterson, C. Puzzarini, Theor. Chem. Acc. 114, 283 (2005)

----- AuxJ basis set information -----
Your calculation utilizes the AutoAux generation procedure.
  G. L. Stoychev, A. A. Auer, F. Neese, J. Chem. Theory Comput. 13, 554 (2017)

----- AuxC basis set information -----
Your calculation utilizes the auxiliary basis: aug-cc-pVTZ/C 
  H-He, B-F, Al-Ar, Ga-Kr : Obtained from the EMSL Basis Set Exchange (bse.pnl.gov) Feb. 2017
                            F. Weigend, A. Kohn, C. Hattig, J. Chem. Phys. 116, 3175 (2002)
                   Be, Mg : Obtained from the TURBOMOLE 7.0 basis set library
                            C. Haettig, Phys. Chem. Chem. Phys. 7, 59 (2005)
                       Ne : Obtained from the EMSL Basis Set Exchange (bse.pnl.gov) Feb. 2017
                            C. Haettig, Phys. Chem. Chem. Phys. 7, 59 (2005)
                            F. Weigend, A. Kohn, C. Hattig, J. Chem. Phys. 116, 3175 (2002)
                    Sc-Zn : Obtained from the EMSL Basis Set Exchange (bse.pnl.gov) Feb. 2017
                            J. G. Hill, J. A. Platts, J. Chem. Phys. 128, 044104 (2008)

----- AuxJK basis set information -----
Your calculation utilizes the AutoAux generation procedure.
  G. L. Stoychev, A. A. Auer, F. Neese, J. Chem. Theory Comput. 13, 554 (2017)

================================================================================
                                        WARNINGS
                       Please study these warnings very carefully!
================================================================================


WARNING: your system is open-shell and RHF/RKS was chosen
  ===> : WILL SWITCH to UHF/UKS


WARNING: MDCI localization with Augmented Hessian Foster-Boys
  ===> : Switching off randomization!

WARNING: Post HF methods need fully converged wavefunctions
  ===> : Setting SCFConvForced true
         You can overwrite this default with %scf ConvForced false 


INFO   : the flag for use of LIBINT has been found!

================================================================================
                                       INPUT FILE
================================================================================
NAME = simple-grid-190-230-b3lyp_d3bj-631gd-gas-singlepoint-DLPNO_CCSD_T1-NormalPNO-augtz-gas.inp
|  1> ! aug-cc-pVTZ aug-cc-pVTZ/C DLPNO-CCSD(T1) TightSCF NormalPNO UNO MiniPrint AutoAux
|  2> %pal nproc 10 end
|  3> %maxcore 20000
|  4> %mdci
|  5>      density none
|  6> end
|  7> 
|  8> * xyz 0 6
|  9>  O     -0.32408300     -0.20011500     -0.59591000
| 10>  C     -1.33114500     -1.09430800     -0.48419300
| 11>  C     -2.90234600     -0.10770800     -0.07438500
| 12>  C     -2.18200700      1.10015200     -0.21193900
| 13>  C     -2.04072900      1.77583100     -1.52304800
| 14> Fe      1.40522100      0.04653400      0.03345200
| 15> Cl      1.84371700      2.07549200     -0.74798200
| 16>  C     -1.58155700      1.78679000      0.95640900
| 17> Cl      2.61648200     -1.61754000     -0.74019100
| 18> Cl      1.29688300      0.03866500      2.25633900
| 19>  H     -3.53298400     -0.33780200     -0.93175300
| 20>  H     -2.38500200      2.38038100      1.42287300
| 21>  H     -1.21409400      1.09191000      1.71384500
| 22>  H     -0.77433000      2.46042400      0.66307000
| 23>  H     -2.57155500      2.73791200     -1.45104400
| 24>  H     -0.98609100      2.00682700     -1.70936200
| 25>  H     -2.46471400      1.20593800     -2.35074200
| 26>  C     -3.53381800     -0.48804600      1.25208900
| 27>  H     -4.40319400      0.15091200      1.44926500
| 28>  H     -3.88818200     -1.52134900      1.22579700
| 29>  H     -2.84795100     -0.38868600      2.09556100
| 30>  C     -1.15564800     -2.08757700      0.64508700
| 31>  H     -2.00114400     -2.77192300      0.74130700
| 32>  H     -0.26302000     -2.67458600      0.38994100
| 33>  H     -0.95264800     -1.59518700      1.59692100
| 34>  C     -1.66781900     -1.73456900     -1.81925000
| 35>  H     -0.78989300     -2.32168900     -2.11589900
| 36>  H     -2.53523600     -2.39764200     -1.75390700
| 37>  H     -1.83299700     -0.98029400     -2.59178500
| 38> *
| 39> 
| 40> 
| 41>                          ****END OF INPUT****
================================================================================

                       ****************************
                       * Single Point Calculation *
                       ****************************

---------------------------------
CARTESIAN COORDINATES (ANGSTROEM)
---------------------------------
  O     -0.324083   -0.200115   -0.595910
  C     -1.331145   -1.094308   -0.484193
  C     -2.902346   -0.107708   -0.074385
  C     -2.182007    1.100152   -0.211939
  C     -2.040729    1.775831   -1.523048
  Fe     1.405221    0.046534    0.033452
  Cl     1.843717    2.075492   -0.747982
  C     -1.581557    1.786790    0.956409
  Cl     2.616482   -1.617540   -0.740191
  Cl     1.296883    0.038665    2.256339
  H     -3.532984   -0.337802   -0.931753
  H     -2.385002    2.380381    1.422873
  H     -1.214094    1.091910    1.713845
  H     -0.774330    2.460424    0.663070
  H     -2.571555    2.737912   -1.451044
  H     -0.986091    2.006827   -1.709362
  H     -2.464714    1.205938   -2.350742
  C     -3.533818   -0.488046    1.252089
  H     -4.403194    0.150912    1.449265
  H     -3.888182   -1.521349    1.225797
  H     -2.847951   -0.388686    2.095561
  C     -1.155648   -2.087577    0.645087
  H     -2.001144   -2.771923    0.741307
  H     -0.263020   -2.674586    0.389941
  H     -0.952648   -1.595187    1.596921
  C     -1.667819   -1.734569   -1.819250
  H     -0.789893   -2.321689   -2.115899
  H     -2.535236   -2.397642   -1.753907
  H     -1.832997   -0.980294   -2.591785

----------------------------
CARTESIAN COORDINATES (A.U.)
----------------------------
  NO LB      ZA    FRAG     MASS         X           Y           Z
   0 O     8.0000    0    15.999   -0.612428   -0.378163   -1.126107
   1 C     6.0000    0    12.011   -2.515499   -2.067942   -0.914992
   2 C     6.0000    0    12.011   -5.484639   -0.203539   -0.140567
   3 C     6.0000    0    12.011   -4.123396    2.078986   -0.400507
   4 C     6.0000    0    12.011   -3.856419    3.355834   -2.878144
   5 Fe   26.0000    0    55.850    2.655483    0.087937    0.063215
   6 Cl   17.0000    0    35.453    3.484120    3.922111   -1.413481
   7 C     6.0000    0    12.011   -2.988710    3.376544    1.807351
   8 Cl   17.0000    0    35.453    4.944434   -3.056708   -1.398758
   9 Cl   17.0000    0    35.453    2.450754    0.073066    4.263863
  10 H     1.0000    0     1.008   -6.676372   -0.638353   -1.760758
  11 H     1.0000    0     1.008   -4.507001    4.498268    2.688840
  12 H     1.0000    0     1.008   -2.294305    2.063411    3.238698
  13 H     1.0000    0     1.008   -1.463272    4.649528    1.253021
  14 H     1.0000    0     1.008   -4.859535    5.173904   -2.742076
  15 H     1.0000    0     1.008   -1.863442    3.792353   -3.230226
  16 H     1.0000    0     1.008   -4.657634    2.278893   -4.442259
  17 C     6.0000    0    12.011   -6.677948   -0.922273    2.366105
  18 H     1.0000    0     1.008   -8.320831    0.285182    2.738714
  19 H     1.0000    0     1.008   -7.347599   -2.874933    2.316421
  20 H     1.0000    0     1.008   -5.381847   -0.734510    3.960036
  21 C     6.0000    0    12.011   -2.183858   -3.944949    1.219038
  22 H     1.0000    0     1.008   -3.781614   -5.238175    1.400867
  23 H     1.0000    0     1.008   -0.497036   -5.054235    0.736882
  24 H     1.0000    0     1.008   -1.800244   -3.014467    3.017743
  25 C     6.0000    0    12.011   -3.151721   -3.277860   -3.437884
  26 H     1.0000    0     1.008   -1.492681   -4.387356   -3.998470
  27 H     1.0000    0     1.008   -4.790902   -4.530887   -3.314404
  28 H     1.0000    0     1.008   -3.463862   -1.852487   -4.897764



           ************************************************************
           *        Program running with 10 parallel MPI-processes    *
           *              working on a common directory               *
           ************************************************************


           ************************************************************
           *        Program running with 10 parallel MPI-processes    *
           *              working on a common directory               *
           ************************************************************

Diagonalization of the overlap matrix:
Smallest eigenvalue                        ... 6.473e-07
Time for diagonalization                   ...    0.401 sec
Threshold for overlap eigenvalues          ... 1.000e-08
Number of eigenvalues below threshold      ... 0
Time for construction of square roots      ...    0.322 sec
Total time needed                          ...    0.729 sec

-------------------
DFT GRID GENERATION
-------------------

General Integration Accuracy     IntAcc      ...  4.340
Radial Grid Type                 RadialGrid  ... Gauss-Chebyshev
Angular Grid (max. acc.)         AngularGrid ... Lebedev-110
Angular grid pruning method      GridPruning ... 3 (G Style)
Weight generation scheme         WeightScheme... Becke
Basis function cutoff            BFCut       ...    1.0000e-11
Integration weight cutoff        WCut        ...    1.0000e-14
Grids for H and He will be reduced by one unit

# of grid points (after initial pruning)     ...  36112 (   0.0 sec)
# of grid points (after weights+screening)   ...  32296 (   0.1 sec)
nearest neighbour list constructed           ...    0.0 sec
Grid point re-assignment to atoms done       ...    0.0 sec
Grid point division into batches done        ...    0.0 sec
Reduced shell lists constructed in    0.3 sec

Total number of grid points                  ...    32296
Total number of batches                      ...      519
Average number of points per batch           ...       62
Average number of grid points per atom       ...     1114
Average number of shells per batch           ...   294.32 (85.81%)
Average number of basis functions per batch  ...   876.40 (85.50%)
Average number of large shells per batch     ...   243.58 (82.76%)
Average number of large basis fcns per batch ...   724.19 (82.63%)
Maximum spatial batch extension              ...   2.64,  3.01,  4.66 au
Average spatial batch extension              ...   0.17,  0.18,  0.17 au

Time for grid setup =    0.410 sec

Loading Hartree-Fock densities                     ... done
Calculating cut-offs                               ... done
Setting up the integral package                    ... done
Initializing the effective Hamiltonian             ... done
Starting the Coulomb interaction                   ... done (   1.1 sec)
Reading the grid                                   ... done
Mapping shells                                     ... done
Starting the XC term evaluation                    ... done (   0.8 sec)
Transforming the Hamiltonian                       ... done (   0.2 sec)
Diagonalizing the Hamiltonian                      ... done (   0.3 sec)
Back transforming the eigenvectors                 ... done (   0.1 sec)
Now organizing SCF variables                       ... done
--------------
SCF ITERATIONS
--------------
ITER       Energy         Delta-E        Max-DP      RMS-DP      [F,P]     Damp
               ***  Starting incremental Fock matrix formation  ***
  0  -3027.5666275548   0.000000000000 0.31479553  0.00128409  0.2886478 0.7000
  1  -3027.8159734396  -0.249345884798 0.22241205  0.00098183  0.1688976 0.7000
                               ***Turning on DIIS***
  2  -3027.9834028685  -0.167429428860 0.15293833  0.00071338  0.1094262 0.7000
  3  -3029.6831452710  -1.699742402532 0.32582633  0.00175605  0.0823069 0.0000
  4  -3028.2918982807   1.391246990329 0.04723138  0.00023355  0.0189615 0.0000
  5  -3028.4131365804  -0.121238299750 0.03991487  0.00017327  0.0117718 0.0000
  6  -3028.4380746625  -0.024938082083 0.02047749  0.00006849  0.0054195 0.0000
  7  -3028.4518066753  -0.013732012830 0.00915848  0.00003164  0.0032915 0.0000
  8  -3028.4493223858   0.002484289588 0.00602112  0.00001830  0.0013521 0.0000
  9  -3028.4393685429   0.009953842856 0.00236546  0.00001063  0.0007056 0.0000
 10  -3028.4288654303   0.010503112625 0.00096139  0.00000342  0.0004164 0.0000
 11  -3028.4349537862  -0.006088355919 0.00036703  0.00000194  0.0000847 0.0000
 12  -3028.4321617324   0.002792053760 0.00075435  0.00000166  0.0000325 0.0000
 13  -3028.4322148146  -0.000053082204 0.00150073  0.00000276  0.0000131 0.0000
 14  -3028.4322602338  -0.000045419213 0.00144701  0.00000293  0.0000066 0.0000
 15  -3028.4321949945   0.000065239387 0.00141481  0.00000266  0.0000033 0.0000
 16  -3028.4322228444  -0.000027849970 0.00169497  0.00000328  0.0000024 0.0000
 17  -3028.4322408943  -0.000018049863 0.00127011  0.00000245  0.0000013 0.0000
                            ***DIIS convergence achieved***

               *****************************************************
               *                     SUCCESS                       *
               *           SCF CONVERGED AFTER  18 CYCLES          *
               *****************************************************

Total Energy       :        -3028.43222121 Eh          -82407.83027 eV
  Last Energy change         ...    1.9688e-05  Tolerance :   1.0000e-08
  Last MAX-Density change    ...    2.2047e-03  Tolerance :   1.0000e-07
             **** THE GBW FILE WAS UPDATED (simple-grid-190-230-b3lyp_d3bj-631gd-gas-singlepoint-DLPNO_CCSD_T1-NormalPNO-augtz-gas.gbw) ****
             **** DENSITY FILE WAS UPDATED (simple-grid-190-230-b3lyp_d3bj-631gd-gas-singlepoint-DLPNO_CCSD_T1-NormalPNO-augtz-gas.scfp.tmp) ****
             **** ENERGY FILE WAS UPDATED (simple-grid-190-230-b3lyp_d3bj-631gd-gas-singlepoint-DLPNO_CCSD_T1-NormalPNO-augtz-gas.en.tmp) ****
----------------------
UHF SPIN CONTAMINATION
----------------------

Expectation value of <S**2>     :     8.764386
Ideal value S*(S+1) for S=2.5   :     8.750000
Deviation                       :     0.014386

----------------
ORBITAL ENERGIES
----------------
                 SPIN UP ORBITALS
  NO   OCC          E(Eh)            E(eV) 
   0   1.0000    -261.548398     -7117.0937 
   1   1.0000    -104.775117     -2851.0759 
   2   1.0000    -104.774891     -2851.0697 
   3   1.0000    -104.771755     -2850.9844 
   4   1.0000     -32.216286      -876.6497 
   5   1.0000     -27.692144      -753.5416 
   6   1.0000     -27.692077      -753.5397 
   7   1.0000     -27.691744      -753.5307 
   8   1.0000     -20.547919      -559.1373 
   9   1.0000     -11.381664      -309.7108 
  10   1.0000     -11.375379      -309.5398 
  11   1.0000     -11.282940      -307.0244 
  12   1.0000     -11.276156      -306.8398 
  13   1.0000     -11.270608      -306.6888 
  14   1.0000     -11.263003      -306.4819 
  15   1.0000     -11.250192      -306.1333 
  16   1.0000     -11.244601      -305.9812 
  17   1.0000     -10.501711      -285.7661 
  18   1.0000     -10.501378      -285.7570 
  19   1.0000     -10.498285      -285.6729 
  20   1.0000      -7.968605      -216.8368 
  21   1.0000      -7.968211      -216.8261 
  22   1.0000      -7.967743      -216.8133 
  23   1.0000      -7.967700      -216.8121 
  24   1.0000      -7.967463      -216.8057 
  25   1.0000      -7.967366      -216.8031 
  26   1.0000      -7.965104      -216.7415 
  27   1.0000      -7.964401      -216.7224 
  28   1.0000      -7.964307      -216.7198 
  29   1.0000      -4.571784      -124.4046 
  30   1.0000      -3.184399       -86.6519 
  31   1.0000      -3.183925       -86.6390 
  32   1.0000      -3.183361       -86.6237 
  33   1.0000      -1.384129       -37.6641 
  34   1.0000      -1.182060       -32.1655 
  35   1.0000      -1.086062       -29.5532 
  36   1.0000      -1.046460       -28.4756 
  37   1.0000      -1.041789       -28.3485 
  38   1.0000      -1.040994       -28.3269 
  39   1.0000      -1.038557       -28.2606 
  40   1.0000      -1.008110       -27.4321 
  41   1.0000      -0.978649       -26.6304 
  42   1.0000      -0.935133       -25.4463 
  43   1.0000      -0.912857       -24.8401 
  44   1.0000      -0.901453       -24.5298 
  45   1.0000      -0.901366       -24.5274 
  46   1.0000      -0.892849       -24.2957 
  47   1.0000      -0.892613       -24.2892 
  48   1.0000      -0.785911       -21.3857 
  49   1.0000      -0.765490       -20.8301 
  50   1.0000      -0.700470       -19.0608 
  51   1.0000      -0.693331       -18.8665 
  52   1.0000      -0.674568       -18.3559 
  53   1.0000      -0.648181       -17.6379 
  54   1.0000      -0.642716       -17.4892 
  55   1.0000      -0.627723       -17.0812 
  56   1.0000      -0.601072       -16.3560 
  57   1.0000      -0.595049       -16.1921 
  58   1.0000      -0.591578       -16.0977 
  59   1.0000      -0.584768       -15.9124 
  60   1.0000      -0.576293       -15.6817 
  61   1.0000      -0.561810       -15.2876 
  62   1.0000      -0.557767       -15.1776 
  63   1.0000      -0.545594       -14.8464 
  64   1.0000      -0.535681       -14.5766 
  65   1.0000      -0.531431       -14.4610 
  66   1.0000      -0.508612       -13.8400 
  67   1.0000      -0.474889       -12.9224 
  68   1.0000      -0.461875       -12.5683 
  69   1.0000      -0.449483       -12.2311 
  70   1.0000      -0.427655       -11.6371 
  71   1.0000      -0.425361       -11.5747 
  72   1.0000      -0.422315       -11.4918 
  73   1.0000      -0.414978       -11.2921 
  74   1.0000      -0.413506       -11.2521 
  75   1.0000      -0.411340       -11.1931 
  76   1.0000      -0.395187       -10.7536 
  77   0.0000       0.007655         0.2083 
  78   0.0000       0.018844         0.5128 
  79   0.0000       0.021366         0.5814 
  80   0.0000       0.028047         0.7632 
  81   0.0000       0.030344         0.8257 
  82   0.0000       0.037633         1.0240 
  83   0.0000       0.040401         1.0994 
  84   0.0000       0.043887         1.1942 
  85   0.0000       0.044438         1.2092 
  86   0.0000       0.046927         1.2769 
  87   0.0000       0.056313         1.5324 
  88   0.0000       0.059989         1.6324 
  89   0.0000       0.061150         1.6640 
  90   0.0000       0.064712         1.7609 
  91   0.0000       0.067309         1.8316 
  92   0.0000       0.071353         1.9416 
  93   0.0000       0.073042         1.9876 
  94   0.0000       0.079311         2.1582 
  95   0.0000       0.088817         2.4168 
  96   0.0000       0.089582         2.4377 
  97   0.0000       0.091307         2.4846 
  98   0.0000       0.093672         2.5489 
  99   0.0000       0.099681         2.7125 
 100   0.0000       0.102038         2.7766 
 101   0.0000       0.110202         2.9987 
 102   0.0000       0.114841         3.1250 
 103   0.0000       0.118913         3.2358 
 104   0.0000       0.123565         3.3624 
 105   0.0000       0.124088         3.3766 
 106   0.0000       0.127982         3.4826 
 107   0.0000       0.129190         3.5154 
 108   0.0000       0.131933         3.5901 
 109   0.0000       0.133164         3.6236 
 110   0.0000       0.136758         3.7214 
 111   0.0000       0.138510         3.7691 
 112   0.0000       0.145322         3.9544 
 113   0.0000       0.149746         4.0748 
 114   0.0000       0.151544         4.1237 
 115   0.0000       0.153823         4.1857 
 116   0.0000       0.156764         4.2658 
 117   0.0000       0.159289         4.3345 
 118   0.0000       0.164113         4.4657 
 119   0.0000       0.166669         4.5353 
 120   0.0000       0.169676         4.6171 
 121   0.0000       0.174225         4.7409 
 122   0.0000       0.175939         4.7876 
 123   0.0000       0.177128         4.8199 
 124   0.0000       0.182866         4.9760 
 125   0.0000       0.188579         5.1315 
 126   0.0000       0.191521         5.2115 
 127   0.0000       0.192838         5.2474 
 128   0.0000       0.198204         5.3934 
 129   0.0000       0.199496         5.4286 
 130   0.0000       0.202352         5.5063 
 131   0.0000       0.206737         5.6256 
 132   0.0000       0.208491         5.6733 
 133   0.0000       0.210699         5.7334 
 134   0.0000       0.215587         5.8664 
 135   0.0000       0.217787         5.9263 
 136   0.0000       0.220688         6.0052 
 137   0.0000       0.224072         6.0973 
 138   0.0000       0.230016         6.2591 
 139   0.0000       0.232596         6.3293 
 140   0.0000       0.236479         6.4349 
 141   0.0000       0.239099         6.5062 
 142   0.0000       0.241420         6.5694 
 143   0.0000       0.243071         6.6143 
 144   0.0000       0.246028         6.6948 
 145   0.0000       0.252419         6.8687 
 146   0.0000       0.253221         6.8905 
 147   0.0000       0.254424         6.9232 
 148   0.0000       0.258404         7.0315 
 149   0.0000       0.263039         7.1577 
 150   0.0000       0.265154         7.2152 
 151   0.0000       0.274147         7.4599 
 152   0.0000       0.278793         7.5863 
 153   0.0000       0.281671         7.6647 
 154   0.0000       0.283135         7.7045 
 155   0.0000       0.289545         7.8789 
 156   0.0000       0.292022         7.9463 
 157   0.0000       0.299527         8.1505 
 158   0.0000       0.302919         8.2428 
 159   0.0000       0.306338         8.3359 
 160   0.0000       0.307282         8.3616 
 161   0.0000       0.308572         8.3967 
 162   0.0000       0.317610         8.6426 
 163   0.0000       0.318473         8.6661 
 164   0.0000       0.324169         8.8211 
 165   0.0000       0.328478         8.9383 
 166   0.0000       0.332660         9.0521 
 167   0.0000       0.336596         9.1592 
 168   0.0000       0.341402         9.2900 
 169   0.0000       0.345875         9.4117 
 170   0.0000       0.349013         9.4971 
 171   0.0000       0.352883         9.6024 
 172   0.0000       0.358385         9.7522 
 173   0.0000       0.362004         9.8506 
 174   0.0000       0.363780         9.8990 
 175   0.0000       0.364467         9.9176 
 176   0.0000       0.369301        10.0492 
 177   0.0000       0.370865        10.0917 
 178   0.0000       0.375264        10.2115 
 179   0.0000       0.378613        10.3026 
 180   0.0000       0.383596        10.4382 
 181   0.0000       0.384358        10.4589 
 182   0.0000       0.387114        10.5339 
 183   0.0000       0.390481        10.6255 
 184   0.0000       0.391319        10.6483 
 185   0.0000       0.395058        10.7501 
 186   0.0000       0.396844        10.7987 
 187   0.0000       0.401210        10.9175 
 188   0.0000       0.405956        11.0466 
 189   0.0000       0.408786        11.1236 
 190   0.0000       0.413677        11.2567 
 191   0.0000       0.414490        11.2788 
 192   0.0000       0.417953        11.3731 
 193   0.0000       0.424267        11.5449 
 194   0.0000       0.428272        11.6539 
 195   0.0000       0.434189        11.8149 
 196   0.0000       0.435288        11.8448 
 197   0.0000       0.443816        12.0769 
 198   0.0000       0.446741        12.1564 
 199   0.0000       0.449454        12.2303 
 200   0.0000       0.451643        12.2898 
 201   0.0000       0.457536        12.4502 
 202   0.0000       0.460369        12.5273 
 203   0.0000       0.461624        12.5614 
 204   0.0000       0.464397        12.6369 
 205   0.0000       0.467979        12.7343 
 206   0.0000       0.469901        12.7866 
 207   0.0000       0.473745        12.8912 
 208   0.0000       0.475858        12.9488 
 209   0.0000       0.480009        13.0617 
 210   0.0000       0.484830        13.1929 
 211   0.0000       0.486201        13.2302 
 212   0.0000       0.490038        13.3346 
 213   0.0000       0.494976        13.4690 
 214   0.0000       0.497917        13.5490 
 215   0.0000       0.500773        13.6267 
 216   0.0000       0.503194        13.6926 
 217   0.0000       0.504464        13.7272 
 218   0.0000       0.509968        13.8769 
 219   0.0000       0.510432        13.8896 
 220   0.0000       0.513364        13.9693 
 221   0.0000       0.516295        14.0491 
 222   0.0000       0.518627        14.1125 
 223   0.0000       0.524405        14.2698 
 224   0.0000       0.528329        14.3766 
 225   0.0000       0.534511        14.5448 
 226   0.0000       0.537309        14.6209 
 227   0.0000       0.539765        14.6878 
 228   0.0000       0.543714        14.7952 
 229   0.0000       0.545453        14.8425 
 230   0.0000       0.550346        14.9757 
 231   0.0000       0.552325        15.0295 
 232   0.0000       0.559698        15.2302 
 233   0.0000       0.565534        15.3890 
 234   0.0000       0.569196        15.4886 
 235   0.0000       0.570901        15.5350 
 236   0.0000       0.575484        15.6597 
 237   0.0000       0.579678        15.7738 
 238   0.0000       0.580696        15.8015 
 239   0.0000       0.583705        15.8834 
 240   0.0000       0.587662        15.9911 
 241   0.0000       0.595050        16.1921 
 242   0.0000       0.598216        16.2783 
 243   0.0000       0.599439        16.3116 
 244   0.0000       0.603302        16.4167 
 245   0.0000       0.607672        16.5356 
 246   0.0000       0.611252        16.6330 
 247   0.0000       0.615823        16.7574 
 248   0.0000       0.619038        16.8449 
 249   0.0000       0.623849        16.9758 
 250   0.0000       0.627439        17.0735 
 251   0.0000       0.630648        17.1608 
 252   0.0000       0.632040        17.1987 
 253   0.0000       0.634741        17.2722 
 254   0.0000       0.637773        17.3547 
 255   0.0000       0.645723        17.5710 
 256   0.0000       0.648864        17.6565 
 257   0.0000       0.651452        17.7269 
 258   0.0000       0.657915        17.9028 
 259   0.0000       0.659393        17.9430 
 260   0.0000       0.665720        18.1152 
 261   0.0000       0.671732        18.2788 
 262   0.0000       0.673181        18.3182 
 263   0.0000       0.673684        18.3319 
 264   0.0000       0.682136        18.5619 
 265   0.0000       0.685656        18.6577 
 266   0.0000       0.692799        18.8520 
 267   0.0000       0.694483        18.8979 
 268   0.0000       0.696262        18.9463 
 269   0.0000       0.700939        19.0735 
 270   0.0000       0.709957        19.3189 
 271   0.0000       0.711076        19.3494 
 272   0.0000       0.720102        19.5950 
 273   0.0000       0.722429        19.6583 
 274   0.0000       0.725373        19.7384 
 275   0.0000       0.728139        19.8137 
 276   0.0000       0.731174        19.8962 
 277   0.0000       0.741362        20.1735 
 278   0.0000       0.747956        20.3529 
 279   0.0000       0.751347        20.4452 
 280   0.0000       0.757961        20.6252 
 281   0.0000       0.761704        20.7270 
 282   0.0000       0.763968        20.7886 
 283   0.0000       0.775462        21.1014 
 284   0.0000       0.778833        21.1931 
 285   0.0000       0.782516        21.2933 
 286   0.0000       0.788247        21.4493 
 287   0.0000       0.790512        21.5109 
 288   0.0000       0.799156        21.7461 
 289   0.0000       0.807167        21.9641 
 290   0.0000       0.808336        21.9959 
 291   0.0000       0.813225        22.1290 
 292   0.0000       0.816552        22.2195 
 293   0.0000       0.825807        22.4714 
 294   0.0000       0.829204        22.5638 
 295   0.0000       0.833479        22.6801 
 296   0.0000       0.837897        22.8003 
 297   0.0000       0.844489        22.9797 
 298   0.0000       0.855063        23.2674 
 299   0.0000       0.858874        23.3712 
 300   0.0000       0.860693        23.4207 
 301   0.0000       0.871032        23.7020 
 302   0.0000       0.874788        23.8042 
 303   0.0000       0.879370        23.9289 
 304   0.0000       0.883959        24.0538 
 305   0.0000       0.888398        24.1745 
 306   0.0000       0.891052        24.2468 
 307   0.0000       0.895304        24.3625 
 308   0.0000       0.900068        24.4921 
 309   0.0000       0.905274        24.6337 
 310   0.0000       0.907838        24.7035 
 311   0.0000       0.912346        24.8262 
 312   0.0000       0.920488        25.0478 
 313   0.0000       0.924030        25.1441 
 314   0.0000       0.926691        25.2165 
 315   0.0000       0.929541        25.2941 
 316   0.0000       0.933584        25.4041 
 317   0.0000       0.938425        25.5358 
 318   0.0000       0.942196        25.6385 
 319   0.0000       0.947957        25.7952 
 320   0.0000       0.950561        25.8661 
 321   0.0000       0.954722        25.9793 
 322   0.0000       0.956307        26.0224 
 323   0.0000       0.961613        26.1668 
 324   0.0000       0.965931        26.2843 
 325   0.0000       0.968623        26.3576 
 326   0.0000       0.972188        26.4546 
 327   0.0000       0.973152        26.4808 
 328   0.0000       0.977342        26.5948 
 329   0.0000       0.978723        26.6324 
 330   0.0000       0.983570        26.7643 
 331   0.0000       0.984543        26.7908 
 332   0.0000       0.988908        26.9096 
 333   0.0000       0.993402        27.0318 
 334   0.0000       0.996841        27.1254 
 335   0.0000       1.002120        27.2691 
 336   0.0000       1.007812        27.4239 
 337   0.0000       1.012331        27.5469 
 338   0.0000       1.013991        27.5921 
 339   0.0000       1.016987        27.6736 
 340   0.0000       1.023640        27.8547 
 341   0.0000       1.026531        27.9333 
 342   0.0000       1.030161        28.0321 
 343   0.0000       1.033543        28.1241 
 344   0.0000       1.034627        28.1536 
 345   0.0000       1.035821        28.1861 
 346   0.0000       1.041267        28.3343 
 347   0.0000       1.048729        28.5374 
 348   0.0000       1.050033        28.5728 
 349   0.0000       1.053738        28.6737 
 350   0.0000       1.058234        28.7960 
 351   0.0000       1.060036        28.8450 
 352   0.0000       1.061156        28.8755 
 353   0.0000       1.066643        29.0248 
 354   0.0000       1.070423        29.1277 
 355   0.0000       1.073897        29.2222 
 356   0.0000       1.077145        29.3106 
 357   0.0000       1.087614        29.5955 
 358   0.0000       1.092483        29.7280 
 359   0.0000       1.092936        29.7403 
 360   0.0000       1.099421        29.9168 
 361   0.0000       1.102630        30.0041 
 362   0.0000       1.106385        30.1063 
 363   0.0000       1.109358        30.1872 
 364   0.0000       1.115145        30.3446 
 365   0.0000       1.123277        30.5659 
 366   0.0000       1.126722        30.6597 
 367   0.0000       1.129436        30.7335 
 368   0.0000       1.133881        30.8545 
 369   0.0000       1.134997        30.8848 
 370   0.0000       1.139566        31.0092 
 371   0.0000       1.144894        31.1542 
 372   0.0000       1.149381        31.2762 
 373   0.0000       1.158172        31.5155 
 374   0.0000       1.159871        31.5617 
 375   0.0000       1.166902        31.7530 
 376   0.0000       1.169157        31.8144 
 377   0.0000       1.170025        31.8380 
 378   0.0000       1.173425        31.9305 
 379   0.0000       1.180284        32.1172 
 380   0.0000       1.186077        32.2748 
 381   0.0000       1.189501        32.3680 
 382   0.0000       1.193806        32.4851 
 383   0.0000       1.202264        32.7153 
 384   0.0000       1.204147        32.7665 
 385   0.0000       1.207949        32.8700 
 386   0.0000       1.212274        32.9876 
 387   0.0000       1.217693        33.1351 
 388   0.0000       1.221533        33.2396 
 389   0.0000       1.222040        33.2534 
 390   0.0000       1.230386        33.4805 
 391   0.0000       1.237493        33.6739 
 392   0.0000       1.243296        33.8318 
 393   0.0000       1.246847        33.9284 
 394   0.0000       1.247268        33.9399 
 395   0.0000       1.251483        34.0546 
 396   0.0000       1.259701        34.2782 
 397   0.0000       1.263130        34.3715 
 398   0.0000       1.265643        34.4399 
 399   0.0000       1.274642        34.6848 
 400   0.0000       1.276944        34.7474 
 401   0.0000       1.282381        34.8954 
 402   0.0000       1.296887        35.2901 
 403   0.0000       1.301181        35.4069 
 404   0.0000       1.305306        35.5192 
 405   0.0000       1.309434        35.6315 
 406   0.0000       1.316574        35.8258 
 407   0.0000       1.319465        35.9045 
 408   0.0000       1.322907        35.9981 
 409   0.0000       1.326493        36.0957 
 410   0.0000       1.332866        36.2691 
 411   0.0000       1.335504        36.3409 
 412   0.0000       1.341514        36.5045 
 413   0.0000       1.345894        36.6236 
 414   0.0000       1.352077        36.7919 
 415   0.0000       1.355985        36.8982 
 416   0.0000       1.365390        37.1542 
 417   0.0000       1.371665        37.3249 
 418   0.0000       1.373565        37.3766 
 419   0.0000       1.387623        37.7592 
 420   0.0000       1.393796        37.9271 
 421   0.0000       1.395254        37.9668 
 422   0.0000       1.400984        38.1227 
 423   0.0000       1.407214        38.2922 
 424   0.0000       1.411443        38.4073 
 425   0.0000       1.416645        38.5489 
 426   0.0000       1.422433        38.7064 
 427   0.0000       1.426665        38.8215 
 428   0.0000       1.433914        39.0188 
 429   0.0000       1.437128        39.1062 
 430   0.0000       1.442121        39.2421 
 431   0.0000       1.448710        39.4214 
 432   0.0000       1.452630        39.5281 
 433   0.0000       1.454728        39.5852 
 434   0.0000       1.462711        39.8024 
 435   0.0000       1.466991        39.9189 
 436   0.0000       1.471713        40.0473 
 437   0.0000       1.474513        40.1235 
 438   0.0000       1.485816        40.4311 
 439   0.0000       1.491215        40.5780 
 440   0.0000       1.495614        40.6977 
 441   0.0000       1.497384        40.7459 
 442   0.0000       1.508846        41.0578 
 443   0.0000       1.514375        41.2082 
 444   0.0000       1.519008        41.3343 
 445   0.0000       1.519660        41.3521 
 446   0.0000       1.524561        41.4854 
 447   0.0000       1.529157        41.6105 
 448   0.0000       1.540036        41.9065 
 449   0.0000       1.543761        42.0079 
 450   0.0000       1.549325        42.1593 
 451   0.0000       1.552799        42.2538 
 452   0.0000       1.557682        42.3867 
 453   0.0000       1.560802        42.4716 
 454   0.0000       1.566192        42.6183 
 455   0.0000       1.571059        42.7507 
 456   0.0000       1.575246        42.8646 
 457   0.0000       1.579949        42.9926 
 458   0.0000       1.581986        43.0480 
 459   0.0000       1.589700        43.2579 
 460   0.0000       1.591067        43.2951 
 461   0.0000       1.597432        43.4683 
 462   0.0000       1.601792        43.5870 
 463   0.0000       1.605200        43.6797 
 464   0.0000       1.613655        43.9098 
 465   0.0000       1.618732        44.0479 
 466   0.0000       1.623601        44.1804 
 467   0.0000       1.632300        44.4171 
 468   0.0000       1.643126        44.7117 
 469   0.0000       1.648656        44.8622 
 470   0.0000       1.651584        44.9419 
 471   0.0000       1.654907        45.0323 
 472   0.0000       1.661525        45.2124 
 473   0.0000       1.669099        45.4185 
 474   0.0000       1.670818        45.4653 
 475   0.0000       1.681846        45.7653 
 476   0.0000       1.685619        45.8680 
 477   0.0000       1.693060        46.0705 
 478   0.0000       1.694251        46.1029 
 479   0.0000       1.701429        46.2982 
 480   0.0000       1.704691        46.3870 
 481   0.0000       1.707013        46.4502 
 482   0.0000       1.711531        46.5731 
 483   0.0000       1.715939        46.6931 
 484   0.0000       1.718789        46.7706 
 485   0.0000       1.730331        47.0847 
 486   0.0000       1.737456        47.2786 
 487   0.0000       1.740243        47.3544 
 488   0.0000       1.746280        47.5187 
 489   0.0000       1.751024        47.6478 
 490   0.0000       1.753276        47.7091 
 491   0.0000       1.756269        47.7905 
 492   0.0000       1.761578        47.9350 
 493   0.0000       1.773388        48.2563 
 494   0.0000       1.777168        48.3592 
 495   0.0000       1.786135        48.6032 
 496   0.0000       1.787087        48.6291 
 497   0.0000       1.791113        48.7387 
 498   0.0000       1.795194        48.8497 
 499   0.0000       1.798288        48.9339 
 500   0.0000       1.801080        49.0099 
 501   0.0000       1.807990        49.1979 
 502   0.0000       1.819468        49.5102 
 503   0.0000       1.825353        49.6704 
 504   0.0000       1.826278        49.6956 
 505   0.0000       1.832805        49.8732 
 506   0.0000       1.836831        49.9827 
 507   0.0000       1.841695        50.1151 
 508   0.0000       1.847038        50.2605 
 509   0.0000       1.853966        50.4490 
 510   0.0000       1.859677        50.6044 
 511   0.0000       1.860284        50.6209 
 512   0.0000       1.867055        50.8051 
 513   0.0000       1.872290        50.9476 
 514   0.0000       1.878483        51.1161 
 515   0.0000       1.879440        51.1421 
 516   0.0000       1.884377        51.2765 
 517   0.0000       1.888962        51.4013 
 518   0.0000       1.898969        51.6736 
 519   0.0000       1.905262        51.8448 
 520   0.0000       1.908960        51.9455 
 521   0.0000       1.916345        52.1464 
 522   0.0000       1.921767        52.2939 
 523   0.0000       1.929694        52.5096 
 524   0.0000       1.933539        52.6143 
 525   0.0000       1.936109        52.6842 
 526   0.0000       1.946889        52.9775 
 527   0.0000       1.948641        53.0252 
 528   0.0000       1.952187        53.1217 
 529   0.0000       1.962369        53.3988 
 530   0.0000       1.969826        53.6017 
 531   0.0000       1.970732        53.6263 
 532   0.0000       1.982334        53.9421 
 533   0.0000       1.989993        54.1505 
 534   0.0000       1.991685        54.1965 
 535   0.0000       1.993375        54.2425 
 536   0.0000       2.004905        54.5562 
 537   0.0000       2.008039        54.6415 
 538   0.0000       2.013330        54.7855 
 539   0.0000       2.024261        55.0829 
 540   0.0000       2.027962        55.1836 
 541   0.0000       2.034071        55.3499 
 542   0.0000       2.039477        55.4970 
 543   0.0000       2.043768        55.6138 
 544   0.0000       2.046924        55.6996 
 545   0.0000       2.066817        56.2410 
 546   0.0000       2.068326        56.2820 
 547   0.0000       2.078548        56.5602 
 548   0.0000       2.085663        56.7538 
 549   0.0000       2.090324        56.8806 
 550   0.0000       2.097784        57.0836 
 551   0.0000       2.103129        57.2291 
 552   0.0000       2.104858        57.2761 
 553   0.0000       2.108188        57.3667 
 554   0.0000       2.113251        57.5045 
 555   0.0000       2.125299        57.8323 
 556   0.0000       2.133320        58.0506 
 557   0.0000       2.142061        58.2884 
 558   0.0000       2.152587        58.5749 
 559   0.0000       2.160232        58.7829 
 560   0.0000       2.170561        59.0640 
 561   0.0000       2.172510        59.1170 
 562   0.0000       2.182270        59.3826 
 563   0.0000       2.189869        59.5894 
 564   0.0000       2.194002        59.7018 
 565   0.0000       2.203010        59.9469 
 566   0.0000       2.211955        60.1903 
 567   0.0000       2.215716        60.2927 
 568   0.0000       2.223963        60.5171 
 569   0.0000       2.227378        60.6100 
 570   0.0000       2.235154        60.8216 
 571   0.0000       2.245171        61.0942 
 572   0.0000       2.250473        61.2385 
 573   0.0000       2.254907        61.3591 
 574   0.0000       2.270964        61.7961 
 575   0.0000       2.275446        61.9180 
 576   0.0000       2.285721        62.1976 
 577   0.0000       2.291192        62.3465 
 578   0.0000       2.294321        62.4316 
 579   0.0000       2.297781        62.5258 
 580   0.0000       2.301117        62.6166 
 581   0.0000       2.309612        62.8477 
 582   0.0000       2.319673        63.1215 
 583   0.0000       2.325889        63.2906 
 584   0.0000       2.335067        63.5404 
 585   0.0000       2.340262        63.6818 
 586   0.0000       2.349995        63.9466 
 587   0.0000       2.355239        64.0893 
 588   0.0000       2.368722        64.4562 
 589   0.0000       2.372153        64.5496 
 590   0.0000       2.383992        64.8717 
 591   0.0000       2.387375        64.9638 
 592   0.0000       2.395049        65.1726 
 593   0.0000       2.399408        65.2912 
 594   0.0000       2.408438        65.5369 
 595   0.0000       2.418757        65.8177 
 596   0.0000       2.422379        65.9163 
 597   0.0000       2.429655        66.1143 
 598   0.0000       2.437156        66.3184 
 599   0.0000       2.442799        66.4719 
 600   0.0000       2.451711        66.7144 
 601   0.0000       2.464148        67.0529 
 602   0.0000       2.469116        67.1880 
 603   0.0000       2.480146        67.4882 
 604   0.0000       2.483220        67.5718 
 605   0.0000       2.494497        67.8787 
 606   0.0000       2.502271        68.0902 
 607   0.0000       2.511582        68.3436 
 608   0.0000       2.514409        68.4205 
 609   0.0000       2.544885        69.2498 
 610   0.0000       2.553527        69.4850 
 611   0.0000       2.559867        69.6575 
 612   0.0000       2.561441        69.7004 
 613   0.0000       2.586464        70.3813 
 614   0.0000       2.598682        70.7137 
 615   0.0000       2.623743        71.3957 
 616   0.0000       2.630511        71.5799 
 617   0.0000       2.636970        71.7556 
 618   0.0000       2.652064        72.1663 
 619   0.0000       2.662312        72.4452 
 620   0.0000       2.666111        72.5486 
 621   0.0000       2.681935        72.9792 
 622   0.0000       2.688152        73.1483 
 623   0.0000       2.700952        73.4967 
 624   0.0000       2.704543        73.5944 
 625   0.0000       2.707068        73.6631 
 626   0.0000       2.721738        74.0623 
 627   0.0000       2.730521        74.3013 
 628   0.0000       2.735044        74.4243 
 629   0.0000       2.739225        74.5381 
 630   0.0000       2.753699        74.9320 
 631   0.0000       2.760591        75.1195 
 632   0.0000       2.776258        75.5458 
 633   0.0000       2.781162        75.6793 
 634   0.0000       2.785605        75.8002 
 635   0.0000       2.799828        76.1872 
 636   0.0000       2.803017        76.2740 
 637   0.0000       2.836201        77.1770 
 638   0.0000       2.847877        77.4947 
 639   0.0000       2.858622        77.7871 
 640   0.0000       2.864190        77.9386 
 641   0.0000       2.880712        78.3882 
 642   0.0000       2.889598        78.6299 
 643   0.0000       2.907458        79.1159 
 644   0.0000       2.914829        79.3165 
 645   0.0000       2.927102        79.6505 
 646   0.0000       2.945674        80.1559 
 647   0.0000       2.955910        80.4344 
 648   0.0000       2.966785        80.7303 
 649   0.0000       2.970920        80.8428 
 650   0.0000       2.986596        81.2694 
 651   0.0000       3.008471        81.8647 
 652   0.0000       3.024182        82.2922 
 653   0.0000       3.043498        82.8178 
 654   0.0000       3.057527        83.1995 
 655   0.0000       3.062586        83.3372 
 656   0.0000       3.083703        83.9118 
 657   0.0000       3.084854        83.9432 
 658   0.0000       3.106823        84.5410 
 659   0.0000       3.130252        85.1785 
 660   0.0000       3.149672        85.7069 
 661   0.0000       3.162289        86.0503 
 662   0.0000       3.171516        86.3013 
 663   0.0000       3.179850        86.5281 
 664   0.0000       3.183425        86.6254 
 665   0.0000       3.194592        86.9293 
 666   0.0000       3.215673        87.5029 
 667   0.0000       3.219638        87.6108 
 668   0.0000       3.224176        87.7343 
 669   0.0000       3.236246        88.0627 
 670   0.0000       3.246254        88.3351 
 671   0.0000       3.248182        88.3875 
 672   0.0000       3.258561        88.6700 
 673   0.0000       3.276077        89.1466 
 674   0.0000       3.290964        89.5517 
 675   0.0000       3.308906        90.0399 
 676   0.0000       3.309568        90.0579 
 677   0.0000       3.317750        90.2806 
 678   0.0000       3.323622        90.4404 
 679   0.0000       3.333100        90.6983 
 680   0.0000       3.337529        90.8188 
 681   0.0000       3.344444        91.0069 
 682   0.0000       3.361492        91.4708 
 683   0.0000       3.366843        91.6164 
 684   0.0000       3.374254        91.8181 
 685   0.0000       3.382403        92.0399 
 686   0.0000       3.402495        92.5866 
 687   0.0000       3.413882        92.8965 
 688   0.0000       3.416794        92.9757 
 689   0.0000       3.420779        93.0841 
 690   0.0000       3.426865        93.2497 
 691   0.0000       3.441735        93.6544 
 692   0.0000       3.449552        93.8671 
 693   0.0000       3.464157        94.2645 
 694   0.0000       3.481856        94.7461 
 695   0.0000       3.485059        94.8333 
 696   0.0000       3.493389        95.0599 
 697   0.0000       3.503022        95.3221 
 698   0.0000       3.506750        95.4235 
 699   0.0000       3.520819        95.8064 
 700   0.0000       3.524584        95.9088 
 701   0.0000       3.528603        96.0182 
 702   0.0000       3.532472        96.1234 
 703   0.0000       3.540290        96.3362 
 704   0.0000       3.553834        96.7047 
 705   0.0000       3.566285        97.0435 
 706   0.0000       3.582028        97.4719 
 707   0.0000       3.585033        97.5537 
 708   0.0000       3.598265        97.9138 
 709   0.0000       3.606695        98.1432 
 710   0.0000       3.609941        98.2315 
 711   0.0000       3.617985        98.4504 
 712   0.0000       3.621251        98.5393 
 713   0.0000       3.630088        98.7797 
 714   0.0000       3.637633        98.9850 
 715   0.0000       3.648436        99.2790 
 716   0.0000       3.658193        99.5445 
 717   0.0000       3.665030        99.7305 
 718   0.0000       3.669993        99.8656 
 719   0.0000       3.681154       100.1693 
 720   0.0000       3.688788       100.3770 
 721   0.0000       3.699192       100.6601 
 722   0.0000       3.704012       100.7913 
 723   0.0000       3.712931       101.0340 
 724   0.0000       3.719682       101.2177 
 725   0.0000       3.729689       101.4900 
 726   0.0000       3.734819       101.6296 
 727   0.0000       3.739610       101.7600 
 728   0.0000       3.753788       102.1458 
 729   0.0000       3.755237       102.1852 
 730   0.0000       3.765369       102.4609 
 731   0.0000       3.773326       102.6774 
 732   0.0000       3.785896       103.0195 
 733   0.0000       3.790139       103.1349 
 734   0.0000       3.795228       103.2734 
 735   0.0000       3.796917       103.3194 
 736   0.0000       3.808262       103.6281 
 737   0.0000       3.820633       103.9647 
 738   0.0000       3.824134       104.0600 
 739   0.0000       3.837848       104.4332 
 740   0.0000       3.845503       104.6414 
 741   0.0000       3.852714       104.8377 
 742   0.0000       3.863578       105.1333 
 743   0.0000       3.869390       105.2915 
 744   0.0000       3.874719       105.4365 
 745   0.0000       3.878059       105.5273 
 746   0.0000       3.882196       105.6399 
 747   0.0000       3.888200       105.8033 
 748   0.0000       3.891995       105.9066 
 749   0.0000       3.901298       106.1597 
 750   0.0000       3.911301       106.4319 
 751   0.0000       3.917516       106.6010 
 752   0.0000       3.918708       106.6335 
 753   0.0000       3.923443       106.7623 
 754   0.0000       3.933348       107.0318 
 755   0.0000       3.942274       107.2747 
 756   0.0000       3.943176       107.2993 
 757   0.0000       3.947696       107.4223 
 758   0.0000       3.959258       107.7369 
 759   0.0000       3.960556       107.7722 
 760   0.0000       3.969961       108.0281 
 761   0.0000       3.972724       108.1033 
 762   0.0000       3.987573       108.5074 
 763   0.0000       3.998257       108.7981 
 764   0.0000       4.005917       109.0066 
 765   0.0000       4.009624       109.1074 
 766   0.0000       4.022703       109.4633 
 767   0.0000       4.036625       109.8422 
 768   0.0000       4.040083       109.9362 
 769   0.0000       4.045632       110.0872 
 770   0.0000       4.053941       110.3133 
 771   0.0000       4.066700       110.6605 
 772   0.0000       4.074197       110.8645 
 773   0.0000       4.080679       111.0409 
 774   0.0000       4.086865       111.2093 
 775   0.0000       4.089966       111.2936 
 776   0.0000       4.095950       111.4565 
 777   0.0000       4.106410       111.7411 
 778   0.0000       4.119812       112.1058 
 779   0.0000       4.126569       112.2897 
 780   0.0000       4.128690       112.3474 
 781   0.0000       4.133495       112.4781 
 782   0.0000       4.146343       112.8277 
 783   0.0000       4.154619       113.0529 
 784   0.0000       4.166035       113.3636 
 785   0.0000       4.172551       113.5409 
 786   0.0000       4.182299       113.8061 
 787   0.0000       4.189304       113.9968 
 788   0.0000       4.200901       114.3123 
 789   0.0000       4.203358       114.3792 
 790   0.0000       4.210761       114.5806 
 791   0.0000       4.213869       114.6652 
 792   0.0000       4.221875       114.8831 
 793   0.0000       4.234857       115.2363 
 794   0.0000       4.244407       115.4962 
 795   0.0000       4.252612       115.7195 
 796   0.0000       4.262060       115.9765 
 797   0.0000       4.266286       116.0915 
 798   0.0000       4.279094       116.4401 
 799   0.0000       4.284998       116.6007 
 800   0.0000       4.300256       117.0159 
 801   0.0000       4.302460       117.0759 
 802   0.0000       4.317494       117.4850 
 803   0.0000       4.323764       117.6556 
 804   0.0000       4.331474       117.8654 
 805   0.0000       4.340328       118.1063 
 806   0.0000       4.350916       118.3944 
 807   0.0000       4.354818       118.5006 
 808   0.0000       4.362181       118.7010 
 809   0.0000       4.368791       118.8808 
 810   0.0000       4.391012       119.4855 
 811   0.0000       4.397659       119.6664 
 812   0.0000       4.401617       119.7741 
 813   0.0000       4.415279       120.1458 
 814   0.0000       4.435964       120.7087 
 815   0.0000       4.437007       120.7371 
 816   0.0000       4.444772       120.9484 
 817   0.0000       4.449743       121.0837 
 818   0.0000       4.458247       121.3151 
 819   0.0000       4.468566       121.5959 
 820   0.0000       4.469595       121.6239 
 821   0.0000       4.481390       121.9448 
 822   0.0000       4.491999       122.2335 
 823   0.0000       4.507499       122.6553 
 824   0.0000       4.509749       122.7165 
 825   0.0000       4.523261       123.0842 
 826   0.0000       4.527891       123.2102 
 827   0.0000       4.536714       123.4503 
 828   0.0000       4.543569       123.6368 
 829   0.0000       4.565732       124.2399 
 830   0.0000       4.584038       124.7380 
 831   0.0000       4.593873       125.0056 
 832   0.0000       4.608428       125.4017 
 833   0.0000       4.614505       125.5671 
 834   0.0000       4.619391       125.7000 
 835   0.0000       4.629007       125.9617 
 836   0.0000       4.643570       126.3580 
 837   0.0000       4.650613       126.5496 
 838   0.0000       4.657528       126.7378 
 839   0.0000       4.671070       127.1063 
 840   0.0000       4.680417       127.3606 
 841   0.0000       4.701312       127.9292 
 842   0.0000       4.709302       128.1466 
 843   0.0000       4.712859       128.2434 
 844   0.0000       4.723242       128.5259 
 845   0.0000       4.733928       128.8167 
 846   0.0000       4.759006       129.4991 
 847   0.0000       4.763746       129.6281 
 848   0.0000       4.785862       130.2299 
 849   0.0000       4.791917       130.3947 
 850   0.0000       4.801100       130.6446 
 851   0.0000       4.811858       130.9373 
 852   0.0000       4.813450       130.9806 
 853   0.0000       4.825631       131.3121 
 854   0.0000       4.839709       131.6952 
 855   0.0000       4.856531       132.1529 
 856   0.0000       4.875198       132.6609 
 857   0.0000       4.891197       133.0962 
 858   0.0000       4.900228       133.3420 
 859   0.0000       4.907132       133.5299 
 860   0.0000       4.912553       133.6774 
 861   0.0000       4.928663       134.1157 
 862   0.0000       4.940622       134.4412 
 863   0.0000       4.946063       134.5892 
 864   0.0000       4.957275       134.8943 
 865   0.0000       4.960069       134.9703 
 866   0.0000       4.968507       135.2000 
 867   0.0000       4.985293       135.6567 
 868   0.0000       4.997969       136.0017 
 869   0.0000       5.008276       136.2821 
 870   0.0000       5.025965       136.7635 
 871   0.0000       5.027226       136.7978 
 872   0.0000       5.037834       137.0864 
 873   0.0000       5.049809       137.4123 
 874   0.0000       5.055673       137.5719 
 875   0.0000       5.072236       138.0226 
 876   0.0000       5.086070       138.3990 
 877   0.0000       5.096464       138.6818 
 878   0.0000       5.120189       139.3274 
 879   0.0000       5.132843       139.6718 
 880   0.0000       5.138143       139.8160 
 881   0.0000       5.146658       140.0477 
 882   0.0000       5.157062       140.3308 
 883   0.0000       5.174726       140.8114 
 884   0.0000       5.187746       141.1657 
 885   0.0000       5.203196       141.5862 
 886   0.0000       5.216778       141.9557 
 887   0.0000       5.224453       142.1646 
 888   0.0000       5.244854       142.7197 
 889   0.0000       5.253856       142.9647 
 890   0.0000       5.266592       143.3112 
 891   0.0000       5.269391       143.3874 
 892   0.0000       5.281413       143.7146 
 893   0.0000       5.294696       144.0760 
 894   0.0000       5.318566       144.7255 
 895   0.0000       5.333482       145.1314 
 896   0.0000       5.351236       145.6145 
 897   0.0000       5.362597       145.9237 
 898   0.0000       5.368687       146.0894 
 899   0.0000       5.378298       146.3509 
 900   0.0000       5.391240       146.7031 
 901   0.0000       5.402580       147.0117 
 902   0.0000       5.404939       147.0759 
 903   0.0000       5.414294       147.3304 
 904   0.0000       5.435982       147.9206 
 905   0.0000       5.442956       148.1104 
 906   0.0000       5.449030       148.2756 
 907   0.0000       5.462116       148.6317 
 908   0.0000       5.474980       148.9818 
 909   0.0000       5.489618       149.3801 
 910   0.0000       5.507164       149.8576 
 911   0.0000       5.518880       150.1764 
 912   0.0000       5.546164       150.9188 
 913   0.0000       5.551661       151.0684 
 914   0.0000       5.556763       151.2072 
 915   0.0000       5.566462       151.4711 
 916   0.0000       5.584714       151.9678 
 917   0.0000       5.594562       152.2358 
 918   0.0000       5.601557       152.4261 
 919   0.0000       5.617798       152.8681 
 920   0.0000       5.627518       153.1326 
 921   0.0000       5.638906       153.4424 
 922   0.0000       5.649072       153.7191 
 923   0.0000       5.659013       153.9896 
 924   0.0000       5.659215       153.9951 
 925   0.0000       5.670667       154.3067 
 926   0.0000       5.684989       154.6964 
 927   0.0000       5.690249       154.8395 
 928   0.0000       5.703626       155.2036 
 929   0.0000       5.709504       155.3635 
 930   0.0000       5.712212       155.4372 
 931   0.0000       5.738374       156.1491 
 932   0.0000       5.747497       156.3973 
 933   0.0000       5.761574       156.7804 
 934   0.0000       5.781040       157.3101 
 935   0.0000       5.787244       157.4789 
 936   0.0000       5.806794       158.0109 
 937   0.0000       5.819802       158.3649 
 938   0.0000       5.840759       158.9351 
 939   0.0000       5.849440       159.1714 
 940   0.0000       5.860016       159.4591 
 941   0.0000       5.890291       160.2830 
 942   0.0000       5.907009       160.7379 
 943   0.0000       5.909981       160.8188 
 944   0.0000       5.938606       161.5977 
 945   0.0000       5.975141       162.5918 
 946   0.0000       6.021431       163.8515 
 947   0.0000       6.065392       165.0477 
 948   0.0000       6.121986       166.5877 
 949   0.0000       6.141358       167.1148 
 950   0.0000       6.154280       167.4665 
 951   0.0000       6.170018       167.8947 
 952   0.0000       6.184026       168.2759 
 953   0.0000       6.200339       168.7198 
 954   0.0000       6.226066       169.4199 
 955   0.0000       6.233480       169.6216 
 956   0.0000       6.242483       169.8666 
 957   0.0000       6.250235       170.0775 
 958   0.0000       6.255489       170.2205 
 959   0.0000       6.280048       170.8888 
 960   0.0000       6.301751       171.4794 
 961   0.0000       6.331269       172.2826 
 962   0.0000       6.359325       173.0460 
 963   0.0000       6.368214       173.2879 
 964   0.0000       6.399094       174.1282 
 965   0.0000       6.407077       174.3454 
 966   0.0000       6.422352       174.7611 
 967   0.0000       6.449817       175.5084 
 968   0.0000       6.503747       176.9759 
 969   0.0000       6.521659       177.4634 
 970   0.0000       6.599800       179.5897 
 971   0.0000       6.716305       182.7599 
 972   0.0000       6.823863       185.6867 
 973   0.0000       6.864391       186.7896 
 974   0.0000       6.883155       187.3002 
 975   0.0000       6.908057       187.9778 
 976   0.0000       6.932643       188.6468 
 977   0.0000       6.943395       188.9394 
 978   0.0000       6.963096       189.4755 
 979   0.0000       6.987943       190.1516 
 980   0.0000       7.018308       190.9779 
 981   0.0000       7.030835       191.3188 
 982   0.0000       7.091862       192.9794 
 983   0.0000       7.099872       193.1973 
 984   0.0000       7.170766       195.1265 
 985   0.0000       7.200466       195.9346 
 986   0.0000       7.363939       200.3830 
 987   0.0000       7.415273       201.7798 
 988   0.0000       7.517611       204.5646 
 989   0.0000       7.545996       205.3370 
 990   0.0000       7.575371       206.1363 
 991   0.0000       7.620749       207.3711 
 992   0.0000       7.726143       210.2391 
 993   0.0000       7.780425       211.7161 
 994   0.0000       7.854555       213.7333 
 995   0.0000       7.891947       214.7508 
 996   0.0000       8.068368       219.5515 
 997   0.0000       8.164805       222.1756 
 998   0.0000       8.371287       227.7943 
 999   0.0000       9.440429       256.8871 
 1000   0.0000       9.453931       257.2545 
 1001   0.0000       9.473118       257.7766 
 1002   0.0000       9.491632       258.2804 
 1003   0.0000       9.492398       258.3013 
 1004   0.0000       9.530366       259.3344 
 1005   0.0000       9.787411       266.3290 
 1006   0.0000      10.102602       274.9058 
 1007   0.0000      10.134282       275.7678 
 1008   0.0000      10.152534       276.2645 
 1009   0.0000      10.222446       278.1669 
 1010   0.0000      10.229344       278.3546 
 1011   0.0000      10.261486       279.2292 
 1012   0.0000      10.414211       283.3851 
 1013   0.0000      10.443178       284.1733 
 1014   0.0000      10.580859       287.9198 
 1015   0.0000      17.200618       468.0526 
 1016   0.0000      17.962967       488.7972 
 1017   0.0000      18.547594       504.7057 
 1018   0.0000      18.680429       508.3203 
 1019   0.0000      18.922350       514.9033 
 1020   0.0000      19.069045       518.8951 
 1021   0.0000      19.607418       533.5450 
 1022   0.0000      20.163490       548.6765 
 1023   0.0000      20.671077       562.4886 
 1024   0.0000      21.989870       598.3748 

                 SPIN DOWN ORBITALS
  NO   OCC          E(Eh)            E(eV) 
   0   1.0000    -261.544855     -7116.9973 
   1   1.0000    -104.773767     -2851.0391 
   2   1.0000    -104.773585     -2851.0342 
   3   1.0000    -104.770322     -2850.9454 
   4   1.0000     -32.054230      -872.2399 
   5   1.0000     -27.532326      -749.1927 
   6   1.0000     -27.532144      -749.1877 
   7   1.0000     -27.531635      -749.1739 
   8   1.0000     -20.542153      -558.9804 
   9   1.0000     -11.381652      -309.7105 
  10   1.0000     -11.375293      -309.5374 
  11   1.0000     -11.282660      -307.0168 
  12   1.0000     -11.276147      -306.8396 
  13   1.0000     -11.270632      -306.6895 
  14   1.0000     -11.263029      -306.4826 
  15   1.0000     -11.250090      -306.1305 
  16   1.0000     -11.244560      -305.9800 
  17   1.0000     -10.500256      -285.7265 
  18   1.0000     -10.499976      -285.7189 
  19   1.0000     -10.496752      -285.6311 
  20   1.0000      -7.966123      -216.7692 
  21   1.0000      -7.965926      -216.7639 
  22   1.0000      -7.965629      -216.7558 
  23   1.0000      -7.965555      -216.7538 
  24   1.0000      -7.965340      -216.7479 
  25   1.0000      -7.965243      -216.7453 
  26   1.0000      -7.962713      -216.6764 
  27   1.0000      -7.961994      -216.6569 
  28   1.0000      -7.961917      -216.6548 
  29   1.0000      -4.129523      -112.3700 
  30   1.0000      -2.651336       -72.1465 
  31   1.0000      -2.651233       -72.1437 
  32   1.0000      -2.650650       -72.1278 
  33   1.0000      -1.369213       -37.2582 
  34   1.0000      -1.180877       -32.1333 
  35   1.0000      -1.083388       -29.4805 
  36   1.0000      -1.040494       -28.3133 
  37   1.0000      -1.032210       -28.0879 
  38   1.0000      -1.021532       -27.7973 
  39   1.0000      -1.018484       -27.7143 
  40   1.0000      -1.007679       -27.4203 
  41   1.0000      -0.977966       -26.6118 
  42   1.0000      -0.932952       -25.3869 
  43   1.0000      -0.795905       -21.6577 
  44   1.0000      -0.769001       -20.9256 
  45   1.0000      -0.700695       -19.0669 
  46   1.0000      -0.692350       -18.8398 
  47   1.0000      -0.676401       -18.4058 
  48   1.0000      -0.649919       -17.6852 
  49   1.0000      -0.640603       -17.4317 
  50   1.0000      -0.627737       -17.0816 
  51   1.0000      -0.600181       -16.3318 
  52   1.0000      -0.595078       -16.1929 
  53   1.0000      -0.591554       -16.0970 
  54   1.0000      -0.583642       -15.8817 
  55   1.0000      -0.576246       -15.6804 
  56   1.0000      -0.561835       -15.2883 
  57   1.0000      -0.556986       -15.1564 
  58   1.0000      -0.544728       -14.8228 
  59   1.0000      -0.533297       -14.5117 
  60   1.0000      -0.527292       -14.3484 
  61   1.0000      -0.502128       -13.6636 
  62   1.0000      -0.472094       -12.8463 
  63   1.0000      -0.465058       -12.6549 
  64   1.0000      -0.459277       -12.4976 
  65   1.0000      -0.436501       -11.8778 
  66   1.0000      -0.432831       -11.7779 
  67   1.0000      -0.432296       -11.7634 
  68   1.0000      -0.423468       -11.5232 
  69   1.0000      -0.411392       -11.1945 
  70   1.0000      -0.399252       -10.8642 
  71   1.0000      -0.389694       -10.6041 
  72   0.0000       0.007656         0.2083 
  73   0.0000       0.018764         0.5106 
  74   0.0000       0.021349         0.5809 
  75   0.0000       0.027845         0.7577 
  76   0.0000       0.030363         0.8262 
  77   0.0000       0.037612         1.0235 
  78   0.0000       0.040382         1.0989 
  79   0.0000       0.043770         1.1910 
  80   0.0000       0.044313         1.2058 
  81   0.0000       0.046941         1.2773 
  82   0.0000       0.056285         1.5316 
  83   0.0000       0.059995         1.6325 
  84   0.0000       0.061115         1.6630 
  85   0.0000       0.064631         1.7587 
  86   0.0000       0.067310         1.8316 
  87   0.0000       0.071256         1.9390 
  88   0.0000       0.072989         1.9861 
  89   0.0000       0.079135         2.1534 
  90   0.0000       0.088552         2.4096 
  91   0.0000       0.089509         2.4357 
  92   0.0000       0.091145         2.4802 
  93   0.0000       0.093614         2.5474 
  94   0.0000       0.099533         2.7084 
  95   0.0000       0.102040         2.7767 
  96   0.0000       0.109685         2.9847 
  97   0.0000       0.114767         3.1230 
  98   0.0000       0.118662         3.2290 
  99   0.0000       0.122842         3.3427 
 100   0.0000       0.123080         3.3492 
 101   0.0000       0.125641         3.4189 
 102   0.0000       0.126443         3.4407 
 103   0.0000       0.126910         3.4534 
 104   0.0000       0.129929         3.5355 
 105   0.0000       0.130137         3.5412 
 106   0.0000       0.132693         3.6108 
 107   0.0000       0.134099         3.6490 
 108   0.0000       0.137783         3.7493 
 109   0.0000       0.138637         3.7725 
 110   0.0000       0.139489         3.7957 
 111   0.0000       0.143336         3.9004 
 112   0.0000       0.148659         4.0452 
 113   0.0000       0.150036         4.0827 
 114   0.0000       0.153322         4.1721 
 115   0.0000       0.155093         4.2203 
 116   0.0000       0.157270         4.2795 
 117   0.0000       0.161046         4.3823 
 118   0.0000       0.164571         4.4782 
 119   0.0000       0.167672         4.5626 
 120   0.0000       0.170315         4.6345 
 121   0.0000       0.174697         4.7537 
 122   0.0000       0.177647         4.8340 
 123   0.0000       0.178076         4.8457 
 124   0.0000       0.185595         5.0503 
 125   0.0000       0.189003         5.1430 
 126   0.0000       0.193388         5.2623 
 127   0.0000       0.194299         5.2871 
 128   0.0000       0.200461         5.4548 
 129   0.0000       0.202135         5.5004 
 130   0.0000       0.205747         5.5987 
 131   0.0000       0.208339         5.6692 
 132   0.0000       0.209775         5.7083 
 133   0.0000       0.212338         5.7780 
 134   0.0000       0.217166         5.9094 
 135   0.0000       0.221706         6.0329 
 136   0.0000       0.225935         6.1480 
 137   0.0000       0.229450         6.2437 
 138   0.0000       0.234817         6.3897 
 139   0.0000       0.236562         6.4372 
 140   0.0000       0.238473         6.4892 
 141   0.0000       0.241427         6.5696 
 142   0.0000       0.244593         6.6557 
 143   0.0000       0.247283         6.7289 
 144   0.0000       0.248195         6.7537 
 145   0.0000       0.253637         6.9018 
 146   0.0000       0.256775         6.9872 
 147   0.0000       0.260285         7.0827 
 148   0.0000       0.262504         7.1431 
 149   0.0000       0.265833         7.2337 
 150   0.0000       0.269688         7.3386 
 151   0.0000       0.279619         7.6088 
 152   0.0000       0.282711         7.6930 
 153   0.0000       0.286540         7.7972 
 154   0.0000       0.290131         7.8949 
 155   0.0000       0.295729         8.0472 
 156   0.0000       0.302281         8.2255 
 157   0.0000       0.304341         8.2815 
 158   0.0000       0.308649         8.3988 
 159   0.0000       0.309632         8.4255 
 160   0.0000       0.312246         8.4966 
 161   0.0000       0.316559         8.6140 
 162   0.0000       0.320433         8.7194 
 163   0.0000       0.323920         8.8143 
 164   0.0000       0.329016         8.9530 
 165   0.0000       0.330951         9.0056 
 166   0.0000       0.335690         9.1346 
 167   0.0000       0.343935         9.3590 
 168   0.0000       0.345032         9.3888 
 169   0.0000       0.347946         9.4681 
 170   0.0000       0.351116         9.5544 
 171   0.0000       0.355097         9.6627 
 172   0.0000       0.362287         9.8583 
 173   0.0000       0.363751         9.8982 
 174   0.0000       0.366339         9.9686 
 175   0.0000       0.370767        10.0891 
 176   0.0000       0.371803        10.1173 
 177   0.0000       0.374823        10.1995 
 178   0.0000       0.378813        10.3080 
 179   0.0000       0.380389        10.3509 
 180   0.0000       0.387022        10.5314 
 181   0.0000       0.388740        10.5782 
 182   0.0000       0.389902        10.6098 
 183   0.0000       0.392842        10.6898 
 184   0.0000       0.396279        10.7833 
 185   0.0000       0.402411        10.9502 
 186   0.0000       0.404057        10.9949 
 187   0.0000       0.405593        11.0368 
 188   0.0000       0.409360        11.1393 
 189   0.0000       0.413971        11.2647 
 190   0.0000       0.417305        11.3555 
 191   0.0000       0.419208        11.4072 
 192   0.0000       0.424372        11.5477 
 193   0.0000       0.425439        11.5768 
 194   0.0000       0.429805        11.6956 
 195   0.0000       0.437123        11.8947 
 196   0.0000       0.438981        11.9453 
 197   0.0000       0.445847        12.1321 
 198   0.0000       0.451074        12.2743 
 199   0.0000       0.455317        12.3898 
 200   0.0000       0.459646        12.5076 
 201   0.0000       0.461468        12.5572 
 202   0.0000       0.462084        12.5739 
 203   0.0000       0.467097        12.7104 
 204   0.0000       0.470189        12.7945 
 205   0.0000       0.472036        12.8448 
 206   0.0000       0.473910        12.8957 
 207   0.0000       0.477304        12.9881 
 208   0.0000       0.480142        13.0653 
 209   0.0000       0.484029        13.1711 
 210   0.0000       0.488632        13.2964 
 211   0.0000       0.491453        13.3731 
 212   0.0000       0.492583        13.4039 
 213   0.0000       0.498308        13.5597 
 214   0.0000       0.502125        13.6635 
 215   0.0000       0.503176        13.6921 
 216   0.0000       0.505513        13.7557 
 217   0.0000       0.509471        13.8634 
 218   0.0000       0.511521        13.9192 
 219   0.0000       0.514906        14.0113 
 220   0.0000       0.516538        14.0557 
 221   0.0000       0.519189        14.1279 
 222   0.0000       0.524113        14.2618 
 223   0.0000       0.530089        14.4245 
 224   0.0000       0.533781        14.5249 
 225   0.0000       0.536248        14.5920 
 226   0.0000       0.539607        14.6834 
 227   0.0000       0.542706        14.7678 
 228   0.0000       0.546403        14.8684 
 229   0.0000       0.549754        14.9596 
 230   0.0000       0.552590        15.0367 
 231   0.0000       0.555864        15.1258 
 232   0.0000       0.561990        15.2925 
 233   0.0000       0.567682        15.4474 
 234   0.0000       0.571254        15.5446 
 235   0.0000       0.573198        15.5975 
 236   0.0000       0.577730        15.7208 
 237   0.0000       0.581404        15.8208 
 238   0.0000       0.583082        15.8665 
 239   0.0000       0.584748        15.9118 
 240   0.0000       0.590958        16.0808 
 241   0.0000       0.596375        16.2282 
 242   0.0000       0.601021        16.3546 
 243   0.0000       0.601369        16.3641 
 244   0.0000       0.605269        16.4702 
 245   0.0000       0.609809        16.5937 
 246   0.0000       0.613074        16.6826 
 247   0.0000       0.618021        16.8172 
 248   0.0000       0.622289        16.9333 
 249   0.0000       0.626235        17.0407 
 250   0.0000       0.628780        17.1100 
 251   0.0000       0.633530        17.2392 
 252   0.0000       0.634814        17.2742 
 253   0.0000       0.635680        17.2977 
 254   0.0000       0.640528        17.4297 
 255   0.0000       0.648288        17.6408 
 256   0.0000       0.650754        17.7079 
 257   0.0000       0.653592        17.7851 
 258   0.0000       0.660516        17.9736 
 259   0.0000       0.662082        18.0162 
 260   0.0000       0.668539        18.1919 
 261   0.0000       0.674767        18.3614 
 262   0.0000       0.674932        18.3658 
 263   0.0000       0.676323        18.4037 
 264   0.0000       0.685947        18.6656 
 265   0.0000       0.689396        18.7594 
 266   0.0000       0.696240        18.9457 
 267   0.0000       0.697660        18.9843 
 268   0.0000       0.698353        19.0032 
 269   0.0000       0.705236        19.1905 
 270   0.0000       0.714041        19.4300 
 271   0.0000       0.714468        19.4417 
 272   0.0000       0.722006        19.6468 
 273   0.0000       0.725380        19.7386 
 274   0.0000       0.729602        19.8535 
 275   0.0000       0.733952        19.9719 
 276   0.0000       0.736415        20.0389 
 277   0.0000       0.743939        20.2436 
 278   0.0000       0.752374        20.4731 
 279   0.0000       0.754716        20.5369 
 280   0.0000       0.762713        20.7545 
 281   0.0000       0.765605        20.8332 
 282   0.0000       0.768495        20.9118 
 283   0.0000       0.779046        21.1989 
 284   0.0000       0.784251        21.3405 
[...]
  | Av. % of trace(Dip) retained        ...  97.132908601971
  | Av. % of trace(Dpq) retained        ...  99.521137786368
  | sigma^2 in % of trace(Dij) retained ...   8.54e+00
  | sigma^2 in % of trace(Dip) retained ...   1.61e+01
  | sigma^2 in % of trace(Dpq) retained ...   1.30e-01
  | Av. % of trace(Di) retained         ...  99.998491160797
  | Av. % of trace(Dp) retained         ...  99.999999581188
  | sigma^2 in % of trace(Di) retained  ...   8.02e-07
  | sigma^2 in % of trace(Dp) retained  ...   3.63e-13
 Distributions of % trace(Dij) recovered:
  |       >= 99.9  ...   105 ( 20.1 % of all IJ-pairs)
  |   [80.0, 90.0) ...    34 (  6.5 % of all IJ-pairs)
  |   [90.0, 99.0) ...   292 ( 55.8 % of all IJ-pairs)
  |   [99.0, 99.9) ...    92 ( 17.6 % of all IJ-pairs)
 Distributions of % trace(Dip) recovered:
  |   [80.0, 90.0) ...    10 (  8.5 % of all IP-pairs)
  |   [90.0, 99.0) ...    66 ( 56.4 % of all IP-pairs)
  |   [99.0, 99.9) ...    41 ( 35.0 % of all IP-pairs)
 Distributions of % trace(Dpq) recovered:
  |       >= 99.9  ...     5 ( 33.3 % of all PQ-pairs)
  |   [99.0, 99.9) ...    10 ( 66.7 % of all PQ-pairs)
 Distributions of % trace(Di) recovered :
  |       >= 99.9  ...    43 (100.0 % of all I-pairs )
 Distributions of % trace(Dp) recovered :
  |       >= 99.9  ...     5 (100.0 % of all P-pairs )

                       ===========================
                       1145 OF 1727 PAIRS ARE KEPT
                       ===========================

 Initial PAO correlation energy (all pairs)    ...  -2.6923938763 Eh
 Energy constituents in PAO basis (Eh):
  | Vijab(+0) ...  -2.2622932525
  | Viab (-1) ...  -0.1756755250
  | Vab  (-2) ...  -0.0573657832
  | Va   (-1) ...  -0.0000416435
  | Vija (+1) ...  -0.0731232657
  | Vij  (+2) ...  -0.0155088678
  | Via  (+0) ...  -0.1082258177
  | Vi   (+1) ...  -0.0001597210
 Initial PNO correlation energy                ...  -2.6583358101 Eh
 Energy constituents in PNO basis (Eh):
  | Vijab(+0) ...  -2.2442091648 (err=  0.0180840878)
  | Viab (-1) ...  -0.1613527293 (err=  0.0143227958)
  | Vab  (-2) ...  -0.0569076998 (err=  0.0004580834)
  | Va   (-1) ...  -0.0000238643 (err=  0.0000177792)
  | Vija (+1) ...  -0.0721164265 (err=  0.0010068392)
  | Vij  (+2) ...  -0.0154549385 (err=  0.0000539293)
  | Via  (+0) ...  -0.1081116785 (err=  0.0001141392)
  | Vi   (+1) ...  -0.0001593085 (err=  0.0000004124)
 Sum of total truncation errors ...   0.0340580662 Eh
  | Pair screening ...   0.0109522575 Eh
  | PNO truncation ...   0.0231058087 Eh

 UMP2 correlation energy (PAO) ...  -2.6875304773
  | alpha-alpha ...  -0.3863669519 (NP_aa=  939)
  | alpha-beta  ...  -1.9943094927 (NP_ab= 1702)
  | beta -beta  ...  -0.3068540327 (NP_bb=  730)
 UMP2 correlation energy (PNO) ...  -2.6531084044
  | alpha-alpha ...  -0.3744335719 (err=  0.0119333800, NP_aa=  607)
  | alpha-beta  ...  -1.9757359300 (err=  0.0185735627, NP_ab= 1120)
  | beta -beta  ...  -0.3029389025 (err=  0.0039151302, NP_bb=  480)
 Sum of total UMP2 truncation errors ...   0.0344220729 Eh
  | Pair screening ...   0.0109642257 Eh
  | PNO truncation ...   0.0234578472 Eh
 Timing for NEV-PNO construction (sec.)
  | Intermediate construction  ..           52.197
  | Amplitude construction     ..           85.252
  | Total time                 ..          137.449
 Making pair pair interaction lists ...      ok
 Total size for 2-ext PNO integrals ...     11.1 MB
Checking the number of SOMO/SOMO doubles PNOs ... 
 #Truncate: (72, 72)[174] -> [84] .. 
 #Truncate: (73, 73)[174] -> [84] .. 
 #Truncate: (74, 74)[172] -> [84] .. 
 #Truncate: (75, 75)[172] -> [84] .. 
 #Truncate: (76, 76)[174] -> [84] .. 

--------------------------------
LOCAL RI TRANSFORMATION (VABPAO)
--------------------------------

Number of PAOs:    1030
Basis functions:   1025 (343 shells)
Aux. functions:    2424 (644 shells)

Processing maps (0.0 sec)
Average map sizes:
   Aux shells -> PAOs           1030.0
   PAOs       -> AO shells       343.0

Calculating integrals (463.0 sec, 37370.165 MB)
Finished
-----------------------------
LOCAL RI TRANSFORMATION (IJV)
-----------------------------

Orbital window:      29 to 76
Basis functions:   1025 (343 shells)
Aux. functions:    2424 (644 shells)

Processing maps (0.0 sec)
Average map sizes:
   Aux shells -> MOs(i)           46.3
   Aux shells -> MOs(j)           48.0
   MOs        -> AO shells       341.4

Calculating integrals (23.0 sec, 41.253 MB)
Sorting integrals (0.5 sec, 41.226 MB)
Total time for the integral transformation: 23.5 sec


-------------------------------------
Pair Pair Term precalculation with     
RI-(ij|mn) and (im|jn) transformation  
ON THE FLY                             
-------------------------------------

   IBatch   1 (of   2)              ... done ( 2681.682 sec)
   IBatch   2 (of   2)              ... done ( 1788.885 sec)
Total EXT                           ...        4470.567 sec

---------------------
RI-PNO TRANSFORMATION
---------------------

Total Number of PNOs                   ... 35222
Total Number of IJ-PNOs                ... 31048
Total Number of IP-PNOs                ...  3226
Total Number of PQ-PNOs                ...   948
Total Number of IJ-pairs               ...  1003
Total Number of PI-pairs               ...   117
Total Number of PQ-pairs               ...    25
Average number of PNOs per pair        ...    30
Maximal number of PNOs per pair        ...    84
>> Statistics for ij-pairs..
   #pairs with  1 -  5 PNOs   :    0
   #pairs with  6 - 10 PNOs   :    0
   #pairs with 11 - 15 PNOs   :   70
   #pairs with 16 - 20 PNOs   :  252
   #pairs with 21 - 25 PNOs   :  178
   #pairs with 26 - 30 PNOs   :  144
   #pairs with 31 - 35 PNOs   :   66
   #pairs with 36 - 40 PNOs   :   54
   #pairs with 41 - 45 PNOs   :   46
   #pairs with 46 - 50 PNOs   :   19
   #pairs with 51 - 55 PNOs   :   38
   #pairs with 56 - 60 PNOs   :   52
   #pairs with 61 - 65 PNOs   :   75
   #pairs with 66 - 70 PNOs   :    6
   #pairs with 71 - 75 PNOs   :    3
>> Statistics for ip-pairs..
   #pairs with  1 -  5 PNOs   :    0
   #pairs with  6 - 10 PNOs   :    2
   #pairs with 11 - 15 PNOs   :   13
   #pairs with 16 - 20 PNOs   :    5
   #pairs with 21 - 25 PNOs   :   27
   #pairs with 26 - 30 PNOs   :   12
   #pairs with 31 - 35 PNOs   :   45
   #pairs with 36 - 40 PNOs   :   13
   #pairs with 41 - 45 PNOs   :    0
   #pairs with 46 - 50 PNOs   :    0
>> Statistics for pq-pairs..
   #pairs with  1 -  5 PNOs   :    0
   #pairs with  6 - 10 PNOs   :    0
   #pairs with 11 - 15 PNOs   :    0
   #pairs with 16 - 20 PNOs   :    0
   #pairs with 21 - 25 PNOs   :    8
   #pairs with 26 - 30 PNOs   :   12
   #pairs with 31 - 35 PNOs   :    0
   #pairs with 36 - 40 PNOs   :    0
   #pairs with 41 - 45 PNOs   :    0
   #pairs with 46 - 50 PNOs   :    0
   #pairs with 81 - 85 PNOs   :    5

Generation of (ij|ab)[P] integrals            ... on
Generation of (ia|bc)[P],(ja|bc)[P] integrals ... on
Storage of 3 and 4 external integrals         ... on
Generation of ALL (ka|bc)[P] integrals        ... on
Keep RI integrals in memory                   ... off

Ibatch:  1 (of  1)
Starting 2-4 index PNO integral generation ... done

Timings:
Total PNO integral transformation time     ...       2208.185 sec
Size of the 3-external file                ...       286 MB
Size of the 4-external file                ...      1930 MB
Size of the IKJL file                      ...        20 MB
Size of the all 3-external file            ...      6886 MB
Size of the 1-external file                ...        22 MB

Size of the PAO/PNO coefficient matrices   ...     232.1 MB

Making pair/pair overlap matrices          ... done (  465.797 sec)
Size of the pair overlap file              ...    2518.0 MB
Total # unrestricted pairs ...       2207
  # of alpha-alpha pairs   ...        607
  # of alpha-beta pairs    ...       1120
  # of beta-beta pairs     ...        480
Constructing the guess amplitudes          ... done (    0.632 sec)

-------------------------
FINAL STARTUP INFORMATION
-------------------------

E(0)                                       ...  -3028.424242634
E(SL-UMP2 in NEV-PNO space)                ...     -2.688452743
Initial E(tot)                             ...  -3031.112695377
<T|T>                                      ...      0.534441677
Number of unrestricted pairs included      ... 2207
Total number of pairs                      ... 4095
----------------------------------------------------------
                     OPEN-SHELL COUPLED CLUSTER ITERATIONS
----------------------------------------------------------

Number of PNO amplitudes to be optimized        ...          2138246
Number of canonical amplitudes for strong pairs ...       1993397411
Untruncated number of canonical amplitudes      ...       3698645738

Iter       E(tot)           E(Corr)          Delta-E          Residual     Time
  0  -3031.119846488     -2.660259516      0.028193228      0.022532090 2283.41
                           *** Turning on DIIS ***
  1  -3031.232820869     -2.773233896     -0.112974381      0.009206640 2276.57
  2  -3031.296899772     -2.837312800     -0.064078903      0.008924816 2272.65
  3  -3031.317742158     -2.858155185     -0.020842385      0.003766791 2273.83
  4  -3031.324684172     -2.865097199     -0.006942014      0.002826529 2284.38
  5  -3031.328256094     -2.868669121     -0.003571923      0.002297061 2328.58
  6  -3031.329569365     -2.869982392     -0.001313270      0.000971848 2319.23
  7  -3031.330357219     -2.870770246     -0.000787854      0.000573974 2323.20
  8  -3031.330508353     -2.870921380     -0.000151134      0.000183982 2305.55
  9  -3031.330553178     -2.870966206     -0.000044825      0.000099105 2285.95
 10  -3031.330547986     -2.870961013      0.000005193      0.000058874 2286.64
 11  -3031.330557151     -2.870970178     -0.000009165      0.000032152 2274.96
 12  -3031.330562482     -2.870975509     -0.000005331      0.000019650 2265.81
 13  -3031.330564690     -2.870977717     -0.000002208      0.000009390 2083.92
               --- The CCSD iterations have converged ---

E(0)                                       ...  -3028.424242634
E(CORR)(strong-pairs)                      ...     -2.870977717
E(CORR)(weak-pairs)                        ...     -0.035344339
E(CORR)(corrected)                         ...     -2.906322056
E(TOT)                                     ...  -3031.330564690
Singles norm <S|S>**1/2                    ...      0.186342240 ( 0.061921701, 0.124420539)  
T1 diagnostic                              ...      0.019533974                              
<S**2>(linearized)                         ...      8.7507268 (ideal value:      8.7500000)

----------------------
LARGEST PNO AMPLITUDES
----------------------
  51b-> 76b  -1b-> -1b       0.058468
  45a-> 78a  45b-> 78b       0.058265
  45a-> 77a  45b-> 77b       0.054091
  49b-> 74b  -1b-> -1b       0.045918
  49b-> 72b  -1b-> -1b       0.045715
  56a-> 77a  56b-> 77b       0.045380
  52b-> 76b  -1b-> -1b       0.044992
  30b-> 76b  -1b-> -1b       0.044936
  67a-> 77a  67b-> 77b       0.043972
  63a-> 77a  63b-> 77b       0.043307
  44a-> 78a  44b-> 78b       0.043262
  59a-> 77a  59b-> 77b       0.042801
  71a-> 77a  71b-> 77b       0.042515
  65a-> 77a  65b-> 77b       0.042284
  39b-> 73b  -1b-> -1b       0.042228
  53a-> 77a  53b-> 77b       0.042222

Total # unrestricted pairs ...       1164
  # of alpha-alpha pairs   ...        332
  # of alpha-beta pairs    ...        582
  # of beta-beta pairs     ...        250

-------------------------------------------
DLPNO BASED TRIPLES CORRECTION
-------------------------------------------

Singles multiplier          ...  1.000000
Fragment selection                          .... not used
TCutTNO                     ... 1.000e-09
TCutMP2Pairs                ... 1.000e-05
TCutDOStrong                ... 2.000e-02
TCutMKNStrong               ... 1.000e-02
TCutDOWeak                  ... 4.000e-02
TCutMKNWeak                 ... 1.000e-01
NTCutTNO                    ... 1

Number of Triples that are to be computed         ...     36264

 . . . . . . . . .
10% done  
20% done  
30% done  
40% done  
50% done  
60% done  
70% done  
80% done  
90% done  
          Batch   1   done (  17524.551 sec)

Triples-Correction TCutTNO=   1.000e-09 (NWeakPairs = 0  1  2  3)  -0.117085859250   -0.001757492885    0.000000000000    0.000000000000
Triples-Correction  -0.118843352134

Triples timings:
Total time                      ... 18210.395 sec

Triples List generation         ...     0.000 sec
TNO generation                  ...   685.438 sec
Pair density generation         ...     0.088 sec
Look up tables                  ...     0.124 sec
Generating 3-index integrals    ... 11056.332 sec
Make 4-ind.int. from 3-ind.int  ...     4.369 sec
Projecting amplitudes (D + S)   ...  6191.117 sec
Sorting integrals for spin cases...    56.748 sec
Calculate W0/W1                 ...   174.779 sec
Energy contr. (sum over a,b,c)  ...    41.175 sec

Everything after 3-index        ...  6617.237 sec

Energy contribution AAA         ...    25.897 sec
Energy contribution AAB         ...   120.931 sec
Energy contribution ABB         ...   111.319 sec
Energy contribution BBB         ...    14.599 sec
prep                ...     3.472 sec
makeTTNO            ...  6128.490 sec
copyij              ...     0.139 sec
copyil              ...     4.460 sec
transposeij         ...     0.083 sec
newMatInDoubleProj  ...    59.918 sec
BlasInDoubleProj    ...  3313.698 sec
ProjSingles         ...    51.767 sec
ProjDoubles         ...  6139.349 sec
overall Doubles for projection      ... 3326367
used Doubles for projection         ... 3326367


Number of Triples   (0, 1, 2, 3 weak pairs; overall):  17899   12174       0       0  ( 30073)
Number of Atoms     (0, 1, 2, 3 weak pairs; overall):   20.4    14.9     0.0     0.0  (    29)
Number of PAOs      (0, 1, 2, 3 weak pairs; overall):  784.0   598.7     0.0     0.0  (  1025)
Number of AuxFcns   (0, 1, 2, 3 weak pairs; overall):  991.3   580.4     0.0     0.0  (  2424)
Number of TNOs (0, 1, 2, 3 weak pairs         ):   78.4    55.4     0.0     0.0
Aver. Number of NTNO, Atoms, PAOs, AuxFcns / Triples:  30073    69.1    18.1   709.0   825.0

Triples Correction (T)                     ...     -0.118843352
    alpha-alpha-alpha ... -0.003910979 (  3.3%)
    alpha-alpha-beta  ... -0.055791280 ( 46.9%)
    alpha-beta -beta  ... -0.055021023 ( 46.3%)
    beta -beta -beta  ... -0.004120071 (  3.5%)
Final correlation energy                   ...     -3.025165408
E(CCSD)                                    ...  -3031.330564690
E(CCSD(T))                                 ...  -3031.449408042

----------------------------
STATISTICS FOR PAIR-ENERGIES
----------------------------
Minimum, maximum and average ratios of UMP and CCSD pair-energies ... 0.50, 1.42, 1.02


------------------------------------------------------------------------------- 
                                     TIMINGS                                   
------------------------------------------------------------------------------- 


Total execution time                   ...    61723.358 sec

Localization of occupied MO's          ...       11.174 sec (  0.0%)
Fock Matrix Formation                  ...     1417.515 sec (  2.3%)
Differential overlap integrals         ...        1.378 sec (  0.0%)
Organizing maps                        ...        1.730 sec (  0.0%)
RI 3-index integral generations        ...      552.042 sec (  0.9%)
RI-PNO integral transformation         ...     7220.703 sec ( 11.7%)
Initial Guess                          ...     2095.509 sec (  3.4%)
DIIS Solver                            ...       18.172 sec (  0.0%)
State Vector Update                    ...        0.813 sec (  0.0%)
Sigma-vector construction              ...    31864.686 sec ( 51.6%)
  <0|H|D>                              ...        0.030 sec (  0.0% of sigma)
  <D|H|D>(0-ext)                       ...     5863.233 sec ( 18.4% of sigma)
  <D|H|D>(2-ext Fock)                  ...        1.825 sec (  0.0% of sigma)
  <D|H|D>(2-ext)                       ...     4544.765 sec ( 14.3% of sigma)
  <D|H|D>(4-ext)                       ...      181.549 sec (  0.6% of sigma)
  <D|H|D>(4-ext-corr)                  ...     1112.841 sec (  3.5% of sigma)
  CCSD doubles correction              ...      559.120 sec (  1.8% of sigma)
  <S|H|S>                              ...      711.606 sec (  2.2% of sigma)
  <S|H|D>(1-ext)                       ...      234.609 sec (  0.7% of sigma)
  <D|H|S>(1-ext)                       ...        0.830 sec (  0.0% of sigma)
  <S|H|D>(3-ext)                       ...       21.884 sec (  0.1% of sigma)
  CCSD singles correction              ...        0.004 sec (  0.0% of sigma)
  Fock-dressing                        ...     9537.198 sec ( 29.9% of sigma)
  Singles amplitudes                   ...      110.014 sec (  0.3% of sigma)
  (ik|jl)-dressing                     ...     7206.084 sec ( 22.6% of sigma)
  (ij|ab),(ia|jb)-dressing             ...     1613.382 sec (  5.1% of sigma)
  Pair energies                        ...        0.164 sec (  0.0% of sigma)
Total Time for computing (T)           ...    18904.375 sec ( 30.6% of ALL)


-------------------------   --------------------
FINAL SINGLE POINT ENERGY     -3031.449408042121
-------------------------   --------------------


                            ***************************************
                            *     ORCA property calculations      *
                            ***************************************

                                    ---------------------
                                    Active property flags
                                    ---------------------
   (+) Dipole Moment


------------------------------------------------------------------------------
                       ORCA ELECTRIC PROPERTIES CALCULATION
------------------------------------------------------------------------------

Dipole Moment Calculation                       ... on
Quadrupole Moment Calculation                   ... off
Polarizability Calculation                      ... off
GBWName                                         ... simple-grid-190-230-b3lyp_d3bj-631gd-gas-singlepoint-DLPNO_CCSD_T1-NormalPNO-augtz-gas.gbw
Electron density file                           ... simple-grid-190-230-b3lyp_d3bj-631gd-gas-singlepoint-DLPNO_CCSD_T1-NormalPNO-augtz-gas.scfp.tmp
The origin for moment calculation is the CENTER OF MASS  = ( 0.304327,  0.024874  0.018380)

-------------
DIPOLE MOMENT
-------------
                                X             Y             Z
Electronic contribution:     40.57666       3.90425       2.28007
Nuclear contribution   :    -45.34461      -3.70626      -2.73862
                        -----------------------------------------
Total Dipole Moment    :     -4.76795       0.19799      -0.45855
                        -----------------------------------------
Magnitude (a.u.)       :      4.79404
Magnitude (Debye)      :     12.18548



--------------------
Rotational spectrum 
--------------------
 
Rotational constants in cm-1:     0.019260     0.011601     0.010667 
Rotational constants in MHz :   577.402140   347.788837   319.778942 

 Dipole components along the rotational axes: 
x,y,z [a.u.] :    -4.769484     0.160246    -0.457326 
x,y,z [Debye]:   -12.123065     0.407312    -1.162431 

 

Timings for individual modules:

Sum of individual times         ...    78282.731 sec (=1304.712 min)
GTO integral calculation        ...       14.036 sec (=   0.234 min)   0.0 %
SCF iterations                  ...    16529.489 sec (= 275.491 min)  21.1 %
MDCI module                     ...    61739.207 sec (=1028.987 min)  78.9 %
                             ****ORCA TERMINATED NORMALLY****
TOTAL RUN TIME: 0 days 21 hours 44 minutes 47 seconds 277 msec
