
                                 *****************
                                 * O   R   C   A *
                                 *****************

           --- An Ab Initio, DFT and Semiempirical electronic structure package ---

                  #######################################################
                  #                        -***-                        #
                  #          Department of theory and spectroscopy      #
                  #               Directorship: Frank Neese             #
                  #        Max Planck Institute fuer Kohlenforschung    #
                  #                Kaiser Wilhelm Platz 1               #
                  #                 D-45470 Muelheim/Ruhr               #
                  #                      Germany                        #
                  #                                                     #
                  #                  All rights reserved                #
                  #                        -***-                        #
                  #######################################################


                         Program Version 4.1.2  - RELEASE  -


 With contributions from (in alphabetic order):
   Daniel Aravena         : Magnetic Properties
   Michael Atanasov       : Ab Initio Ligand Field Theory
   Alexander A. Auer      : GIAO ZORA
   Ute Becker             : Parallelization
   Giovanni Bistoni       : ED, Open-shell LED
   Martin Brehm           : Molecular dynamics
   Dmytro Bykov           : SCF Hessian
   Vijay G. Chilkuri      : MRCI spin determinant printing
   Dipayan Datta          : RHF DLPNO-CCSD density
   Achintya Kumar Dutta   : EOM-CC, STEOM-CC
   Dmitry Ganyushin       : Spin-Orbit,Spin-Spin,Magnetic field MRCI
   Miquel Garcia          : C-PCM Hessian
   Yang Guo               : DLPNO-NEVPT2, CIM, IAO-localization
   Andreas Hansen         : Spin unrestricted coupled pair/coupled cluster methods
   Benjamin Helmich-Paris : CASSCF linear response (MC-RPA)
   Lee Huntington         : MR-EOM, pCC
   Robert Izsak           : Overlap fitted RIJCOSX, COSX-SCS-MP3, EOM
   Christian Kollmar      : KDIIS, OOCD, Brueckner-CCSD(T), CCSD density
   Simone Kossmann        : Meta GGA functionals, TD-DFT gradient, OOMP2, MP2 Hessian
   Martin Krupicka        : AUTO-CI
   Lucas Lang             : DCDCAS
   Dagmar Lenk            : GEPOL surface, SMD
   Dimitrios Liakos       : Extrapolation schemes; parallel MDCI
   Dimitrios Manganas     : ROCIS; embedding schemes
   Dimitrios Pantazis     : SARC Basis sets
   Taras Petrenko         : DFT Hessian,TD-DFT gradient, ASA, ECA, R-Raman, ABS, FL, XAS/XES, NRVS
   Peter Pinski           : DLPNO-MP2, DLPNO-MP2 Gradient
   Christoph Reimann      : Effective Core Potentials
   Marius Retegan         : Local ZFS, SOC
   Christoph Riplinger    : Optimizer, TS searches, QM/MM, DLPNO-CCSD(T), (RO)-DLPNO pert. Triples
   Tobias Risthaus        : Range-separated hybrids, TD-DFT gradient, RPA, STAB
   Michael Roemelt        : Restricted open shell CIS
   Masaaki Saitow         : Open-shell DLPNO
   Barbara Sandhoefer     : DKH picture change effects
   Avijit Sen             : IP-ROCIS
   Kantharuban Sivalingam : CASSCF convergence, NEVPT2, FIC-MRCI
   Bernardo de Souza      : ESD, SOC TD-DFT
   Georgi Stoychev        : AutoAux, RI-MP2 NMR
   Willem Van den Heuvel  : Paramagnetic NMR
   Boris Wezisla          : Elementary symmetry handling
   Frank Wennmohs         : Technical directorship


 We gratefully acknowledge several colleagues who have allowed us to
 interface, adapt or use parts of their codes:
   Stefan Grimme, W. Hujo, H. Kruse,             : VdW corrections, initial TS optimization,
                  C. Bannwarth                     DFT functionals, gCP, sTDA/sTD-DF
   Ed Valeev                                     : LibInt (2-el integral package), F12 methods
   Garnet Chan, S. Sharma, J. Yang, R. Olivares  : DMRG
   Ulf Ekstrom                                   : XCFun DFT Library
   Mihaly Kallay                                 : mrcc  (arbitrary order and MRCC methods)
   Andreas Klamt, Michael Diedenhofen            : otool_cosmo (COSMO solvation model)
   Jiri Pittner, Ondrej Demel                    : Mk-CCSD
   Frank Weinhold                                : gennbo (NPA and NBO analysis)
   Christopher J. Cramer and Donald G. Truhlar   : smd solvation model
   Lars Goerigk                                  : TD-DFT with DH, B97 family of functionals
   V. Asgeirsson, H. Jonsson                     : NEB implementation
   FAccTs GmbH                                   : IRC, NEB, NEB-TS, Multilevel


 Your calculation uses the libint2 library for the computation of 2-el integrals
 For citations please refer to: http://libint.valeyev.net

 This ORCA versions uses:
   CBLAS   interface :  Fast vector & matrix operations
   LAPACKE interface :  Fast linear algebra routines
   SCALAPACK package :  Parallel linear algebra routines


----- Orbital basis set information -----
Your calculation utilizes the basis: aug-cc-pVTZ 
    H, B-Ne : Obtained from the ccRepo (grant-hill.group.shef.ac.uk/ccrepo) Feb. 2017
              R. A. Kendall, T. H. Dunning, Jr., R. J. Harrison, J. Chem. Phys. 96, 6796 (1992)
         He : Obtained from the ccRepo (grant-hill.group.shef.ac.uk/ccrepo) Feb. 2017
              D. E. Woon, T. H. Dunning, Jr., J. Chem. Phys. 100, 2975 (1994)
  Li-Be, Na : Obtained from the ccRepo (grant-hill.group.shef.ac.uk/ccrepo) Feb. 2017
              B. P. Prascher, D. E. Woon, K. A. Peterson, T. H. Dunning, Jr., A. K. Wilson, Theor. Chem. Acc. 128, 69 (2011)
         Mg : Obtained from the Peterson Research Group Website (tyr0.chem.wsu.edu/~kipeters) Feb. 2017
              B. P. Prascher, D. E. Woon, K. A. Peterson, T. H. Dunning, Jr., A. K. Wilson, Theor. Chem. Acc. 128, 69 (2011)
      Al-Ar : Obtained from the ccRepo (grant-hill.group.shef.ac.uk/ccrepo) Feb. 2017
              D. E. Woon, T. H. Dunning, Jr., J. Chem. Phys. 98, 1358 (1993)
      Sc-Zn : Obtained from the ccRepo (grant-hill.group.shef.ac.uk/ccrepo) Feb. 2017
              N. B. Balabanov, K. A. Peterson, J. Chem. Phys. 123, 064107 (2005)
              N. B. Balabanov, K. A. Peterson, J. Chem. Phys. 125, 074110 (2006)
      Ga-Kr : Obtained from the ccRepo (grant-hill.group.shef.ac.uk/ccrepo) Feb. 2017
              A. K. Wilson, D. E. Woon, K. A. Peterson, T. H. Dunning, Jr., J. Chem. Phys. 110, 7667 (1999)
     Ag, Au : Obtained from the Peterson Research Group Website (tyr0.chem.wsu.edu/~kipeters) Feb. 2017
              K. A. Peterson, C. Puzzarini, Theor. Chem. Acc. 114, 283 (2005)

----- AuxJ basis set information -----
Your calculation utilizes the AutoAux generation procedure.
  G. L. Stoychev, A. A. Auer, F. Neese, J. Chem. Theory Comput. 13, 554 (2017)

----- AuxC basis set information -----
Your calculation utilizes the auxiliary basis: aug-cc-pVTZ/C 
  H-He, B-F, Al-Ar, Ga-Kr : Obtained from the EMSL Basis Set Exchange (bse.pnl.gov) Feb. 2017
                            F. Weigend, A. Kohn, C. Hattig, J. Chem. Phys. 116, 3175 (2002)
                   Be, Mg : Obtained from the TURBOMOLE 7.0 basis set library
                            C. Haettig, Phys. Chem. Chem. Phys. 7, 59 (2005)
                       Ne : Obtained from the EMSL Basis Set Exchange (bse.pnl.gov) Feb. 2017
                            C. Haettig, Phys. Chem. Chem. Phys. 7, 59 (2005)
                            F. Weigend, A. Kohn, C. Hattig, J. Chem. Phys. 116, 3175 (2002)
                    Sc-Zn : Obtained from the EMSL Basis Set Exchange (bse.pnl.gov) Feb. 2017
                            J. G. Hill, J. A. Platts, J. Chem. Phys. 128, 044104 (2008)

----- AuxJK basis set information -----
Your calculation utilizes the AutoAux generation procedure.
  G. L. Stoychev, A. A. Auer, F. Neese, J. Chem. Theory Comput. 13, 554 (2017)

================================================================================
                                        WARNINGS
                       Please study these warnings very carefully!
================================================================================


WARNING: your system is open-shell and RHF/RKS was chosen
  ===> : WILL SWITCH to UHF/UKS


WARNING: MDCI localization with Augmented Hessian Foster-Boys
  ===> : Switching off randomization!

WARNING: Post HF methods need fully converged wavefunctions
  ===> : Setting SCFConvForced true
         You can overwrite this default with %scf ConvForced false 


INFO   : the flag for use of LIBINT has been found!

================================================================================
                                       INPUT FILE
================================================================================
NAME = simple-grid-260-290-b3lyp_d3bj-631gd-gas-singlepoint-DLPNO_CCSD_T1-NormalPNO-augtz-gas.inp
|  1> ! aug-cc-pVTZ aug-cc-pVTZ/C DLPNO-CCSD(T1) TightSCF NormalPNO UNO MiniPrint AutoAux
|  2> %pal nproc 10 end
|  3> %maxcore 20000
|  4> %mdci
|  5>      density none
|  6> end
|  7> 
|  8> * xyz 0 6
|  9>  O      0.19298000      0.36343100     -0.87134000
| 10>  C      1.00758300      1.30168400     -0.67621200
| 11>  C      3.00003300      0.18200800      0.56333400
| 12>  C      2.68321100     -0.92896500     -0.13758700
| 13>  C      3.22982800     -1.17423400     -1.51644000
| 14> Fe     -1.48523500     -0.16392900      0.00186200
| 15> Cl     -2.04592500     -2.01750400     -0.99042500
| 16>  C      1.76938700     -2.00491000      0.36796200
| 17> Cl     -2.74090900      1.57656700     -0.42438000
| 18> Cl     -1.09199500     -0.39364600      2.15085100
| 19>  H      3.71513700      0.86799500      0.10933400
| 20>  H      2.30127300     -2.96488700      0.40101000
| 21>  H      1.36081300     -1.80478000      1.35797700
| 22>  H      0.93041100     -2.14397100     -0.32707000
| 23>  H      3.79127100     -2.11742500     -1.53211300
| 24>  H      2.41575300     -1.28976000     -2.24481700
| 25>  H      3.90069400     -0.37830600     -1.85107300
| 26>  C      2.72872600      0.40986100      2.02875400
| 27>  H      3.50695300     -0.07812300      2.63092600
| 28>  H      2.75829200      1.47336200      2.28195300
| 29>  H      1.76490200      0.01197700      2.35473400
| 30>  C      0.81084400      2.25388000      0.46332900
| 31>  H      1.69683000      2.85995000      0.65470700
| 32>  H     -0.00849100      2.91996300      0.15359200
| 33>  H      0.48672200      1.74436200      1.37067400
| 34>  C      1.83366300      1.75462000     -1.84438400
| 35>  H      1.22738300      2.51220300     -2.36254300
| 36>  H      2.76773000      2.22706000     -1.53837500
| 37>  H      2.01704600      0.93933000     -2.54192700
| 38> *
| 39> 
| 40> 
| 41>                          ****END OF INPUT****
================================================================================

                       ****************************
                       * Single Point Calculation *
                       ****************************

---------------------------------
CARTESIAN COORDINATES (ANGSTROEM)
---------------------------------
  O      0.192980    0.363431   -0.871340
  C      1.007583    1.301684   -0.676212
  C      3.000033    0.182008    0.563334
  C      2.683211   -0.928965   -0.137587
  C      3.229828   -1.174234   -1.516440
  Fe    -1.485235   -0.163929    0.001862
  Cl    -2.045925   -2.017504   -0.990425
  C      1.769387   -2.004910    0.367962
  Cl    -2.740909    1.576567   -0.424380
  Cl    -1.091995   -0.393646    2.150851
  H      3.715137    0.867995    0.109334
  H      2.301273   -2.964887    0.401010
  H      1.360813   -1.804780    1.357977
  H      0.930411   -2.143971   -0.327070
  H      3.791271   -2.117425   -1.532113
  H      2.415753   -1.289760   -2.244817
  H      3.900694   -0.378306   -1.851073
  C      2.728726    0.409861    2.028754
  H      3.506953   -0.078123    2.630926
  H      2.758292    1.473362    2.281953
  H      1.764902    0.011977    2.354734
  C      0.810844    2.253880    0.463329
  H      1.696830    2.859950    0.654707
  H     -0.008491    2.919963    0.153592
  H      0.486722    1.744362    1.370674
  C      1.833663    1.754620   -1.844384
  H      1.227383    2.512203   -2.362543
  H      2.767730    2.227060   -1.538375
  H      2.017046    0.939330   -2.541927

----------------------------
CARTESIAN COORDINATES (A.U.)
----------------------------
  NO LB      ZA    FRAG     MASS         X           Y           Z
   0 O     8.0000    0    15.999    0.364679    0.686785   -1.646594
   1 C     6.0000    0    12.011    1.904056    2.459826   -1.277855
   2 C     6.0000    0    12.011    5.669241    0.343945    1.064547
   3 C     6.0000    0    12.011    5.070534   -1.755489   -0.260002
   4 C     6.0000    0    12.011    6.103490   -2.218981   -2.865656
   5 Fe   26.0000    0    55.850   -2.806687   -0.309781    0.003519
   6 Cl   17.0000    0    35.453   -3.866238   -3.812530   -1.871632
   7 C     6.0000    0    12.011    3.343657   -3.788731    0.695347
   8 Cl   17.0000    0    35.453   -5.179567    2.979280   -0.801962
   9 Cl   17.0000    0    35.453   -2.063571   -0.743883    4.064519
  10 H     1.0000    0     1.008    7.020591    1.640273    0.206611
  11 H     1.0000    0     1.008    4.348776   -5.602824    0.757799
  12 H     1.0000    0     1.008    2.571564   -3.410540    2.566205
  13 H     1.0000    0     1.008    1.758222   -4.051518   -0.618073
  14 H     1.0000    0     1.008    7.164464   -4.001353   -2.895274
  15 H     1.0000    0     1.008    4.565112   -2.437293   -4.242089
  16 H     1.0000    0     1.008    7.371243   -0.714895   -3.498021
  17 C     6.0000    0    12.011    5.156545    0.774525    3.833789
  18 H     1.0000    0     1.008    6.627181   -0.147631    4.971730
  19 H     1.0000    0     1.008    5.212416    2.784251    4.312266
  20 H     1.0000    0     1.008    3.335181    0.022633    4.449802
  21 C     6.0000    0    12.011    1.532273    4.259216    0.875565
  22 H     1.0000    0     1.008    3.206544    5.404522    1.237217
  23 H     1.0000    0     1.008   -0.016046    5.517930    0.290247
  24 H     1.0000    0     1.008    0.919771    3.296366    2.590198
  25 C     6.0000    0    12.011    3.465121    3.315751   -3.485381
  26 H     1.0000    0     1.008    2.319418    4.747376   -4.464559
  27 H     1.0000    0     1.008    5.230252    4.208533   -2.907107
  28 H     1.0000    0     1.008    3.811665    1.775076   -4.803546



           ************************************************************
           *        Program running with 10 parallel MPI-processes    *
           *              working on a common directory               *
           ************************************************************


           ************************************************************
           *        Program running with 10 parallel MPI-processes    *
           *              working on a common directory               *
           ************************************************************

Diagonalization of the overlap matrix:
Smallest eigenvalue                        ... 9.214e-07
Time for diagonalization                   ...    0.343 sec
Threshold for overlap eigenvalues          ... 1.000e-08
Number of eigenvalues below threshold      ... 0
Time for construction of square roots      ...    0.281 sec
Total time needed                          ...    0.630 sec

-------------------
DFT GRID GENERATION
-------------------

General Integration Accuracy     IntAcc      ...  4.340
Radial Grid Type                 RadialGrid  ... Gauss-Chebyshev
Angular Grid (max. acc.)         AngularGrid ... Lebedev-110
Angular grid pruning method      GridPruning ... 3 (G Style)
Weight generation scheme         WeightScheme... Becke
Basis function cutoff            BFCut       ...    1.0000e-11
Integration weight cutoff        WCut        ...    1.0000e-14
Grids for H and He will be reduced by one unit

# of grid points (after initial pruning)     ...  36112 (   0.0 sec)
# of grid points (after weights+screening)   ...  32437 (   0.1 sec)
nearest neighbour list constructed           ...    0.0 sec
Grid point re-assignment to atoms done       ...    0.0 sec
Grid point division into batches done        ...    0.0 sec
Reduced shell lists constructed in    0.3 sec

Total number of grid points                  ...    32437
Total number of batches                      ...      521
Average number of points per batch           ...       62
Average number of grid points per atom       ...     1119
Average number of shells per batch           ...   286.39 (83.50%)
Average number of basis functions per batch  ...   848.54 (82.78%)
Average number of large shells per batch     ...   232.44 (81.16%)
Average number of large basis fcns per batch ...   689.33 (81.24%)
Maximum spatial batch extension              ...   5.00,  4.52,  7.22 au
Average spatial batch extension              ...   0.19,  0.19,  0.19 au

Time for grid setup =    0.399 sec

Loading Hartree-Fock densities                     ... done
Calculating cut-offs                               ... done
Setting up the integral package                    ... done
Initializing the effective Hamiltonian             ... done
Starting the Coulomb interaction                   ... done (   1.1 sec)
Reading the grid                                   ... done
Mapping shells                                     ... done
Starting the XC term evaluation                    ... done (   0.9 sec)
Transforming the Hamiltonian                       ... done (   0.2 sec)
Diagonalizing the Hamiltonian                      ... done (   0.4 sec)
Back transforming the eigenvectors                 ... done (   0.1 sec)
Now organizing SCF variables                       ... done
--------------
SCF ITERATIONS
--------------
ITER       Energy         Delta-E        Max-DP      RMS-DP      [F,P]     Damp
               ***  Starting incremental Fock matrix formation  ***
  0  -3027.5961228454   0.000000000000 0.16919622  0.00091182  0.2453603 0.7000
  1  -3027.8489496642  -0.252826818843 0.12763234  0.00071719  0.1528224 0.7000
                               ***Turning on DIIS***
  2  -3028.0182472388  -0.169297574515 0.09127222  0.00053065  0.1094720 0.7000
  3  -3029.6039118675  -1.585664628788 0.24319512  0.00134824  0.0817626 0.0000
  4  -3028.3134850933   1.290426774264 0.04173449  0.00021487  0.0195133 0.0000
  5  -3028.4348633582  -0.121378264882 0.03953807  0.00017032  0.0107485 0.0000
  6  -3028.4822756743  -0.047412316087 0.01969243  0.00006922  0.0052441 0.0000
  7  -3028.4954413918  -0.013165717521 0.00866801  0.00003205  0.0031653 0.0000
  8  -3028.4841972624   0.011244129418 0.00642125  0.00001837  0.0015686 0.0000
  9  -3028.4803520713   0.003845191076 0.00229501  0.00001069  0.0006910 0.0000
 10  -3028.4680696672   0.012282404117 0.00092084  0.00000323  0.0004083 0.0000
 11  -3028.4735723854  -0.005502718210 0.00027034  0.00000168  0.0000829 0.0000
 12  -3028.4715793794   0.001993005961 0.00021345  0.00000120  0.0000224 0.0000
 13  -3028.4715523613   0.000027018066 0.00048313  0.00000170  0.0000089 0.0000
 14  -3028.4715679312  -0.000015569836 0.00036010  0.00000166  0.0000056 0.0000
 15  -3028.4715229200   0.000045011140 0.00045482  0.00000175  0.0000034 0.0000
 16  -3028.4715277258  -0.000004805795 0.00046772  0.00000187  0.0000029 0.0000
 17  -3028.4715433696  -0.000015643762 0.00039390  0.00000156  0.0000019 0.0000
 18  -3028.4715270415   0.000016328117 0.00063499  0.00000271  0.0000014 0.0000
                            ***DIIS convergence achieved***

               *****************************************************
               *                     SUCCESS                       *
               *           SCF CONVERGED AFTER  19 CYCLES          *
               *****************************************************

Total Energy       :        -3028.47153244 Eh          -82408.89999 eV
  Last Energy change         ...   -5.3940e-06  Tolerance :   1.0000e-08
  Last MAX-Density change    ...    6.6691e-04  Tolerance :   1.0000e-07
             **** THE GBW FILE WAS UPDATED (simple-grid-260-290-b3lyp_d3bj-631gd-gas-singlepoint-DLPNO_CCSD_T1-NormalPNO-augtz-gas.gbw) ****
             **** DENSITY FILE WAS UPDATED (simple-grid-260-290-b3lyp_d3bj-631gd-gas-singlepoint-DLPNO_CCSD_T1-NormalPNO-augtz-gas.scfp.tmp) ****
             **** ENERGY FILE WAS UPDATED (simple-grid-260-290-b3lyp_d3bj-631gd-gas-singlepoint-DLPNO_CCSD_T1-NormalPNO-augtz-gas.en.tmp) ****
----------------------
UHF SPIN CONTAMINATION
----------------------

Expectation value of <S**2>     :     8.764948
Ideal value S*(S+1) for S=2.5   :     8.750000
Deviation                       :     0.014948

----------------
ORBITAL ENERGIES
----------------
                 SPIN UP ORBITALS
  NO   OCC          E(Eh)            E(eV) 
   0   1.0000    -261.574664     -7117.8085 
   1   1.0000    -104.793424     -2851.5740 
   2   1.0000    -104.789967     -2851.4800 
   3   1.0000    -104.787828     -2851.4218 
   4   1.0000     -32.242390      -877.3600 
   5   1.0000     -27.718851      -754.2683 
   6   1.0000     -27.717746      -754.2382 
   7   1.0000     -27.717542      -754.2327 
   8   1.0000     -20.618394      -561.0550 
   9   1.0000     -11.421280      -310.7888 
  10   1.0000     -11.277112      -306.8658 
  11   1.0000     -11.271912      -306.7243 
  12   1.0000     -11.270635      -306.6896 
  13   1.0000     -11.245636      -306.0093 
  14   1.0000     -11.245185      -305.9970 
  15   1.0000     -11.236567      -305.7625 
  16   1.0000     -11.230826      -305.6063 
  17   1.0000     -10.520142      -286.2676 
  18   1.0000     -10.516653      -286.1727 
  19   1.0000     -10.514466      -286.1132 
  20   1.0000      -7.986976      -217.3367 
  21   1.0000      -7.986218      -217.3160 
  22   1.0000      -7.986170      -217.3147 
  23   1.0000      -7.983525      -217.2428 
  24   1.0000      -7.982752      -217.2217 
  25   1.0000      -7.982699      -217.2203 
  26   1.0000      -7.981258      -217.1811 
  27   1.0000      -7.980597      -217.1631 
  28   1.0000      -7.980545      -217.1617 
  29   1.0000      -4.597288      -125.0986 
  30   1.0000      -3.210427       -87.3602 
  31   1.0000      -3.208713       -87.3135 
  32   1.0000      -3.208540       -87.3088 
  33   1.0000      -1.461806       -39.7778 
  34   1.0000      -1.128511       -30.7083 
  35   1.0000      -1.099843       -29.9282 
  36   1.0000      -1.066348       -29.0168 
  37   1.0000      -1.060474       -28.8570 
  38   1.0000      -1.057359       -28.7722 
  39   1.0000      -1.022433       -27.8218 
  40   1.0000      -1.008925       -27.4542 
  41   1.0000      -0.960168       -26.1275 
  42   1.0000      -0.941982       -25.6326 
  43   1.0000      -0.926228       -25.2040 
  44   1.0000      -0.926094       -25.2003 
  45   1.0000      -0.915522       -24.9126 
  46   1.0000      -0.914833       -24.8939 
  47   1.0000      -0.897406       -24.4197 
  48   1.0000      -0.813055       -22.1243 
  49   1.0000      -0.731439       -19.9035 
  50   1.0000      -0.710965       -19.3463 
  51   1.0000      -0.700954       -19.0739 
  52   1.0000      -0.683860       -18.6088 
  53   1.0000      -0.656457       -17.8631 
  54   1.0000      -0.622559       -16.9407 
  55   1.0000      -0.621119       -16.9015 
  56   1.0000      -0.605129       -16.4664 
  57   1.0000      -0.599369       -16.3097 
  58   1.0000      -0.585656       -15.9365 
  59   1.0000      -0.578155       -15.7324 
  60   1.0000      -0.560906       -15.2630 
  61   1.0000      -0.552861       -15.0441 
  62   1.0000      -0.546359       -14.8672 
  63   1.0000      -0.541841       -14.7442 
  64   1.0000      -0.536534       -14.5998 
  65   1.0000      -0.526648       -14.3308 
  66   1.0000      -0.502713       -13.6795 
  67   1.0000      -0.494438       -13.4543 
  68   1.0000      -0.476489       -12.9659 
  69   1.0000      -0.475518       -12.9395 
  70   1.0000      -0.446145       -12.1402 
  71   1.0000      -0.440060       -11.9746 
  72   1.0000      -0.438135       -11.9223 
  73   1.0000      -0.429603       -11.6901 
  74   1.0000      -0.428568       -11.6619 
  75   1.0000      -0.427207       -11.6249 
  76   1.0000      -0.360783        -9.8174 
  77   0.0000       0.012526         0.3409 
  78   0.0000       0.023428         0.6375 
  79   0.0000       0.024119         0.6563 
  80   0.0000       0.030538         0.8310 
  81   0.0000       0.039195         1.0665 
  82   0.0000       0.041153         1.1198 
  83   0.0000       0.042786         1.1643 
  84   0.0000       0.043270         1.1774 
  85   0.0000       0.044425         1.2089 
  86   0.0000       0.056502         1.5375 
  87   0.0000       0.057085         1.5534 
  88   0.0000       0.061391         1.6705 
  89   0.0000       0.063664         1.7324 
  90   0.0000       0.064176         1.7463 
  91   0.0000       0.067650         1.8408 
  92   0.0000       0.073315         1.9950 
  93   0.0000       0.077591         2.1114 
  94   0.0000       0.082626         2.2484 
  95   0.0000       0.090089         2.4514 
  96   0.0000       0.091765         2.4971 
  97   0.0000       0.094136         2.5616 
  98   0.0000       0.097906         2.6642 
  99   0.0000       0.102197         2.7809 
 100   0.0000       0.104025         2.8307 
 101   0.0000       0.107808         2.9336 
 102   0.0000       0.117300         3.1919 
 103   0.0000       0.120484         3.2785 
 104   0.0000       0.123260         3.3541 
 105   0.0000       0.123536         3.3616 
 106   0.0000       0.125546         3.4163 
 107   0.0000       0.127329         3.4648 
 108   0.0000       0.130866         3.5611 
 109   0.0000       0.132967         3.6182 
 110   0.0000       0.134681         3.6649 
 111   0.0000       0.138122         3.7585 
 112   0.0000       0.142075         3.8661 
 113   0.0000       0.145835         3.9684 
 114   0.0000       0.149071         4.0564 
 115   0.0000       0.151141         4.1128 
 116   0.0000       0.156095         4.2475 
 117   0.0000       0.161462         4.3936 
 118   0.0000       0.162339         4.4175 
 119   0.0000       0.165114         4.4930 
 120   0.0000       0.168738         4.5916 
 121   0.0000       0.170171         4.6306 
 122   0.0000       0.173835         4.7303 
 123   0.0000       0.181229         4.9315 
 124   0.0000       0.181428         4.9369 
 125   0.0000       0.184480         5.0199 
 126   0.0000       0.185879         5.0580 
 127   0.0000       0.190390         5.1808 
 128   0.0000       0.193933         5.2772 
 129   0.0000       0.196676         5.3518 
 130   0.0000       0.198085         5.3902 
 131   0.0000       0.200425         5.4538 
 132   0.0000       0.204012         5.5514 
 133   0.0000       0.207441         5.6447 
 134   0.0000       0.211257         5.7486 
 135   0.0000       0.216370         5.8877 
 136   0.0000       0.217780         5.9261 
 137   0.0000       0.224601         6.1117 
 138   0.0000       0.226460         6.1623 
 139   0.0000       0.231914         6.3107 
 140   0.0000       0.233387         6.3508 
 141   0.0000       0.235321         6.4034 
 142   0.0000       0.238027         6.4770 
 143   0.0000       0.241812         6.5800 
 144   0.0000       0.242215         6.5910 
 145   0.0000       0.244816         6.6618 
 146   0.0000       0.252847         6.8803 
 147   0.0000       0.255499         6.9525 
 148   0.0000       0.257266         7.0006 
 149   0.0000       0.260140         7.0788 
 150   0.0000       0.261281         7.1098 
 151   0.0000       0.266701         7.2573 
 152   0.0000       0.274756         7.4765 
 153   0.0000       0.279344         7.6013 
 154   0.0000       0.280695         7.6381 
 155   0.0000       0.286479         7.7955 
 156   0.0000       0.289498         7.8776 
 157   0.0000       0.291558         7.9337 
 158   0.0000       0.295399         8.0382 
 159   0.0000       0.305726         8.3192 
 160   0.0000       0.308310         8.3896 
 161   0.0000       0.310061         8.4372 
 162   0.0000       0.317238         8.6325 
 163   0.0000       0.318883         8.6772 
 164   0.0000       0.322991         8.7890 
 165   0.0000       0.328003         8.9254 
 166   0.0000       0.332740         9.0543 
 167   0.0000       0.335785         9.1372 
 168   0.0000       0.338571         9.2130 
 169   0.0000       0.342241         9.3129 
 170   0.0000       0.343789         9.3550 
 171   0.0000       0.353391         9.6163 
 172   0.0000       0.354290         9.6407 
 173   0.0000       0.357997         9.7416 
 174   0.0000       0.359044         9.7701 
 175   0.0000       0.366421         9.9708 
 176   0.0000       0.368149        10.0178 
 177   0.0000       0.372227        10.1288 
 178   0.0000       0.375373        10.2144 
 179   0.0000       0.375871        10.2280 
 180   0.0000       0.379836        10.3359 
 181   0.0000       0.382305        10.4030 
 182   0.0000       0.382686        10.4134 
 183   0.0000       0.383177        10.4268 
 184   0.0000       0.389908        10.6099 
 185   0.0000       0.391673        10.6580 
 186   0.0000       0.396269        10.7830 
 187   0.0000       0.400313        10.8931 
 188   0.0000       0.401710        10.9311 
 189   0.0000       0.404097        10.9960 
 190   0.0000       0.408743        11.1225 
 191   0.0000       0.412868        11.2347 
 192   0.0000       0.415799        11.3145 
 193   0.0000       0.422576        11.4989 
 194   0.0000       0.423349        11.5199 
 195   0.0000       0.432677        11.7737 
 196   0.0000       0.435831        11.8596 
 197   0.0000       0.438474        11.9315 
 198   0.0000       0.441769        12.0211 
 199   0.0000       0.443692        12.0735 
 200   0.0000       0.449657        12.2358 
 201   0.0000       0.450171        12.2498 
 202   0.0000       0.455339        12.3904 
 203   0.0000       0.455965        12.4074 
 204   0.0000       0.460114        12.5203 
 205   0.0000       0.463756        12.6195 
 206   0.0000       0.467420        12.7192 
 207   0.0000       0.472595        12.8600 
 208   0.0000       0.478486        13.0203 
 209   0.0000       0.479626        13.0513 
 210   0.0000       0.485461        13.2101 
 211   0.0000       0.486127        13.2282 
 212   0.0000       0.492316        13.3966 
 213   0.0000       0.493328        13.4241 
 214   0.0000       0.498866        13.5748 
 215   0.0000       0.500519        13.6198 
 216   0.0000       0.503065        13.6891 
 217   0.0000       0.507439        13.8081 
 218   0.0000       0.510423        13.8893 
 219   0.0000       0.513045        13.9607 
 220   0.0000       0.514867        14.0102 
 221   0.0000       0.518485        14.1087 
 222   0.0000       0.523397        14.2423 
 223   0.0000       0.524189        14.2639 
 224   0.0000       0.527938        14.3659 
 225   0.0000       0.530264        14.4292 
 226   0.0000       0.531677        14.4677 
 227   0.0000       0.533575        14.5193 
 228   0.0000       0.540361        14.7040 
 229   0.0000       0.542440        14.7605 
 230   0.0000       0.544003        14.8031 
 231   0.0000       0.548337        14.9210 
 232   0.0000       0.554187        15.0802 
 233   0.0000       0.559574        15.2268 
 234   0.0000       0.559856        15.2344 
 235   0.0000       0.564986        15.3741 
 236   0.0000       0.569904        15.5079 
 237   0.0000       0.574184        15.6244 
 238   0.0000       0.574266        15.6266 
 239   0.0000       0.580977        15.8092 
 240   0.0000       0.583575        15.8799 
 241   0.0000       0.586514        15.9598 
 242   0.0000       0.589057        16.0290 
 243   0.0000       0.592215        16.1150 
 244   0.0000       0.596203        16.2235 
 245   0.0000       0.600952        16.3527 
 246   0.0000       0.605288        16.4707 
 247   0.0000       0.611447        16.6383 
 248   0.0000       0.612852        16.6766 
 249   0.0000       0.615487        16.7483 
 250   0.0000       0.618162        16.8210 
 251   0.0000       0.625667        17.0253 
 252   0.0000       0.628968        17.1151 
 253   0.0000       0.632858        17.2209 
 254   0.0000       0.635287        17.2870 
 255   0.0000       0.641615        17.4592 
 256   0.0000       0.642791        17.4912 
 257   0.0000       0.647582        17.6216 
 258   0.0000       0.650052        17.6888 
 259   0.0000       0.652894        17.7661 
 260   0.0000       0.659362        17.9422 
 261   0.0000       0.664541        18.0831 
 262   0.0000       0.666757        18.1434 
 263   0.0000       0.670575        18.2473 
 264   0.0000       0.671700        18.2779 
 265   0.0000       0.678174        18.4541 
 266   0.0000       0.685128        18.6433 
 267   0.0000       0.687793        18.7158 
 268   0.0000       0.693694        18.8764 
 269   0.0000       0.695018        18.9124 
 270   0.0000       0.700132        19.0516 
 271   0.0000       0.705660        19.2020 
 272   0.0000       0.710446        19.3322 
 273   0.0000       0.713960        19.4278 
 274   0.0000       0.717357        19.5203 
 275   0.0000       0.719518        19.5791 
 276   0.0000       0.726916        19.7804 
 277   0.0000       0.731595        19.9077 
 278   0.0000       0.734961        19.9993 
 279   0.0000       0.738700        20.1011 
 280   0.0000       0.744423        20.2568 
 281   0.0000       0.746469        20.3125 
 282   0.0000       0.757599        20.6153 
 283   0.0000       0.761027        20.7086 
 284   0.0000       0.763213        20.7681 
 285   0.0000       0.776951        21.1419 
 286   0.0000       0.780625        21.2419 
 287   0.0000       0.785550        21.3759 
 288   0.0000       0.795105        21.6359 
 289   0.0000       0.801267        21.8036 
 290   0.0000       0.810119        22.0445 
 291   0.0000       0.815413        22.1885 
 292   0.0000       0.815830        22.1999 
 293   0.0000       0.823054        22.3964 
 294   0.0000       0.829843        22.5812 
 295   0.0000       0.835086        22.7239 
 296   0.0000       0.840866        22.8811 
 297   0.0000       0.845140        22.9974 
 298   0.0000       0.850819        23.1520 
 299   0.0000       0.855364        23.2756 
 300   0.0000       0.859267        23.3818 
 301   0.0000       0.860673        23.4201 
 302   0.0000       0.865894        23.5622 
 303   0.0000       0.873589        23.7716 
 304   0.0000       0.876650        23.8549 
 305   0.0000       0.884389        24.0654 
 306   0.0000       0.884806        24.0768 
 307   0.0000       0.889073        24.1929 
 308   0.0000       0.897991        24.4356 
 309   0.0000       0.905960        24.6524 
 310   0.0000       0.908599        24.7242 
 311   0.0000       0.915410        24.9096 
 312   0.0000       0.915471        24.9112 
 313   0.0000       0.916820        24.9480 
 314   0.0000       0.921262        25.0688 
 315   0.0000       0.925742        25.1907 
 316   0.0000       0.931424        25.3453 
 317   0.0000       0.934140        25.4193 
 318   0.0000       0.938621        25.5412 
 319   0.0000       0.939973        25.5780 
 320   0.0000       0.943748        25.6807 
 321   0.0000       0.947933        25.7946 
 322   0.0000       0.949798        25.8453 
 323   0.0000       0.953263        25.9396 
 324   0.0000       0.958143        26.0724 
 325   0.0000       0.958299        26.0766 
 326   0.0000       0.967939        26.3390 
 327   0.0000       0.969865        26.3914 
 328   0.0000       0.972878        26.4733 
 329   0.0000       0.973628        26.4938 
 330   0.0000       0.976270        26.5657 
 331   0.0000       0.980379        26.6775 
 332   0.0000       0.985426        26.8148 
 333   0.0000       0.985935        26.8287 
 334   0.0000       0.993085        27.0232 
 335   0.0000       0.997165        27.1342 
 336   0.0000       1.004244        27.3269 
 337   0.0000       1.005481        27.3605 
 338   0.0000       1.009326        27.4652 
 339   0.0000       1.012501        27.5515 
 340   0.0000       1.016266        27.6540 
 341   0.0000       1.019899        27.7529 
 342   0.0000       1.021170        27.7875 
 343   0.0000       1.026182        27.9238 
 344   0.0000       1.028727        27.9931 
 345   0.0000       1.030161        28.0321 
 346   0.0000       1.037613        28.2349 
 347   0.0000       1.040507        28.3136 
 348   0.0000       1.043356        28.3911 
 349   0.0000       1.046863        28.4866 
 350   0.0000       1.050331        28.5810 
 351   0.0000       1.053536        28.6682 
 352   0.0000       1.058357        28.7994 
 353   0.0000       1.062830        28.9211 
 354   0.0000       1.068583        29.0776 
 355   0.0000       1.071088        29.1458 
 356   0.0000       1.073861        29.2212 
 357   0.0000       1.081252        29.4224 
 358   0.0000       1.084354        29.5068 
 359   0.0000       1.088159        29.6103 
 360   0.0000       1.088444        29.6181 
 361   0.0000       1.094635        29.7865 
 362   0.0000       1.098325        29.8869 
 363   0.0000       1.102411        29.9981 
 364   0.0000       1.103279        30.0217 
 365   0.0000       1.109009        30.1777 
 366   0.0000       1.113837        30.3090 
 367   0.0000       1.115619        30.3575 
 368   0.0000       1.120244        30.4834 
 369   0.0000       1.124888        30.6098 
 370   0.0000       1.131433        30.7879 
 371   0.0000       1.133525        30.8448 
 372   0.0000       1.140488        31.0342 
 373   0.0000       1.143108        31.1055 
 374   0.0000       1.145346        31.1664 
 375   0.0000       1.155256        31.4361 
 376   0.0000       1.155564        31.4445 
 377   0.0000       1.159044        31.5392 
 378   0.0000       1.166307        31.7368 
 379   0.0000       1.173724        31.9386 
 380   0.0000       1.177027        32.0285 
 381   0.0000       1.180749        32.1298 
 382   0.0000       1.185736        32.2655 
 383   0.0000       1.189218        32.3603 
 384   0.0000       1.196320        32.5535 
 385   0.0000       1.199943        32.6521 
 386   0.0000       1.203196        32.7406 
 387   0.0000       1.208205        32.8769 
 388   0.0000       1.212758        33.0008 
 389   0.0000       1.219570        33.1862 
 390   0.0000       1.222950        33.2782 
 391   0.0000       1.228883        33.4396 
 392   0.0000       1.231777        33.5184 
 393   0.0000       1.236004        33.6334 
 394   0.0000       1.241408        33.7804 
 395   0.0000       1.243761        33.8445 
 396   0.0000       1.248861        33.9832 
 397   0.0000       1.256886        34.2016 
 398   0.0000       1.258575        34.2476 
 399   0.0000       1.263791        34.3895 
 400   0.0000       1.267569        34.4923 
 401   0.0000       1.269955        34.5572 
 402   0.0000       1.276306        34.7301 
 403   0.0000       1.287825        35.0435 
 404   0.0000       1.287870        35.0447 
 405   0.0000       1.295653        35.2565 
 406   0.0000       1.297700        35.3122 
 407   0.0000       1.302937        35.4547 
 408   0.0000       1.307799        35.5870 
 409   0.0000       1.309837        35.6425 
 410   0.0000       1.315377        35.7932 
 411   0.0000       1.320362        35.9289 
 412   0.0000       1.321767        35.9671 
 413   0.0000       1.325272        36.0625 
 414   0.0000       1.337322        36.3904 
 415   0.0000       1.338822        36.4312 
 416   0.0000       1.344022        36.5727 
 417   0.0000       1.354520        36.8583 
 418   0.0000       1.357090        36.9283 
 419   0.0000       1.367865        37.2215 
 420   0.0000       1.370069        37.2815 
 421   0.0000       1.379265        37.5317 
 422   0.0000       1.381220        37.5849 
 423   0.0000       1.383813        37.6555 
 424   0.0000       1.385731        37.7077 
 425   0.0000       1.392124        37.8816 
 426   0.0000       1.397004        38.0144 
 427   0.0000       1.399036        38.0697 
 428   0.0000       1.407454        38.2988 
 429   0.0000       1.413762        38.4704 
 430   0.0000       1.420329        38.6491 
 431   0.0000       1.423149        38.7259 
 432   0.0000       1.431118        38.9427 
 433   0.0000       1.435013        39.0487 
 434   0.0000       1.438981        39.1567 
 435   0.0000       1.455657        39.6104 
 436   0.0000       1.458101        39.6770 
 437   0.0000       1.460379        39.7389 
 438   0.0000       1.468605        39.9628 
 439   0.0000       1.469639        39.9909 
 440   0.0000       1.474209        40.1153 
 441   0.0000       1.476643        40.1815 
 442   0.0000       1.483055        40.3560 
 443   0.0000       1.490092        40.5475 
 444   0.0000       1.492509        40.6132 
 445   0.0000       1.493748        40.6469 
 446   0.0000       1.498857        40.7860 
 447   0.0000       1.503925        40.9239 
 448   0.0000       1.511014        41.1168 
 449   0.0000       1.517052        41.2811 
 450   0.0000       1.520584        41.3772 
 451   0.0000       1.525416        41.5087 
 452   0.0000       1.535393        41.7802 
 453   0.0000       1.536707        41.8159 
 454   0.0000       1.541049        41.9341 
 455   0.0000       1.546742        42.0890 
 456   0.0000       1.557482        42.3812 
 457   0.0000       1.565361        42.5956 
 458   0.0000       1.567977        42.6668 
 459   0.0000       1.568714        42.6869 
 460   0.0000       1.572814        42.7984 
 461   0.0000       1.581669        43.0394 
 462   0.0000       1.587245        43.1911 
 463   0.0000       1.592866        43.3441 
 464   0.0000       1.597100        43.4593 
 465   0.0000       1.600766        43.5591 
 466   0.0000       1.605907        43.6990 
 467   0.0000       1.611156        43.8418 
 468   0.0000       1.615661        43.9644 
 469   0.0000       1.620669        44.1006 
 470   0.0000       1.626461        44.2583 
 471   0.0000       1.634215        44.4692 
 472   0.0000       1.644221        44.7415 
 473   0.0000       1.647258        44.8242 
 474   0.0000       1.653173        44.9851 
 475   0.0000       1.656413        45.0733 
 476   0.0000       1.665469        45.3197 
 477   0.0000       1.668501        45.4022 
 478   0.0000       1.676553        45.6213 
 479   0.0000       1.680373        45.7253 
 480   0.0000       1.687052        45.9070 
 481   0.0000       1.692580        46.0574 
 482   0.0000       1.700467        46.2721 
 483   0.0000       1.704521        46.3824 
 484   0.0000       1.706105        46.4255 
 485   0.0000       1.712770        46.6069 
 486   0.0000       1.718807        46.7711 
 487   0.0000       1.721167        46.8353 
 488   0.0000       1.730297        47.0838 
 489   0.0000       1.732322        47.1389 
 490   0.0000       1.734639        47.2019 
 491   0.0000       1.748064        47.5672 
 492   0.0000       1.751183        47.6521 
 493   0.0000       1.754003        47.7288 
 494   0.0000       1.757558        47.8256 
 495   0.0000       1.761960        47.9454 
 496   0.0000       1.763520        47.9878 
 497   0.0000       1.767644        48.1000 
 498   0.0000       1.775482        48.3133 
 499   0.0000       1.780152        48.4404 
 500   0.0000       1.790273        48.7158 
 501   0.0000       1.796525        48.8859 
 502   0.0000       1.801757        49.0283 
 503   0.0000       1.804398        49.1002 
 504   0.0000       1.808916        49.2231 
 505   0.0000       1.815427        49.4003 
 506   0.0000       1.819909        49.5222 
 507   0.0000       1.826090        49.6904 
 508   0.0000       1.832180        49.8561 
 509   0.0000       1.835309        49.9413 
 510   0.0000       1.839309        50.0501 
 511   0.0000       1.849761        50.3346 
 512   0.0000       1.852774        50.4165 
 513   0.0000       1.854791        50.4714 
 514   0.0000       1.864145        50.7260 
 515   0.0000       1.867023        50.8043 
 516   0.0000       1.871065        50.9143 
 517   0.0000       1.880348        51.1669 
 518   0.0000       1.882295        51.2199 
 519   0.0000       1.886171        51.3253 
 520   0.0000       1.891330        51.4657 
 521   0.0000       1.900588        51.7176 
 522   0.0000       1.907119        51.8953 
 523   0.0000       1.912004        52.0283 
 524   0.0000       1.917232        52.1705 
 525   0.0000       1.919268        52.2259 
 526   0.0000       1.924586        52.3706 
 527   0.0000       1.930104        52.5208 
 528   0.0000       1.932156        52.5766 
 529   0.0000       1.938260        52.7427 
 530   0.0000       1.941475        52.8302 
 531   0.0000       1.948300        53.0159 
 532   0.0000       1.954191        53.1762 
 533   0.0000       1.958988        53.3068 
 534   0.0000       1.964615        53.4599 
 535   0.0000       1.971904        53.6582 
 536   0.0000       1.981055        53.9072 
 537   0.0000       1.988219        54.1022 
 538   0.0000       1.991084        54.1801 
 539   0.0000       1.996992        54.3409 
 540   0.0000       2.007316        54.6218 
 541   0.0000       2.014566        54.8191 
 542   0.0000       2.016274        54.8656 
 543   0.0000       2.029298        55.2200 
 544   0.0000       2.030341        55.2484 
 545   0.0000       2.036023        55.4030 
 546   0.0000       2.042169        55.5703 
 547   0.0000       2.048685        55.7476 
 548   0.0000       2.054484        55.9053 
 549   0.0000       2.061669        56.1009 
 550   0.0000       2.068460        56.2857 
 551   0.0000       2.073929        56.4345 
 552   0.0000       2.091889        56.9232 
 553   0.0000       2.094024        56.9813 
 554   0.0000       2.102473        57.2112 
 555   0.0000       2.109107        57.3917 
 556   0.0000       2.112386        57.4809 
 557   0.0000       2.120425        57.6997 
 558   0.0000       2.127352        57.8882 
 559   0.0000       2.131250        57.9943 
 560   0.0000       2.136197        58.1289 
 561   0.0000       2.144709        58.3605 
 562   0.0000       2.155961        58.6667 
 563   0.0000       2.158047        58.7234 
 564   0.0000       2.161760        58.8245 
 565   0.0000       2.168707        59.0135 
 566   0.0000       2.175024        59.1854 
 567   0.0000       2.187556        59.5264 
 568   0.0000       2.194837        59.7245 
 569   0.0000       2.199060        59.8395 
 570   0.0000       2.204141        59.9777 
 571   0.0000       2.207051        60.0569 
 572   0.0000       2.219085        60.3844 
 573   0.0000       2.227889        60.6240 
 574   0.0000       2.229977        60.6808 
 575   0.0000       2.237507        60.8857 
 576   0.0000       2.251619        61.2697 
 577   0.0000       2.255355        61.3713 
 578   0.0000       2.260413        61.5090 
 579   0.0000       2.261453        61.5373 
 580   0.0000       2.274926        61.9039 
 581   0.0000       2.280409        62.0531 
 582   0.0000       2.294524        62.4372 
 583   0.0000       2.299117        62.5621 
 584   0.0000       2.313972        62.9664 
 585   0.0000       2.320370        63.1405 
 586   0.0000       2.321892        63.1819 
 587   0.0000       2.330320        63.4112 
 588   0.0000       2.334874        63.5351 
 589   0.0000       2.350128        63.9502 
 590   0.0000       2.351750        63.9944 
 591   0.0000       2.356121        64.1133 
 592   0.0000       2.373757        64.5932 
 593   0.0000       2.381815        64.8125 
 594   0.0000       2.384435        64.8838 
 595   0.0000       2.397253        65.2326 
 596   0.0000       2.400578        65.3230 
 597   0.0000       2.402042        65.3629 
 598   0.0000       2.407486        65.5110 
 599   0.0000       2.420020        65.8521 
 600   0.0000       2.426157        66.0191 
 601   0.0000       2.440292        66.4037 
 602   0.0000       2.442745        66.4705 
 603   0.0000       2.447513        66.6002 
 604   0.0000       2.461573        66.9828 
 605   0.0000       2.470851        67.2353 
 606   0.0000       2.485522        67.6345 
 607   0.0000       2.494510        67.8791 
 608   0.0000       2.496808        67.9416 
 609   0.0000       2.513786        68.4036 
 610   0.0000       2.527005        68.7633 
 611   0.0000       2.538767        69.0834 
 612   0.0000       2.546688        69.2989 
 613   0.0000       2.557372        69.5896 
 614   0.0000       2.569458        69.9185 
 615   0.0000       2.582274        70.2673 
 616   0.0000       2.597029        70.6688 
 617   0.0000       2.603288        70.8391 
 618   0.0000       2.631171        71.5978 
 619   0.0000       2.637728        71.7762 
 620   0.0000       2.648492        72.0691 
 621   0.0000       2.653147        72.1958 
 622   0.0000       2.665016        72.5188 
 623   0.0000       2.667624        72.5897 
 624   0.0000       2.671018        72.6821 
 625   0.0000       2.688418        73.1556 
 626   0.0000       2.690314        73.2072 
 627   0.0000       2.697615        73.4058 
 628   0.0000       2.713386        73.8350 
 629   0.0000       2.723964        74.1228 
 630   0.0000       2.725974        74.1775 
 631   0.0000       2.740851        74.5823 
 632   0.0000       2.747082        74.7519 
 633   0.0000       2.761390        75.1413 
 634   0.0000       2.766864        75.2902 
 635   0.0000       2.777812        75.5881 
 636   0.0000       2.787715        75.8576 
 637   0.0000       2.789519        75.9067 
 638   0.0000       2.796431        76.0948 
 639   0.0000       2.821545        76.7782 
 640   0.0000       2.833719        77.1094 
 641   0.0000       2.846365        77.4535 
 642   0.0000       2.855750        77.7089 
 643   0.0000       2.861543        77.8665 
 644   0.0000       2.871139        78.1277 
 645   0.0000       2.890332        78.6499 
 646   0.0000       2.898913        78.8834 
 647   0.0000       2.909294        79.1659 
 648   0.0000       2.918071        79.4048 
 649   0.0000       2.933613        79.8277 
 650   0.0000       2.941619        80.0455 
 651   0.0000       2.955166        80.4141 
 652   0.0000       2.974202        80.9322 
 653   0.0000       2.986164        81.2576 
 654   0.0000       3.010175        81.9110 
 655   0.0000       3.019003        82.1512 
 656   0.0000       3.029398        82.4341 
 657   0.0000       3.050657        83.0126 
 658   0.0000       3.066977        83.4567 
 659   0.0000       3.084752        83.9404 
 660   0.0000       3.089862        84.0794 
 661   0.0000       3.102793        84.4313 
 662   0.0000       3.119166        84.8768 
 663   0.0000       3.132065        85.2278 
 664   0.0000       3.150086        85.7182 
 665   0.0000       3.161969        86.0416 
 666   0.0000       3.174632        86.3861 
 667   0.0000       3.183624        86.6308 
 668   0.0000       3.203442        87.1701 
 669   0.0000       3.205491        87.2258 
 670   0.0000       3.215231        87.4909 
 671   0.0000       3.222612        87.6917 
 672   0.0000       3.229098        87.8682 
 673   0.0000       3.248027        88.3833 
 674   0.0000       3.250985        88.4638 
 675   0.0000       3.263359        88.8005 
 676   0.0000       3.268687        88.9455 
 677   0.0000       3.277497        89.1852 
 678   0.0000       3.283490        89.3483 
 679   0.0000       3.293402        89.6180 
 680   0.0000       3.301115        89.8279 
 681   0.0000       3.314677        90.1969 
 682   0.0000       3.330748        90.6343 
 683   0.0000       3.332876        90.6922 
 684   0.0000       3.338507        90.8454 
 685   0.0000       3.349837        91.1537 
 686   0.0000       3.366222        91.5996 
 687   0.0000       3.381238        92.0082 
 688   0.0000       3.393416        92.3396 
 689   0.0000       3.401930        92.5712 
 690   0.0000       3.420843        93.0859 
 691   0.0000       3.426386        93.2367 
 692   0.0000       3.430880        93.3590 
 693   0.0000       3.437624        93.5425 
 694   0.0000       3.444132        93.7196 
 695   0.0000       3.456743        94.0628 
 696   0.0000       3.467627        94.3589 
 697   0.0000       3.478148        94.6452 
 698   0.0000       3.481942        94.7485 
 699   0.0000       3.486980        94.8855 
 700   0.0000       3.493547        95.0642 
 701   0.0000       3.503706        95.3407 
 702   0.0000       3.511747        95.5595 
 703   0.0000       3.518887        95.7538 
 704   0.0000       3.526860        95.9707 
 705   0.0000       3.533963        96.1640 
 706   0.0000       3.545320        96.4731 
 707   0.0000       3.556201        96.7692 
 708   0.0000       3.559553        96.8604 
 709   0.0000       3.566367        97.0458 
 710   0.0000       3.573930        97.2516 
 711   0.0000       3.582423        97.4827 
 712   0.0000       3.589779        97.6828 
 713   0.0000       3.599635        97.9511 
 714   0.0000       3.609228        98.2121 
 715   0.0000       3.613510        98.3286 
 716   0.0000       3.630476        98.7903 
 717   0.0000       3.638499        99.0086 
 718   0.0000       3.649938        99.3199 
 719   0.0000       3.653494        99.4166 
 720   0.0000       3.663209        99.6810 
 721   0.0000       3.669514        99.8525 
 722   0.0000       3.678136       100.0872 
 723   0.0000       3.680182       100.1429 
 724   0.0000       3.688456       100.3680 
 725   0.0000       3.697069       100.6024 
 726   0.0000       3.706568       100.8608 
 727   0.0000       3.711698       101.0004 
 728   0.0000       3.717966       101.1710 
 729   0.0000       3.732404       101.5639 
 730   0.0000       3.740332       101.7796 
 731   0.0000       3.746570       101.9493 
 732   0.0000       3.754149       102.1556 
 733   0.0000       3.758201       102.2658 
 734   0.0000       3.764045       102.4249 
 735   0.0000       3.772172       102.6460 
 736   0.0000       3.781236       102.8927 
 737   0.0000       3.788872       103.1004 
 738   0.0000       3.793019       103.2133 
 739   0.0000       3.803586       103.5008 
 740   0.0000       3.809247       103.6549 
 741   0.0000       3.811575       103.7182 
 742   0.0000       3.817576       103.8815 
 743   0.0000       3.822226       104.0081 
 744   0.0000       3.828351       104.1747 
 745   0.0000       3.834806       104.3504 
 746   0.0000       3.851944       104.8167 
 747   0.0000       3.866811       105.2213 
 748   0.0000       3.869841       105.3037 
 749   0.0000       3.872388       105.3730 
 750   0.0000       3.877218       105.5045 
 751   0.0000       3.887778       105.7918 
 752   0.0000       3.891275       105.8870 
 753   0.0000       3.903388       106.2166 
 754   0.0000       3.905522       106.2747 
 755   0.0000       3.914193       106.5106 
 756   0.0000       3.917609       106.6036 
 757   0.0000       3.927043       106.8603 
 758   0.0000       3.929585       106.9295 
 759   0.0000       3.944169       107.3263 
 760   0.0000       3.950643       107.5025 
 761   0.0000       3.954974       107.6203 
 762   0.0000       3.960380       107.7674 
 763   0.0000       3.967625       107.9646 
 764   0.0000       3.977082       108.2219 
 765   0.0000       3.986724       108.4843 
 766   0.0000       3.990608       108.5900 
 767   0.0000       3.996755       108.7572 
 768   0.0000       4.007621       109.0529 
 769   0.0000       4.009267       109.0977 
 770   0.0000       4.015536       109.2683 
 771   0.0000       4.021303       109.4252 
 772   0.0000       4.034735       109.7907 
 773   0.0000       4.037988       109.8792 
 774   0.0000       4.050480       110.2192 
 775   0.0000       4.055641       110.3596 
 776   0.0000       4.057514       110.4106 
 777   0.0000       4.068403       110.7069 
 778   0.0000       4.074173       110.8639 
 779   0.0000       4.089816       111.2895 
 780   0.0000       4.092251       111.3558 
 781   0.0000       4.099982       111.5662 
 782   0.0000       4.115479       111.9879 
 783   0.0000       4.117530       112.0437 
 784   0.0000       4.122388       112.1759 
 785   0.0000       4.125890       112.2712 
 786   0.0000       4.136090       112.5487 
 787   0.0000       4.143449       112.7490 
 788   0.0000       4.153226       113.0150 
 789   0.0000       4.162733       113.2737 
 790   0.0000       4.171262       113.5058 
 791   0.0000       4.184004       113.8525 
 792   0.0000       4.185910       113.9044 
 793   0.0000       4.190997       114.0428 
 794   0.0000       4.203774       114.3905 
 795   0.0000       4.218214       114.7834 
 796   0.0000       4.225424       114.9796 
 797   0.0000       4.229310       115.0854 
 798   0.0000       4.235483       115.2533 
 799   0.0000       4.247546       115.5816 
 800   0.0000       4.263195       116.0074 
 801   0.0000       4.266308       116.0921 
 802   0.0000       4.277253       116.3900 
 803   0.0000       4.290055       116.7383 
 804   0.0000       4.301674       117.0545 
 805   0.0000       4.308921       117.2517 
 806   0.0000       4.314183       117.3949 
 807   0.0000       4.322794       117.6292 
 808   0.0000       4.334543       117.9489 
 809   0.0000       4.341797       118.1463 
 810   0.0000       4.350878       118.3934 
 811   0.0000       4.359052       118.6158 
 812   0.0000       4.365415       118.7890 
 813   0.0000       4.378033       119.1323 
 814   0.0000       4.392454       119.5247 
 815   0.0000       4.397485       119.6616 
 816   0.0000       4.409150       119.9791 
 817   0.0000       4.417791       120.2142 
 818   0.0000       4.429276       120.5267 
 819   0.0000       4.435262       120.6896 
 820   0.0000       4.450984       121.1174 
 821   0.0000       4.456857       121.2772 
 822   0.0000       4.467319       121.5619 
 823   0.0000       4.474546       121.7586 
 824   0.0000       4.491527       122.2207 
 825   0.0000       4.495814       122.3373 
 826   0.0000       4.500759       122.4719 
 827   0.0000       4.508208       122.6746 
 828   0.0000       4.513369       122.8150 
 829   0.0000       4.527097       123.1886 
 830   0.0000       4.532324       123.3308 
 831   0.0000       4.543024       123.6220 
 832   0.0000       4.547614       123.7469 
 833   0.0000       4.556768       123.9960 
 834   0.0000       4.563562       124.1808 
 835   0.0000       4.592300       124.9628 
 836   0.0000       4.598274       125.1254 
 837   0.0000       4.606416       125.3470 
 838   0.0000       4.619814       125.7115 
 839   0.0000       4.632511       126.0570 
 840   0.0000       4.638390       126.2170 
 841   0.0000       4.661792       126.8538 
 842   0.0000       4.666701       126.9874 
 843   0.0000       4.668708       127.0420 
 844   0.0000       4.682254       127.4106 
 845   0.0000       4.696606       127.8011 
 846   0.0000       4.704390       128.0130 
 847   0.0000       4.710031       128.1665 
 848   0.0000       4.715631       128.3189 
 849   0.0000       4.724917       128.5715 
 850   0.0000       4.746563       129.1606 
 851   0.0000       4.765837       129.6850 
 852   0.0000       4.769109       129.7740 
 853   0.0000       4.787905       130.2855 
 854   0.0000       4.809336       130.8687 
 855   0.0000       4.815691       131.0416 
 856   0.0000       4.821972       131.2125 
 857   0.0000       4.829991       131.4307 
 858   0.0000       4.834755       131.5604 
 859   0.0000       4.864472       132.3690 
 860   0.0000       4.869934       132.5176 
 861   0.0000       4.889045       133.0377 
 862   0.0000       4.895181       133.2046 
 863   0.0000       4.907408       133.5374 
 864   0.0000       4.910589       133.6239 
 865   0.0000       4.925317       134.0247 
 866   0.0000       4.930082       134.1544 
 867   0.0000       4.947924       134.6399 
 868   0.0000       4.963664       135.0682 
 869   0.0000       4.971032       135.2687 
 870   0.0000       4.977995       135.4581 
 871   0.0000       4.990353       135.7944 
 872   0.0000       4.995213       135.9267 
 873   0.0000       5.007500       136.2610 
 874   0.0000       5.012669       136.4017 
 875   0.0000       5.028022       136.8194 
 876   0.0000       5.041500       137.1862 
 877   0.0000       5.048219       137.3690 
 878   0.0000       5.060780       137.7108 
 879   0.0000       5.063667       137.7894 
 880   0.0000       5.085270       138.3772 
 881   0.0000       5.110543       139.0649 
 882   0.0000       5.115719       139.2058 
 883   0.0000       5.118552       139.2829 
 884   0.0000       5.125138       139.4621 
 885   0.0000       5.157405       140.3401 
 886   0.0000       5.164209       140.5253 
 887   0.0000       5.179468       140.9405 
 888   0.0000       5.187172       141.1501 
 889   0.0000       5.204131       141.6116 
 890   0.0000       5.217032       141.9627 
 891   0.0000       5.220375       142.0536 
 892   0.0000       5.231038       142.3438 
 893   0.0000       5.254543       142.9834 
 894   0.0000       5.259252       143.1115 
 895   0.0000       5.268305       143.3579 
 896   0.0000       5.277394       143.6052 
 897   0.0000       5.284083       143.7872 
 898   0.0000       5.300334       144.2294 
 899   0.0000       5.312010       144.5471 
 900   0.0000       5.330028       145.0374 
 901   0.0000       5.348243       145.5331 
 902   0.0000       5.360789       145.8745 
 903   0.0000       5.370772       146.1461 
 904   0.0000       5.390428       146.6810 
 905   0.0000       5.401481       146.9818 
 906   0.0000       5.413296       147.3033 
 907   0.0000       5.430068       147.7597 
 908   0.0000       5.437436       147.9602 
 909   0.0000       5.439412       148.0139 
 910   0.0000       5.451583       148.3451 
 911   0.0000       5.457406       148.5036 
 912   0.0000       5.465028       148.7110 
 913   0.0000       5.482755       149.1934 
 914   0.0000       5.505426       149.8103 
 915   0.0000       5.520182       150.2118 
 916   0.0000       5.524865       150.3392 
 917   0.0000       5.546905       150.9389 
 918   0.0000       5.560482       151.3084 
 919   0.0000       5.565972       151.4578 
 920   0.0000       5.580348       151.8490 
 921   0.0000       5.587404       152.0410 
 922   0.0000       5.594341       152.2298 
 923   0.0000       5.614536       152.7793 
 924   0.0000       5.620498       152.9415 
 925   0.0000       5.634085       153.3113 
 926   0.0000       5.647052       153.6641 
 927   0.0000       5.654627       153.8702 
 928   0.0000       5.663181       154.1030 
 929   0.0000       5.676577       154.4675 
 930   0.0000       5.706520       155.2823 
 931   0.0000       5.707978       155.3220 
 932   0.0000       5.715353       155.5226 
 933   0.0000       5.728486       155.8800 
 934   0.0000       5.738164       156.1434 
 935   0.0000       5.753015       156.5475 
 936   0.0000       5.759356       156.7200 
 937   0.0000       5.776969       157.1993 
 938   0.0000       5.792075       157.6104 
 939   0.0000       5.801979       157.8799 
 940   0.0000       5.825527       158.5207 
 941   0.0000       5.859859       159.4549 
 942   0.0000       5.866872       159.6457 
 943   0.0000       5.899315       160.5285 
 944   0.0000       5.929287       161.3441 
 945   0.0000       5.987454       162.9269 
 946   0.0000       6.057279       164.8269 
 947   0.0000       6.067687       165.1101 
 948   0.0000       6.094483       165.8393 
 949   0.0000       6.109152       166.2385 
 950   0.0000       6.146990       167.2681 
 951   0.0000       6.150027       167.3507 
 952   0.0000       6.182194       168.2261 
 953   0.0000       6.197216       168.6348 
 954   0.0000       6.210774       169.0038 
 955   0.0000       6.224367       169.3736 
 956   0.0000       6.241890       169.8505 
 957   0.0000       6.250125       170.0746 
 958   0.0000       6.263366       170.4349 
 959   0.0000       6.271708       170.6619 
 960   0.0000       6.288862       171.1286 
 961   0.0000       6.307801       171.6440 
 962   0.0000       6.316123       171.8705 
 963   0.0000       6.333721       172.3493 
 964   0.0000       6.349748       172.7854 
 965   0.0000       6.358251       173.0168 
 966   0.0000       6.383780       173.7115 
 967   0.0000       6.396360       174.0538 
 968   0.0000       6.456259       175.6837 
 969   0.0000       6.510613       177.1628 
 970   0.0000       6.578308       179.0049 
 971   0.0000       6.627274       180.3373 
 972   0.0000       6.814824       185.4408 
 973   0.0000       6.829251       185.8334 
 974   0.0000       6.844649       186.2524 
 975   0.0000       6.880689       187.2331 
 976   0.0000       6.908621       187.9931 
 977   0.0000       6.932546       188.6442 
 978   0.0000       6.947933       189.0629 
 979   0.0000       6.977105       189.8567 
 980   0.0000       7.001512       190.5208 
 981   0.0000       7.009465       190.7373 
 982   0.0000       7.023440       191.1175 
 983   0.0000       7.047179       191.7635 
 984   0.0000       7.057728       192.0505 
 985   0.0000       7.114323       193.5906 
 986   0.0000       7.222859       196.5440 
 987   0.0000       7.292285       198.4332 
 988   0.0000       7.318638       199.1503 
 989   0.0000       7.374633       200.6740 
 990   0.0000       7.498715       204.0504 
 991   0.0000       7.556979       205.6359 
 992   0.0000       7.605256       206.9495 
 993   0.0000       7.687632       209.1911 
 994   0.0000       7.748913       210.8586 
 995   0.0000       7.839142       213.3139 
 996   0.0000       7.902516       215.0384 
 997   0.0000       7.988042       217.3657 
 998   0.0000       8.249701       224.4858 
 999   0.0000       9.400770       255.8080 
 1000   0.0000       9.408950       256.0305 
 1001   0.0000       9.428221       256.5549 
 1002   0.0000       9.442868       256.9535 
 1003   0.0000       9.452399       257.2128 
 1004   0.0000       9.479781       257.9579 
 1005   0.0000       9.653889       262.6957 
 1006   0.0000      10.084531       274.4141 
 1007   0.0000      10.085799       274.4485 
 1008   0.0000      10.099631       274.8249 
 1009   0.0000      10.199631       277.5461 
 1010   0.0000      10.207584       277.7625 
 1011   0.0000      10.236355       278.5454 
 1012   0.0000      10.328923       281.0643 
 1013   0.0000      10.377089       282.3749 
 1014   0.0000      10.439711       284.0790 
 1015   0.0000      10.953614       298.0630 
 1016   0.0000      16.682455       453.9527 
 1017   0.0000      17.521686       476.7893 
 1018   0.0000      18.114428       492.9186 
 1019   0.0000      18.401100       500.7194 
 1020   0.0000      18.508814       503.6504 
 1021   0.0000      18.668350       507.9916 
 1022   0.0000      20.365307       554.1682 
 1023   0.0000      21.193595       576.7070 
 1024   0.0000      21.576355       587.1225 

                 SPIN DOWN ORBITALS
  NO   OCC          E(Eh)            E(eV) 
   0   1.0000    -261.571084     -7117.7110 
   1   1.0000    -104.791942     -2851.5337 
   2   1.0000    -104.788413     -2851.4377 
   3   1.0000    -104.786269     -2851.3793 
   4   1.0000     -32.080391      -872.9518 
   5   1.0000     -27.558311      -749.8998 
   6   1.0000     -27.558236      -749.8977 
   7   1.0000     -27.558125      -749.8947 
   8   1.0000     -20.614830      -560.9580 
   9   1.0000     -11.421202      -310.7867 
  10   1.0000     -11.277003      -306.8628 
  11   1.0000     -11.271901      -306.7240 
  12   1.0000     -11.270643      -306.6898 
  13   1.0000     -11.245600      -306.0083 
  14   1.0000     -11.245184      -305.9970 
  15   1.0000     -11.236568      -305.7626 
  16   1.0000     -11.230839      -305.6067 
  17   1.0000     -10.518559      -286.2245 
  18   1.0000     -10.514995      -286.1276 
  19   1.0000     -10.512810      -286.0681 
  20   1.0000      -7.984476      -217.2686 
  21   1.0000      -7.983748      -217.2488 
  22   1.0000      -7.983709      -217.2478 
  23   1.0000      -7.980884      -217.1709 
  24   1.0000      -7.980185      -217.1519 
  25   1.0000      -7.980096      -217.1494 
  26   1.0000      -7.978798      -217.1141 
  27   1.0000      -7.977913      -217.0901 
  28   1.0000      -7.977829      -217.0878 
  29   1.0000      -4.155187      -113.0684 
  30   1.0000      -2.676745       -72.8379 
  31   1.0000      -2.676718       -72.8372 
  32   1.0000      -2.676248       -72.8244 
  33   1.0000      -1.453055       -39.5396 
  34   1.0000      -1.128195       -30.6998 
  35   1.0000      -1.097440       -29.8629 
  36   1.0000      -1.050718       -28.5915 
  37   1.0000      -1.038176       -28.2502 
  38   1.0000      -1.034711       -28.1559 
  39   1.0000      -1.021727       -27.8026 
  40   1.0000      -1.008424       -27.4406 
  41   1.0000      -0.960080       -26.1251 
  42   1.0000      -0.897544       -24.4234 
  43   1.0000      -0.826290       -22.4845 
  44   1.0000      -0.731512       -19.9055 
  45   1.0000      -0.713014       -19.4021 
  46   1.0000      -0.700080       -19.0501 
  47   1.0000      -0.683232       -18.5917 
  48   1.0000      -0.656391       -17.8613 
  49   1.0000      -0.622531       -16.9399 
  50   1.0000      -0.620570       -16.8866 
  51   1.0000      -0.604867       -16.4593 
  52   1.0000      -0.599253       -16.3065 
  53   1.0000      -0.585350       -15.9282 
  54   1.0000      -0.576658       -15.6917 
  55   1.0000      -0.560219       -15.2443 
  56   1.0000      -0.552618       -15.0375 
  57   1.0000      -0.544975       -14.8295 
  58   1.0000      -0.541655       -14.7392 
  59   1.0000      -0.527899       -14.3649 
  60   1.0000      -0.523289       -14.2394 
  61   1.0000      -0.504497       -13.7281 
  62   1.0000      -0.494372       -13.4525 
  63   1.0000      -0.484672       -13.1886 
  64   1.0000      -0.481907       -13.1134 
  65   1.0000      -0.453633       -12.3440 
  66   1.0000      -0.450196       -12.2504 
  67   1.0000      -0.447314       -12.1720 
  68   1.0000      -0.431119       -11.7313 
  69   1.0000      -0.428384       -11.6569 
  70   1.0000      -0.412822       -11.2335 
  71   1.0000      -0.360168        -9.8007 
  72   0.0000       0.012510         0.3404 
  73   0.0000       0.023405         0.6369 
  74   0.0000       0.024082         0.6553 
  75   0.0000       0.030456         0.8288 
  76   0.0000       0.039077         1.0633 
  77   0.0000       0.040956         1.1145 
  78   0.0000       0.042699         1.1619 
  79   0.0000       0.043291         1.1780 
  80   0.0000       0.044297         1.2054 
  81   0.0000       0.053527         1.4565 
  82   0.0000       0.056781         1.5451 
  83   0.0000       0.061278         1.6675 
  84   0.0000       0.062934         1.7125 
  85   0.0000       0.063763         1.7351 
  86   0.0000       0.064683         1.7601 
  87   0.0000       0.071411         1.9432 
  88   0.0000       0.077261         2.1024 
  89   0.0000       0.082442         2.2434 
  90   0.0000       0.089516         2.4359 
  91   0.0000       0.091526         2.4906 
  92   0.0000       0.093639         2.5481 
  93   0.0000       0.096578         2.6280 
  94   0.0000       0.100862         2.7446 
  95   0.0000       0.102887         2.7997 
  96   0.0000       0.104317         2.8386 
  97   0.0000       0.107127         2.9151 
  98   0.0000       0.107683         2.9302 
  99   0.0000       0.109374         2.9762 
 100   0.0000       0.111937         3.0460 
 101   0.0000       0.114841         3.1250 
 102   0.0000       0.119622         3.2551 
 103   0.0000       0.122169         3.3244 
 104   0.0000       0.123976         3.3736 
 105   0.0000       0.125424         3.4130 
 106   0.0000       0.127047         3.4571 
 107   0.0000       0.129286         3.5180 
 108   0.0000       0.132339         3.6011 
 109   0.0000       0.133975         3.6456 
 110   0.0000       0.136924         3.7259 
 111   0.0000       0.138834         3.7779 
 112   0.0000       0.144646         3.9360 
 113   0.0000       0.146805         3.9948 
 114   0.0000       0.151450         4.1212 
 115   0.0000       0.152082         4.1384 
 116   0.0000       0.156766         4.2658 
 117   0.0000       0.162086         4.4106 
 118   0.0000       0.162626         4.4253 
 119   0.0000       0.167967         4.5706 
 120   0.0000       0.171198         4.6585 
 121   0.0000       0.172296         4.6884 
 122   0.0000       0.175126         4.7654 
 123   0.0000       0.181845         4.9483 
 124   0.0000       0.182235         4.9589 
 125   0.0000       0.186312         5.0698 
 126   0.0000       0.186861         5.0848 
 127   0.0000       0.191869         5.2210 
 128   0.0000       0.197653         5.3784 
 129   0.0000       0.198290         5.3957 
 130   0.0000       0.199174         5.4198 
 131   0.0000       0.202401         5.5076 
 132   0.0000       0.206195         5.6108 
 133   0.0000       0.209443         5.6992 
 134   0.0000       0.215594         5.8666 
 135   0.0000       0.218677         5.9505 
 136   0.0000       0.225003         6.1226 
 137   0.0000       0.228091         6.2067 
 138   0.0000       0.229805         6.2533 
 139   0.0000       0.233759         6.3609 
 140   0.0000       0.235582         6.4105 
 141   0.0000       0.239156         6.5078 
 142   0.0000       0.241730         6.5778 
 143   0.0000       0.246395         6.7048 
 144   0.0000       0.250016         6.8033 
 145   0.0000       0.251623         6.8470 
 146   0.0000       0.253958         6.9105 
 147   0.0000       0.259987         7.0746 
 148   0.0000       0.261871         7.1259 
 149   0.0000       0.267676         7.2838 
 150   0.0000       0.271744         7.3945 
 151   0.0000       0.273028         7.4295 
 152   0.0000       0.279495         7.6055 
 153   0.0000       0.281954         7.6724 
 154   0.0000       0.285977         7.7818 
 155   0.0000       0.292345         7.9551 
 156   0.0000       0.293439         7.9849 
 157   0.0000       0.296648         8.0722 
 158   0.0000       0.298786         8.1304 
 159   0.0000       0.307316         8.3625 
 160   0.0000       0.309785         8.4297 
 161   0.0000       0.316335         8.6079 
 162   0.0000       0.321190         8.7400 
 163   0.0000       0.322563         8.7774 
 164   0.0000       0.329577         8.9682 
 165   0.0000       0.332269         9.0415 
 166   0.0000       0.335556         9.1309 
 167   0.0000       0.341634         9.2963 
 168   0.0000       0.342753         9.3268 
 169   0.0000       0.344644         9.3782 
 170   0.0000       0.349526         9.5111 
 171   0.0000       0.354057         9.6344 
 172   0.0000       0.358265         9.7489 
 173   0.0000       0.360645         9.8136 
 174   0.0000       0.363882         9.9017 
 175   0.0000       0.367142         9.9904 
 176   0.0000       0.369284        10.0487 
 177   0.0000       0.376075        10.2335 
 178   0.0000       0.378038        10.2869 
 179   0.0000       0.381137        10.3713 
 180   0.0000       0.385082        10.4786 
 181   0.0000       0.386360        10.5134 
 182   0.0000       0.390914        10.6373 
 183   0.0000       0.391848        10.6627 
 184   0.0000       0.393581        10.7099 
 185   0.0000       0.395061        10.7501 
 186   0.0000       0.399976        10.8839 
 187   0.0000       0.401984        10.9385 
 188   0.0000       0.404527        11.0077 
 189   0.0000       0.406632        11.0650 
 190   0.0000       0.412732        11.2310 
 191   0.0000       0.417304        11.3554 
 192   0.0000       0.419835        11.4243 
 193   0.0000       0.426036        11.5930 
 194   0.0000       0.428337        11.6557 
 195   0.0000       0.434749        11.8301 
 196   0.0000       0.436836        11.8869 
 197   0.0000       0.442004        12.0275 
 198   0.0000       0.445634        12.1263 
 199   0.0000       0.449490        12.2312 
 200   0.0000       0.453045        12.3280 
 201   0.0000       0.456126        12.4118 
 202   0.0000       0.458287        12.4706 
 203   0.0000       0.461731        12.5643 
 204   0.0000       0.464315        12.6347 
 205   0.0000       0.466846        12.7035 
 206   0.0000       0.476924        12.9778 
 207   0.0000       0.477214        12.9856 
 208   0.0000       0.481312        13.0972 
 209   0.0000       0.484009        13.1706 
 210   0.0000       0.487136        13.2556 
 211   0.0000       0.494022        13.4430 
 212   0.0000       0.495707        13.4889 
 213   0.0000       0.497213        13.5298 
 214   0.0000       0.501149        13.6370 
 215   0.0000       0.503278        13.6949 
 216   0.0000       0.506274        13.7764 
 217   0.0000       0.508694        13.8423 
 218   0.0000       0.514656        14.0045 
 219   0.0000       0.517303        14.0765 
 220   0.0000       0.519966        14.1490 
 221   0.0000       0.521686        14.1958 
 222   0.0000       0.526938        14.3387 
 223   0.0000       0.527777        14.3616 
 224   0.0000       0.529033        14.3957 
 225   0.0000       0.531636        14.4665 
 226   0.0000       0.535963        14.5843 
 227   0.0000       0.538449        14.6519 
 228   0.0000       0.542211        14.7543 
 229   0.0000       0.543524        14.7900 
 230   0.0000       0.546852        14.8806 
 231   0.0000       0.550961        14.9924 
 232   0.0000       0.556198        15.1349 
 233   0.0000       0.560764        15.2592 
 234   0.0000       0.561522        15.2798 
 235   0.0000       0.566179        15.4065 
 236   0.0000       0.570537        15.5251 
 237   0.0000       0.575534        15.6611 
 238   0.0000       0.577051        15.7024 
 239   0.0000       0.582962        15.8632 
 240   0.0000       0.585133        15.9223 
 241   0.0000       0.587891        15.9973 
 242   0.0000       0.591577        16.0976 
 243   0.0000       0.594176        16.1684 
 244   0.0000       0.597710        16.2645 
 245   0.0000       0.602781        16.4025 
 246   0.0000       0.606209        16.4958 
 247   0.0000       0.614203        16.7133 
 248   0.0000       0.615394        16.7457 
 249   0.0000       0.620061        16.8727 
 250   0.0000       0.620967        16.8974 
 251   0.0000       0.626937        17.0598 
 252   0.0000       0.632082        17.1998 
 253   0.0000       0.635409        17.2904 
 254   0.0000       0.637983        17.3604 
 255   0.0000       0.644175        17.5289 
 256   0.0000       0.648178        17.6378 
 257   0.0000       0.649327        17.6691 
 258   0.0000       0.652742        17.7620 
 259   0.0000       0.655804        17.8453 
 260   0.0000       0.661795        18.0084 
 261   0.0000       0.667635        18.1673 
 262   0.0000       0.671001        18.2589 
 263   0.0000       0.673024        18.3139 
 264   0.0000       0.674498        18.3540 
 265   0.0000       0.680522        18.5180 
 266   0.0000       0.688255        18.7284 
 267   0.0000       0.690196        18.7812 
 268   0.0000       0.696189        18.9443 
 269   0.0000       0.698673        19.0119 
 270   0.0000       0.702536        19.1170 
 271   0.0000       0.708876        19.2895 
 272   0.0000       0.713566        19.4171 
 273   0.0000       0.718617        19.5546 
 274   0.0000       0.723034        19.6748 
 275   0.0000       0.723189        19.6790 
 276   0.0000       0.731732        19.9114 
 277   0.0000       0.736753        20.0481 
 278   0.0000       0.738746        20.1023 
 279   0.0000       0.742832        20.2135 
 280   0.0000       0.748009        20.3544 
 281   0.0000       0.750405        20.4196 
 282   0.0000       0.760636        20.6980 
 283   0.0000       0.762620        20.7519 
[...]
  | sigma^2 in % of trace(Dip) retained ...   1.58e+01
  | sigma^2 in % of trace(Dpq) retained ...   1.37e-01
  | Av. % of trace(Di) retained         ...  99.998570735855
  | Av. % of trace(Dp) retained         ...  99.999998430814
  | sigma^2 in % of trace(Di) retained  ...   6.60e-07
  | sigma^2 in % of trace(Dp) retained  ...   1.88e-12
 Distributions of % trace(Dij) recovered:
  |       >= 99.9  ...   105 ( 22.1 % of all IJ-pairs)
  |   [80.0, 90.0) ...    23 (  4.8 % of all IJ-pairs)
  |   [90.0, 99.0) ...   260 ( 54.7 % of all IJ-pairs)
  |   [99.0, 99.9) ...    87 ( 18.3 % of all IJ-pairs)
 Distributions of % trace(Dip) recovered:
  |   [80.0, 90.0) ...    13 ( 11.5 % of all IP-pairs)
  |   [90.0, 99.0) ...    52 ( 46.0 % of all IP-pairs)
  |   [99.0, 99.9) ...    48 ( 42.5 % of all IP-pairs)
 Distributions of % trace(Dpq) recovered:
  |       >= 99.9  ...     5 ( 33.3 % of all PQ-pairs)
  |   [99.0, 99.9) ...    10 ( 66.7 % of all PQ-pairs)
 Distributions of % trace(Di) recovered :
  |       >= 99.9  ...    43 (100.0 % of all I-pairs )
 Distributions of % trace(Dp) recovered :
  |       >= 99.9  ...     5 (100.0 % of all P-pairs )

                       ===========================
                       1045 OF 1666 PAIRS ARE KEPT
                       ===========================

 Initial PAO correlation energy (all pairs)    ...  -2.6832836357 Eh
 Energy constituents in PAO basis (Eh):
  | Vijab(+0) ...  -2.2560295565
  | Viab (-1) ...  -0.1741094057
  | Vab  (-2) ...  -0.0573322314
  | Va   (-1) ...  -0.0000452350
  | Vija (+1) ...  -0.0714740259
  | Vij  (+2) ...  -0.0155415930
  | Via  (+0) ...  -0.1085873295
  | Vi   (+1) ...  -0.0001642587
 Initial PNO correlation energy                ...  -2.6488432895 Eh
 Energy constituents in PNO basis (Eh):
  | Vijab(+0) ...  -2.2371231036 (err=  0.0189064529)
  | Viab (-1) ...  -0.1601366042 (err=  0.0139728014)
  | Vab  (-2) ...  -0.0568768953 (err=  0.0004553360)
  | Va   (-1) ...  -0.0000262187 (err=  0.0000190164)
  | Vija (+1) ...  -0.0705521531 (err=  0.0009218728)
  | Vij  (+2) ...  -0.0154873244 (err=  0.0000542686)
  | Via  (+0) ...  -0.1084772173 (err=  0.0001101122)
  | Vi   (+1) ...  -0.0001637729 (err=  0.0000004858)
 Sum of total truncation errors ...   0.0344403461 Eh
  | Pair screening ...   0.0122024140 Eh
  | PNO truncation ...   0.0222379322 Eh

 UMP2 correlation energy (PAO) ...  -2.6782077721
  | alpha-alpha ...  -0.3840399766 (NP_aa=  895)
  | alpha-beta  ...  -1.9896712052 (NP_ab= 1641)
  | beta -beta  ...  -0.3044965903 (NP_bb=  713)
 UMP2 correlation energy (PNO) ...  -2.6433978052
  | alpha-alpha ...  -0.3719522236 (err=  0.0120877530, NP_aa=  555)
  | alpha-beta  ...  -1.9711088738 (err=  0.0185623314, NP_ab= 1020)
  | beta -beta  ...  -0.3003367078 (err=  0.0041598825, NP_bb=  432)
 Sum of total UMP2 truncation errors ...   0.0348099669 Eh
  | Pair screening ...   0.0122102994 Eh
  | PNO truncation ...   0.0225996675 Eh
 Timing for NEV-PNO construction (sec.)
  | Intermediate construction  ..           44.677
  | Amplitude construction     ..           60.471
  | Total time                 ..          105.148
 Making pair pair interaction lists ...      ok
 Total size for 2-ext PNO integrals ...     10.6 MB
Checking the number of SOMO/SOMO doubles PNOs ... 
 #Truncate: (72, 72)[171] -> [86] .. 
 #Truncate: (73, 73)[172] -> [86] .. 
 #Truncate: (74, 74)[174] -> [86] .. 
 #Truncate: (75, 75)[170] -> [86] .. 
 #Truncate: (76, 76)[170] -> [86] .. 

--------------------------------
LOCAL RI TRANSFORMATION (VABPAO)
--------------------------------

Number of PAOs:    1030
Basis functions:   1025 (343 shells)
Aux. functions:    2424 (644 shells)

Processing maps (0.0 sec)
Average map sizes:
   Aux shells -> PAOs           1030.0
   PAOs       -> AO shells       343.0

Calculating integrals (201.2 sec, 37370.165 MB)
Finished
-----------------------------
LOCAL RI TRANSFORMATION (IJV)
-----------------------------

Orbital window:      29 to 76
Basis functions:   1025 (343 shells)
Aux. functions:    2424 (644 shells)

Processing maps (0.0 sec)
Average map sizes:
   Aux shells -> MOs(i)           46.3
   Aux shells -> MOs(j)           48.0
   MOs        -> AO shells       339.5

Calculating integrals (23.3 sec, 41.213 MB)
Sorting integrals (0.3 sec, 41.185 MB)
Total time for the integral transformation: 23.7 sec


-------------------------------------
Pair Pair Term precalculation with     
RI-(ij|mn) and (im|jn) transformation  
ON THE FLY                             
-------------------------------------

   IBatch   1 (of   2)              ... done ( 1343.612 sec)
   IBatch   2 (of   2)              ... done (  677.806 sec)
Total EXT                           ...        2021.417 sec

---------------------
RI-PNO TRANSFORMATION
---------------------

Total Number of PNOs                   ... 32810
Total Number of IJ-PNOs                ... 28719
Total Number of IP-PNOs                ...  3133
Total Number of PQ-PNOs                ...   958
Total Number of IJ-pairs               ...   907
Total Number of PI-pairs               ...   113
Total Number of PQ-pairs               ...    25
Average number of PNOs per pair        ...    31
Maximal number of PNOs per pair        ...    86
>> Statistics for ij-pairs..
   #pairs with  1 -  5 PNOs   :    0
   #pairs with  6 - 10 PNOs   :    0
   #pairs with 11 - 15 PNOs   :   80
   #pairs with 16 - 20 PNOs   :  180
   #pairs with 21 - 25 PNOs   :  160
   #pairs with 26 - 30 PNOs   :  138
   #pairs with 31 - 35 PNOs   :   62
   #pairs with 36 - 40 PNOs   :   56
   #pairs with 41 - 45 PNOs   :   46
   #pairs with 46 - 50 PNOs   :   18
   #pairs with 51 - 55 PNOs   :   32
   #pairs with 56 - 60 PNOs   :   53
   #pairs with 61 - 65 PNOs   :   77
   #pairs with 66 - 70 PNOs   :    3
   #pairs with 81 - 85 PNOs   :    2
>> Statistics for ip-pairs..
   #pairs with  1 -  5 PNOs   :    0
   #pairs with  6 - 10 PNOs   :    1
   #pairs with 11 - 15 PNOs   :   12
   #pairs with 16 - 20 PNOs   :   10
   #pairs with 21 - 25 PNOs   :   22
   #pairs with 26 - 30 PNOs   :   10
   #pairs with 31 - 35 PNOs   :   44
   #pairs with 36 - 40 PNOs   :   12
   #pairs with 41 - 45 PNOs   :    2
   #pairs with 46 - 50 PNOs   :    0
>> Statistics for pq-pairs..
   #pairs with  1 -  5 PNOs   :    0
   #pairs with  6 - 10 PNOs   :    0
   #pairs with 11 - 15 PNOs   :    0
   #pairs with 16 - 20 PNOs   :    0
   #pairs with 21 - 25 PNOs   :   10
   #pairs with 26 - 30 PNOs   :   10
   #pairs with 31 - 35 PNOs   :    0
   #pairs with 36 - 40 PNOs   :    0
   #pairs with 41 - 45 PNOs   :    0
   #pairs with 46 - 50 PNOs   :    0
   #pairs with 86 - 90 PNOs   :    5

Generation of (ij|ab)[P] integrals            ... on
Generation of (ia|bc)[P],(ja|bc)[P] integrals ... on
Storage of 3 and 4 external integrals         ... on
Generation of ALL (ka|bc)[P] integrals        ... on
Keep RI integrals in memory                   ... off

Ibatch:  1 (of  1)
Starting 2-4 index PNO integral generation ... done

Timings:
Total PNO integral transformation time     ...       2010.527 sec
Size of the 3-external file                ...       280 MB
Size of the 4-external file                ...      1914 MB
Size of the IKJL file                      ...        16 MB
Size of the all 3-external file            ...      6728 MB
Size of the 1-external file                ...        21 MB

Size of the PAO/PNO coefficient matrices   ...     207.1 MB

Making pair/pair overlap matrices          ... done (  305.657 sec)
Size of the pair overlap file              ...    2269.0 MB
Total # unrestricted pairs ...       2007
  # of alpha-alpha pairs   ...        555
  # of alpha-beta pairs    ...       1020
  # of beta-beta pairs     ...        432
Constructing the guess amplitudes          ... done (    0.649 sec)

-------------------------
FINAL STARTUP INFORMATION
-------------------------

E(0)                                       ...  -3028.463440403
E(SL-UMP2 in NEV-PNO space)                ...     -2.679179555
Initial E(tot)                             ...  -3031.142619958
<T|T>                                      ...      0.532923084
Number of unrestricted pairs included      ... 2007
Total number of pairs                      ... 4095
----------------------------------------------------------
                     OPEN-SHELL COUPLED CLUSTER ITERATIONS
----------------------------------------------------------

Number of PNO amplitudes to be optimized        ...          2031313
Number of canonical amplitudes for strong pairs ...       1812726371
Untruncated number of canonical amplitudes      ...       3698645738

Iter       E(tot)           E(Corr)          Delta-E          Residual     Time
  0  -3031.149843934     -2.650621782      0.028557773      0.020796028 1673.25
                           *** Turning on DIIS ***
  1  -3031.265681195     -2.766459042     -0.115837261      0.010472606 1685.95
  2  -3031.330602705     -2.831380552     -0.064921510      0.008314532 1675.04
  3  -3031.352574324     -2.853352172     -0.021971620      0.003228825 1680.37
  4  -3031.360231803     -2.861009651     -0.007657479      0.002645292 1758.34
  5  -3031.364435288     -2.865213136     -0.004203485      0.001518829 1685.39
  6  -3031.365985042     -2.866762889     -0.001549753      0.000752889 1665.05
  7  -3031.366644196     -2.867422043     -0.000659154      0.000482110 1639.71
  8  -3031.366788870     -2.867566718     -0.000144674      0.000226022 1666.62
  9  -3031.366848305     -2.867626153     -0.000059435      0.000139238 1651.31
 10  -3031.366850230     -2.867628078     -0.000001925      0.000078134 1660.43
 11  -3031.366863309     -2.867641157     -0.000013079      0.000064973 1668.31
 12  -3031.366867822     -2.867645670     -0.000004513      0.000033157 1687.97
 13  -3031.366870000     -2.867647848     -0.000002178      0.000018733 1677.38
 14  -3031.366871602     -2.867649450     -0.000001602      0.000010491 1713.74
 15  -3031.366870688     -2.867648536      0.000000914      0.000004556 1754.89
               --- The CCSD iterations have converged ---

E(0)                                       ...  -3028.463440403
E(CORR)(strong-pairs)                      ...     -2.867648536
E(CORR)(weak-pairs)                        ...     -0.035781750
E(CORR)(corrected)                         ...     -2.903430286
E(TOT)                                     ...  -3031.366870688
Singles norm <S|S>**1/2                    ...      0.195418071 ( 0.064711732, 0.130706339)  
T1 diagnostic                              ...      0.020485380                              
<S**2>(linearized)                         ...      8.7508454 (ideal value:      8.7500000)

----------------------
LARGEST PNO AMPLITUDES
----------------------
  46a-> 78a  46b-> 78b       0.055205
  49b-> 72b  -1b-> -1b       0.054635
  51b-> 73b  -1b-> -1b       0.054009
  52b-> 73b  -1b-> -1b       0.053646
  49b-> 76b  -1b-> -1b       0.047407
  49b-> 75b  -1b-> -1b       0.046350
  43a-> 77a  43b-> 77b       0.045939
  62a-> 77a  62b-> 77b       0.044164
  55a-> 77a  55b-> 77b       0.044034
  38b-> 74b  -1b-> -1b       0.043896
  70a-> 77a  70b-> 77b       0.043799
  36b-> 72b  -1b-> -1b       0.043277
  56a-> 78a  56b-> 78b       0.043208
  64a-> 77a  64b-> 77b       0.043195
  69a-> 77a  69b-> 77b       0.042875
  42b-> 74b  -1b-> -1b       0.042812

Total # unrestricted pairs ...       1242
  # of alpha-alpha pairs   ...        340
  # of alpha-beta pairs    ...        621
  # of beta-beta pairs     ...        281

-------------------------------------------
DLPNO BASED TRIPLES CORRECTION
-------------------------------------------

Singles multiplier          ...  1.000000
Fragment selection                          .... not used
TCutTNO                     ... 1.000e-09
TCutMP2Pairs                ... 1.000e-05
TCutDOStrong                ... 2.000e-02
TCutMKNStrong               ... 1.000e-02
TCutDOWeak                  ... 4.000e-02
TCutMKNWeak                 ... 1.000e-01
NTCutTNO                    ... 1

Number of Triples that are to be computed         ...     30836

 . . . . . . . . .
10% done  
20% done  
30% done  
40% done  
50% done  
60% done  
70% done  
80% done  
90% done  
          Batch   1   done (  12989.695 sec)

Triples-Correction TCutTNO=   1.000e-09 (NWeakPairs = 0  1  2  3)  -0.116262012429   -0.001846141869    0.000000000000    0.000000000000
Triples-Correction  -0.118108154298

Triples timings:
Total time                      ... 13557.374 sec

Triples List generation         ...     0.000 sec
TNO generation                  ...   567.415 sec
Pair density generation         ...     0.093 sec
Look up tables                  ...     0.109 sec
Generating 3-index integrals    ...  7647.340 sec
Make 4-ind.int. from 3-ind.int  ...     3.228 sec
Projecting amplitudes (D + S)   ...  5084.477 sec
Sorting integrals for spin cases...    51.551 sec
Calculate W0/W1                 ...   164.847 sec
Energy contr. (sum over a,b,c)  ...    38.131 sec

Everything after 3-index        ...  5459.800 sec

Energy contribution AAA         ...    24.706 sec
Energy contribution AAB         ...   112.731 sec
Energy contribution ABB         ...   103.061 sec
Energy contribution BBB         ...    14.066 sec
prep                ...     3.097 sec
makeTTNO            ...  5031.787 sec
copyij              ...     0.126 sec
copyil              ...     3.847 sec
transposeij         ...     0.076 sec
newMatInDoubleProj  ...    49.849 sec
BlasInDoubleProj    ...  2789.972 sec
ProjSingles         ...    43.307 sec
ProjDoubles         ...  5041.169 sec
overall Doubles for projection      ... 2722084
used Doubles for projection         ... 2722084


Number of Triples   (0, 1, 2, 3 weak pairs; overall):  14317   11172       0       0  ( 25489)
Number of Atoms     (0, 1, 2, 3 weak pairs; overall):   18.7    13.6     0.0     0.0  (    29)
Number of PAOs      (0, 1, 2, 3 weak pairs; overall):  737.2   552.4     0.0     0.0  (  1025)
Number of AuxFcns   (0, 1, 2, 3 weak pairs; overall):  819.9   567.2     0.0     0.0  (  2424)
Number of TNOs (0, 1, 2, 3 weak pairs         ):   78.8    56.2     0.0     0.0
Aver. Number of NTNO, Atoms, PAOs, AuxFcns / Triples:  25489    68.9    16.5   656.2   709.1

Triples Correction (T)                     ...     -0.118108154
    alpha-alpha-alpha ... -0.003770439 (  3.2%)
    alpha-alpha-beta  ... -0.055488013 ( 47.0%)
    alpha-beta -beta  ... -0.054819449 ( 46.4%)
    beta -beta -beta  ... -0.004030253 (  3.4%)
Final correlation energy                   ...     -3.021538440
E(CCSD)                                    ...  -3031.366870688
E(CCSD(T))                                 ...  -3031.484978843

----------------------------
STATISTICS FOR PAIR-ENERGIES
----------------------------
Minimum, maximum and average ratios of UMP and CCSD pair-energies ... 0.45, 1.45, 1.02


------------------------------------------------------------------------------- 
                                     TIMINGS                                   
------------------------------------------------------------------------------- 


Total execution time                   ...    48271.027 sec

Localization of occupied MO's          ...        9.745 sec (  0.0%)
Fock Matrix Formation                  ...     1360.151 sec (  2.8%)
Differential overlap integrals         ...        1.698 sec (  0.0%)
Organizing maps                        ...        1.660 sec (  0.0%)
RI 3-index integral generations        ...      288.945 sec (  0.6%)
RI-PNO integral transformation         ...     4478.037 sec (  9.3%)
Initial Guess                          ...     1799.142 sec (  3.7%)
DIIS Solver                            ...       17.469 sec (  0.0%)
State Vector Update                    ...        0.802 sec (  0.0%)
Sigma-vector construction              ...    26943.745 sec ( 55.8%)
  <0|H|D>                              ...        0.031 sec (  0.0% of sigma)
  <D|H|D>(0-ext)                       ...     5085.674 sec ( 18.9% of sigma)
  <D|H|D>(2-ext Fock)                  ...        1.668 sec (  0.0% of sigma)
  <D|H|D>(2-ext)                       ...     3499.754 sec ( 13.0% of sigma)
  <D|H|D>(4-ext)                       ...      160.968 sec (  0.6% of sigma)
  <D|H|D>(4-ext-corr)                  ...     1003.439 sec (  3.7% of sigma)
  CCSD doubles correction              ...      466.470 sec (  1.7% of sigma)
  <S|H|S>                              ...      684.073 sec (  2.5% of sigma)
  <S|H|D>(1-ext)                       ...      275.706 sec (  1.0% of sigma)
  <D|H|S>(1-ext)                       ...        1.405 sec (  0.0% of sigma)
  <S|H|D>(3-ext)                       ...       22.204 sec (  0.1% of sigma)
  CCSD singles correction              ...        0.005 sec (  0.0% of sigma)
  Fock-dressing                        ...     8119.889 sec ( 30.1% of sigma)
  Singles amplitudes                   ...      116.259 sec (  0.4% of sigma)
  (ik|jl)-dressing                     ...     5915.046 sec ( 22.0% of sigma)
  (ij|ab),(ia|jb)-dressing             ...     1299.129 sec (  4.8% of sigma)
  Pair energies                        ...        0.144 sec (  0.0% of sigma)
Total Time for computing (T)           ...    13689.860 sec ( 28.4% of ALL)


-------------------------   --------------------
FINAL SINGLE POINT ENERGY     -3031.484978842635
-------------------------   --------------------


                            ***************************************
                            *     ORCA property calculations      *
                            ***************************************

                                    ---------------------
                                    Active property flags
                                    ---------------------
   (+) Dipole Moment


------------------------------------------------------------------------------
                       ORCA ELECTRIC PROPERTIES CALCULATION
------------------------------------------------------------------------------

Dipole Moment Calculation                       ... on
Quadrupole Moment Calculation                   ... off
Polarizability Calculation                      ... off
GBWName                                         ... simple-grid-260-290-b3lyp_d3bj-631gd-gas-singlepoint-DLPNO_CCSD_T1-NormalPNO-augtz-gas.gbw
Electron density file                           ... simple-grid-260-290-b3lyp_d3bj-631gd-gas-singlepoint-DLPNO_CCSD_T1-NormalPNO-augtz-gas.scfp.tmp
The origin for moment calculation is the CENTER OF MASS  = (-0.315112, -0.042718  0.013948)

-------------
DIPOLE MOMENT
-------------
                                X             Y             Z
Electronic contribution:    -43.56392      -4.96159       1.45155
Nuclear contribution   :     46.95171       6.36496      -2.07824
                        -----------------------------------------
Total Dipole Moment    :      3.38778       1.40337      -0.62670
                        -----------------------------------------
Magnitude (a.u.)       :      3.72012
Magnitude (Debye)      :      9.45579



--------------------
Rotational spectrum 
--------------------
 
Rotational constants in cm-1:     0.018895     0.010709     0.010075 
Rotational constants in MHz :   566.451033   321.040363   302.048031 

 Dipole components along the rotational axes: 
x,y,z [a.u.] :     3.381689    -1.398339    -0.669398 
x,y,z [Debye]:     8.595571    -3.554295    -1.701476 

 

Timings for individual modules:

Sum of individual times         ...    64379.627 sec (=1072.994 min)
GTO integral calculation        ...       12.168 sec (=   0.203 min)   0.0 %
SCF iterations                  ...    16078.540 sec (= 267.976 min)  25.0 %
MDCI module                     ...    48288.920 sec (= 804.815 min)  75.0 %
                             ****ORCA TERMINATED NORMALLY****
TOTAL RUN TIME: 0 days 17 hours 53 minutes 2 seconds 385 msec
