
                                 *****************
                                 * O   R   C   A *
                                 *****************

           --- An Ab Initio, DFT and Semiempirical electronic structure package ---

                  #######################################################
                  #                        -***-                        #
                  #          Department of theory and spectroscopy      #
                  #               Directorship: Frank Neese             #
                  #        Max Planck Institute fuer Kohlenforschung    #
                  #                Kaiser Wilhelm Platz 1               #
                  #                 D-45470 Muelheim/Ruhr               #
                  #                      Germany                        #
                  #                                                     #
                  #                  All rights reserved                #
                  #                        -***-                        #
                  #######################################################


                         Program Version 4.1.2  - RELEASE  -


 With contributions from (in alphabetic order):
   Daniel Aravena         : Magnetic Properties
   Michael Atanasov       : Ab Initio Ligand Field Theory
   Alexander A. Auer      : GIAO ZORA
   Ute Becker             : Parallelization
   Giovanni Bistoni       : ED, Open-shell LED
   Martin Brehm           : Molecular dynamics
   Dmytro Bykov           : SCF Hessian
   Vijay G. Chilkuri      : MRCI spin determinant printing
   Dipayan Datta          : RHF DLPNO-CCSD density
   Achintya Kumar Dutta   : EOM-CC, STEOM-CC
   Dmitry Ganyushin       : Spin-Orbit,Spin-Spin,Magnetic field MRCI
   Miquel Garcia          : C-PCM Hessian
   Yang Guo               : DLPNO-NEVPT2, CIM, IAO-localization
   Andreas Hansen         : Spin unrestricted coupled pair/coupled cluster methods
   Benjamin Helmich-Paris : CASSCF linear response (MC-RPA)
   Lee Huntington         : MR-EOM, pCC
   Robert Izsak           : Overlap fitted RIJCOSX, COSX-SCS-MP3, EOM
   Christian Kollmar      : KDIIS, OOCD, Brueckner-CCSD(T), CCSD density
   Simone Kossmann        : Meta GGA functionals, TD-DFT gradient, OOMP2, MP2 Hessian
   Martin Krupicka        : AUTO-CI
   Lucas Lang             : DCDCAS
   Dagmar Lenk            : GEPOL surface, SMD
   Dimitrios Liakos       : Extrapolation schemes; parallel MDCI
   Dimitrios Manganas     : ROCIS; embedding schemes
   Dimitrios Pantazis     : SARC Basis sets
   Taras Petrenko         : DFT Hessian,TD-DFT gradient, ASA, ECA, R-Raman, ABS, FL, XAS/XES, NRVS
   Peter Pinski           : DLPNO-MP2, DLPNO-MP2 Gradient
   Christoph Reimann      : Effective Core Potentials
   Marius Retegan         : Local ZFS, SOC
   Christoph Riplinger    : Optimizer, TS searches, QM/MM, DLPNO-CCSD(T), (RO)-DLPNO pert. Triples
   Tobias Risthaus        : Range-separated hybrids, TD-DFT gradient, RPA, STAB
   Michael Roemelt        : Restricted open shell CIS
   Masaaki Saitow         : Open-shell DLPNO
   Barbara Sandhoefer     : DKH picture change effects
   Avijit Sen             : IP-ROCIS
   Kantharuban Sivalingam : CASSCF convergence, NEVPT2, FIC-MRCI
   Bernardo de Souza      : ESD, SOC TD-DFT
   Georgi Stoychev        : AutoAux, RI-MP2 NMR
   Willem Van den Heuvel  : Paramagnetic NMR
   Boris Wezisla          : Elementary symmetry handling
   Frank Wennmohs         : Technical directorship


 We gratefully acknowledge several colleagues who have allowed us to
 interface, adapt or use parts of their codes:
   Stefan Grimme, W. Hujo, H. Kruse,             : VdW corrections, initial TS optimization,
                  C. Bannwarth                     DFT functionals, gCP, sTDA/sTD-DF
   Ed Valeev                                     : LibInt (2-el integral package), F12 methods
   Garnet Chan, S. Sharma, J. Yang, R. Olivares  : DMRG
   Ulf Ekstrom                                   : XCFun DFT Library
   Mihaly Kallay                                 : mrcc  (arbitrary order and MRCC methods)
   Andreas Klamt, Michael Diedenhofen            : otool_cosmo (COSMO solvation model)
   Jiri Pittner, Ondrej Demel                    : Mk-CCSD
   Frank Weinhold                                : gennbo (NPA and NBO analysis)
   Christopher J. Cramer and Donald G. Truhlar   : smd solvation model
   Lars Goerigk                                  : TD-DFT with DH, B97 family of functionals
   V. Asgeirsson, H. Jonsson                     : NEB implementation
   FAccTs GmbH                                   : IRC, NEB, NEB-TS, Multilevel


 Your calculation uses the libint2 library for the computation of 2-el integrals
 For citations please refer to: http://libint.valeyev.net

 This ORCA versions uses:
   CBLAS   interface :  Fast vector & matrix operations
   LAPACKE interface :  Fast linear algebra routines
   SCALAPACK package :  Parallel linear algebra routines


----- Orbital basis set information -----
Your calculation utilizes the basis: aug-cc-pVTZ 
    H, B-Ne : Obtained from the ccRepo (grant-hill.group.shef.ac.uk/ccrepo) Feb. 2017
              R. A. Kendall, T. H. Dunning, Jr., R. J. Harrison, J. Chem. Phys. 96, 6796 (1992)
         He : Obtained from the ccRepo (grant-hill.group.shef.ac.uk/ccrepo) Feb. 2017
              D. E. Woon, T. H. Dunning, Jr., J. Chem. Phys. 100, 2975 (1994)
  Li-Be, Na : Obtained from the ccRepo (grant-hill.group.shef.ac.uk/ccrepo) Feb. 2017
              B. P. Prascher, D. E. Woon, K. A. Peterson, T. H. Dunning, Jr., A. K. Wilson, Theor. Chem. Acc. 128, 69 (2011)
         Mg : Obtained from the Peterson Research Group Website (tyr0.chem.wsu.edu/~kipeters) Feb. 2017
              B. P. Prascher, D. E. Woon, K. A. Peterson, T. H. Dunning, Jr., A. K. Wilson, Theor. Chem. Acc. 128, 69 (2011)
      Al-Ar : Obtained from the ccRepo (grant-hill.group.shef.ac.uk/ccrepo) Feb. 2017
              D. E. Woon, T. H. Dunning, Jr., J. Chem. Phys. 98, 1358 (1993)
      Sc-Zn : Obtained from the ccRepo (grant-hill.group.shef.ac.uk/ccrepo) Feb. 2017
              N. B. Balabanov, K. A. Peterson, J. Chem. Phys. 123, 064107 (2005)
              N. B. Balabanov, K. A. Peterson, J. Chem. Phys. 125, 074110 (2006)
      Ga-Kr : Obtained from the ccRepo (grant-hill.group.shef.ac.uk/ccrepo) Feb. 2017
              A. K. Wilson, D. E. Woon, K. A. Peterson, T. H. Dunning, Jr., J. Chem. Phys. 110, 7667 (1999)
     Ag, Au : Obtained from the Peterson Research Group Website (tyr0.chem.wsu.edu/~kipeters) Feb. 2017
              K. A. Peterson, C. Puzzarini, Theor. Chem. Acc. 114, 283 (2005)

----- AuxJ basis set information -----
Your calculation utilizes the AutoAux generation procedure.
  G. L. Stoychev, A. A. Auer, F. Neese, J. Chem. Theory Comput. 13, 554 (2017)

----- AuxC basis set information -----
Your calculation utilizes the auxiliary basis: aug-cc-pVTZ/C 
  H-He, B-F, Al-Ar, Ga-Kr : Obtained from the EMSL Basis Set Exchange (bse.pnl.gov) Feb. 2017
                            F. Weigend, A. Kohn, C. Hattig, J. Chem. Phys. 116, 3175 (2002)
                   Be, Mg : Obtained from the TURBOMOLE 7.0 basis set library
                            C. Haettig, Phys. Chem. Chem. Phys. 7, 59 (2005)
                       Ne : Obtained from the EMSL Basis Set Exchange (bse.pnl.gov) Feb. 2017
                            C. Haettig, Phys. Chem. Chem. Phys. 7, 59 (2005)
                            F. Weigend, A. Kohn, C. Hattig, J. Chem. Phys. 116, 3175 (2002)
                    Sc-Zn : Obtained from the EMSL Basis Set Exchange (bse.pnl.gov) Feb. 2017
                            J. G. Hill, J. A. Platts, J. Chem. Phys. 128, 044104 (2008)

----- AuxJK basis set information -----
Your calculation utilizes the AutoAux generation procedure.
  G. L. Stoychev, A. A. Auer, F. Neese, J. Chem. Theory Comput. 13, 554 (2017)

================================================================================
                                        WARNINGS
                       Please study these warnings very carefully!
================================================================================


WARNING: your system is open-shell and RHF/RKS was chosen
  ===> : WILL SWITCH to UHF/UKS


WARNING: MDCI localization with Augmented Hessian Foster-Boys
  ===> : Switching off randomization!

WARNING: Post HF methods need fully converged wavefunctions
  ===> : Setting SCFConvForced true
         You can overwrite this default with %scf ConvForced false 


INFO   : the flag for use of LIBINT has been found!

================================================================================
                                       INPUT FILE
================================================================================
NAME = simple-grid-220-270-b3lyp_d3bj-631gd-gas-singlepoint-DLPNO_CCSD_T1-NormalPNO-augtz-gas.inp
|  1> ! aug-cc-pVTZ aug-cc-pVTZ/C DLPNO-CCSD(T1) TightSCF NormalPNO UNO MiniPrint AutoAux
|  2> %pal nproc 10 end
|  3> %maxcore 20000
|  4> %mdci
|  5>      density none
|  6> end
|  7> 
|  8> * xyz 0 6
|  9>  O     -0.27735200     -0.23470100     -0.77684000
| 10>  C     -1.15671800     -1.15280700     -0.61216700
| 11>  C     -2.81605400     -0.27910100      0.53815600
| 12>  C     -2.61195100      0.92569400     -0.07460300
| 13>  C     -3.24662200      1.26326700     -1.38849700
| 14> Fe      1.44828700      0.14120900     -0.01835800
| 15> Cl      2.00635100      2.06146600     -0.90422400
| 16>  C     -1.70553300      1.97512600      0.47343800
| 17> Cl      2.66294900     -1.58077600     -0.62093000
| 18> Cl      1.18870600      0.25385200      2.17179500
| 19>  H     -3.57088300     -0.92583400      0.09399200
| 20>  H     -2.24023000      2.93096700      0.54169100
| 21>  H     -1.28551200      1.73355300      1.44844500
| 22>  H     -0.87511700      2.13685100     -0.22784400
| 23>  H     -3.82788100      2.18795100     -1.28026400
| 24>  H     -2.47810600      1.47021600     -2.14513000
| 25>  H     -3.91604000      0.48097900     -1.75215400
| 26>  C     -2.54891800     -0.52086700      2.00820200
| 27>  H     -3.28595400      0.03073700      2.60513600
| 28>  H     -2.65763000     -1.57748300      2.26159500
| 29>  H     -1.55581700     -0.19660300      2.32538900
| 30>  C     -0.85751600     -2.26361100      0.36615300
| 31>  H     -1.72077100     -2.90566200      0.54858500
| 32>  H     -0.07235400     -2.86353900     -0.11517900
| 33>  H     -0.45032200     -1.89168600      1.30553000
| 34>  C     -1.88876000     -1.57755800     -1.86622500
| 35>  H     -1.19433900     -2.23897700     -2.40139500
| 36>  H     -2.79987100     -2.14122100     -1.65743500
| 37>  H     -2.09945500     -0.73214500     -2.51857400
| 38> *
| 39> 
| 40> 
| 41>                          ****END OF INPUT****
================================================================================

                       ****************************
                       * Single Point Calculation *
                       ****************************

---------------------------------
CARTESIAN COORDINATES (ANGSTROEM)
---------------------------------
  O     -0.277352   -0.234701   -0.776840
  C     -1.156718   -1.152807   -0.612167
  C     -2.816054   -0.279101    0.538156
  C     -2.611951    0.925694   -0.074603
  C     -3.246622    1.263267   -1.388497
  Fe     1.448287    0.141209   -0.018358
  Cl     2.006351    2.061466   -0.904224
  C     -1.705533    1.975126    0.473438
  Cl     2.662949   -1.580776   -0.620930
  Cl     1.188706    0.253852    2.171795
  H     -3.570883   -0.925834    0.093992
  H     -2.240230    2.930967    0.541691
  H     -1.285512    1.733553    1.448445
  H     -0.875117    2.136851   -0.227844
  H     -3.827881    2.187951   -1.280264
  H     -2.478106    1.470216   -2.145130
  H     -3.916040    0.480979   -1.752154
  C     -2.548918   -0.520867    2.008202
  H     -3.285954    0.030737    2.605136
  H     -2.657630   -1.577483    2.261595
  H     -1.555817   -0.196603    2.325389
  C     -0.857516   -2.263611    0.366153
  H     -1.720771   -2.905662    0.548585
  H     -0.072354   -2.863539   -0.115179
  H     -0.450322   -1.891686    1.305530
  C     -1.888760   -1.577558   -1.866225
  H     -1.194339   -2.238977   -2.401395
  H     -2.799871   -2.141221   -1.657435
  H     -2.099455   -0.732145   -2.518574

----------------------------
CARTESIAN COORDINATES (A.U.)
----------------------------
  NO LB      ZA    FRAG     MASS         X           Y           Z
   0 O     8.0000    0    15.999   -0.524119   -0.443521   -1.468015
   1 C     6.0000    0    12.011   -2.185880   -2.178490   -1.156828
   2 C     6.0000    0    12.011   -5.321571   -0.527424    1.016967
   3 C     6.0000    0    12.011   -4.935872    1.749308   -0.140979
   4 C     6.0000    0    12.011   -6.135226    2.387229   -2.623879
   5 Fe   26.0000    0    55.850    2.736866    0.266846   -0.034692
   6 Cl   17.0000    0    35.453    3.791454    3.895606   -1.708736
   7 C     6.0000    0    12.011   -3.222990    3.732447    0.894668
   8 Cl   17.0000    0    35.453    5.032244   -2.987234   -1.173388
   9 Cl   17.0000    0    35.453    2.246329    0.479711    4.104098
  10 H     1.0000    0     1.008   -6.747991   -1.749573    0.177619
  11 H     1.0000    0     1.008   -4.233421    5.538725    1.023648
  12 H     1.0000    0     1.008   -2.429266    3.275940    2.737164
  13 H     1.0000    0     1.008   -1.653731    4.038063   -0.430563
  14 H     1.0000    0     1.008   -7.233647    4.134628   -2.419348
  15 H     1.0000    0     1.008   -4.682942    2.778306   -4.053708
  16 H     1.0000    0     1.008   -7.400243    0.908919   -3.311091
  17 C     6.0000    0    12.011   -4.816757   -0.984296    3.794952
  18 H     1.0000    0     1.008   -6.209553    0.058085    4.922994
  19 H     1.0000    0     1.008   -5.022193   -2.981011    4.273795
  20 H     1.0000    0     1.008   -2.940068   -0.371526    4.394348
  21 C     6.0000    0    12.011   -1.620470   -4.277605    0.691929
  22 H     1.0000    0     1.008   -3.251786   -5.490905    1.036675
  23 H     1.0000    0     1.008   -0.136729   -5.411304   -0.217657
  24 H     1.0000    0     1.008   -0.850985   -3.574768    2.467094
  25 C     6.0000    0    12.011   -3.569239   -2.981153   -3.526654
  26 H     1.0000    0     1.008   -2.256974   -4.231053   -4.537979
  27 H     1.0000    0     1.008   -5.290989   -4.046321   -3.132098
  28 H     1.0000    0     1.008   -3.967395   -1.383554   -4.759415



           ************************************************************
           *        Program running with 10 parallel MPI-processes    *
           *              working on a common directory               *
           ************************************************************


           ************************************************************
           *        Program running with 10 parallel MPI-processes    *
           *              working on a common directory               *
           ************************************************************

Diagonalization of the overlap matrix:
Smallest eigenvalue                        ... 7.777e-07
Time for diagonalization                   ...    0.328 sec
Threshold for overlap eigenvalues          ... 1.000e-08
Number of eigenvalues below threshold      ... 0
Time for construction of square roots      ...    0.270 sec
Total time needed                          ...    0.604 sec

-------------------
DFT GRID GENERATION
-------------------

General Integration Accuracy     IntAcc      ...  4.340
Radial Grid Type                 RadialGrid  ... Gauss-Chebyshev
Angular Grid (max. acc.)         AngularGrid ... Lebedev-110
Angular grid pruning method      GridPruning ... 3 (G Style)
Weight generation scheme         WeightScheme... Becke
Basis function cutoff            BFCut       ...    1.0000e-11
Integration weight cutoff        WCut        ...    1.0000e-14
Grids for H and He will be reduced by one unit

# of grid points (after initial pruning)     ...  36112 (   0.0 sec)
# of grid points (after weights+screening)   ...  32342 (   0.1 sec)
nearest neighbour list constructed           ...    0.0 sec
Grid point re-assignment to atoms done       ...    0.0 sec
Grid point division into batches done        ...    0.0 sec
Reduced shell lists constructed in    0.2 sec

Total number of grid points                  ...    32342
Total number of batches                      ...      521
Average number of points per batch           ...       62
Average number of grid points per atom       ...     1115
Average number of shells per batch           ...   290.70 (84.75%)
Average number of basis functions per batch  ...   864.59 (84.35%)
Average number of large shells per batch     ...   237.61 (81.74%)
Average number of large basis fcns per batch ...   706.54 (81.72%)
Maximum spatial batch extension              ...   3.89,  4.35,  4.10 au
Average spatial batch extension              ...   0.18,  0.18,  0.17 au

Time for grid setup =    0.341 sec

Loading Hartree-Fock densities                     ... done
Calculating cut-offs                               ... done
Setting up the integral package                    ... done
Initializing the effective Hamiltonian             ... done
Starting the Coulomb interaction                   ... done (   1.1 sec)
Reading the grid                                   ... done
Mapping shells                                     ... done
Starting the XC term evaluation                    ... done (   0.8 sec)
Transforming the Hamiltonian                       ... done (   0.2 sec)
Diagonalizing the Hamiltonian                      ... done (   0.3 sec)
Back transforming the eigenvectors                 ... done (   0.1 sec)
Now organizing SCF variables                       ... done
--------------
SCF ITERATIONS
--------------
ITER       Energy         Delta-E        Max-DP      RMS-DP      [F,P]     Damp
               ***  Starting incremental Fock matrix formation  ***
  0  -3027.5792427432   0.000000000000 0.25412588  0.00107612  0.2660686 0.7000
  1  -3027.8287029885  -0.249460245236 0.18530950  0.00083719  0.1586646 0.7000
                               ***Turning on DIIS***
  2  -3027.9962484154  -0.167545426983 0.12816097  0.00061464  0.1094631 0.7000
  3  -3029.6116519158  -1.615403500367 0.28276116  0.00153565  0.0820210 0.0000
  4  -3028.2973551782   1.314296737586 0.04567582  0.00021739  0.0200155 0.0000
  5  -3028.4145246315  -0.117169453290 0.03987716  0.00017303  0.0115303 0.0000
  6  -3028.4562600399  -0.041735408370 0.02069418  0.00007079  0.0052528 0.0000
  7  -3028.4696843616  -0.013424321688 0.00906256  0.00003271  0.0033913 0.0000
  8  -3028.4604624899   0.009221871625 0.00595273  0.00001878  0.0014984 0.0000
  9  -3028.4550343975   0.005428092475 0.00256503  0.00001102  0.0007305 0.0000
 10  -3028.4434028854   0.011631512053 0.00091918  0.00000319  0.0004017 0.0000
 11  -3028.4489913233  -0.005588437937 0.00034487  0.00000177  0.0000653 0.0000
 12  -3028.4468997601   0.002091563230 0.00048507  0.00000161  0.0000215 0.0000
 13  -3028.4469630808  -0.000063320643 0.00080557  0.00000220  0.0000094 0.0000
 14  -3028.4470102783  -0.000047197565 0.00069996  0.00000186  0.0000054 0.0000
 15  -3028.4469414516   0.000068826726 0.00055761  0.00000187  0.0000030 0.0000
 16  -3028.4469643926  -0.000022941040 0.00053255  0.00000180  0.0000018 0.0000
 17  -3028.4469816501  -0.000017257416 0.00056999  0.00000166  0.0000012 0.0000
                            ***DIIS convergence achieved***

               *****************************************************
               *                     SUCCESS                       *
               *           SCF CONVERGED AFTER  18 CYCLES          *
               *****************************************************

Total Energy       :        -3028.44696403 Eh          -82408.23144 eV
  Last Energy change         ...    1.7623e-05  Tolerance :   1.0000e-08
  Last MAX-Density change    ...    1.3770e-03  Tolerance :   1.0000e-07
             **** THE GBW FILE WAS UPDATED (simple-grid-220-270-b3lyp_d3bj-631gd-gas-singlepoint-DLPNO_CCSD_T1-NormalPNO-augtz-gas.gbw) ****
             **** DENSITY FILE WAS UPDATED (simple-grid-220-270-b3lyp_d3bj-631gd-gas-singlepoint-DLPNO_CCSD_T1-NormalPNO-augtz-gas.scfp.tmp) ****
             **** ENERGY FILE WAS UPDATED (simple-grid-220-270-b3lyp_d3bj-631gd-gas-singlepoint-DLPNO_CCSD_T1-NormalPNO-augtz-gas.en.tmp) ****
----------------------
UHF SPIN CONTAMINATION
----------------------

Expectation value of <S**2>     :     8.764626
Ideal value S*(S+1) for S=2.5   :     8.750000
Deviation                       :     0.014626

----------------
ORBITAL ENERGIES
----------------
                 SPIN UP ORBITALS
  NO   OCC          E(Eh)            E(eV) 
   0   1.0000    -261.563696     -7117.5100 
   1   1.0000    -104.786162     -2851.3764 
   2   1.0000    -104.782003     -2851.2633 
   3   1.0000    -104.780900     -2851.2333 
   4   1.0000     -32.231530      -877.0645 
   5   1.0000     -27.707757      -753.9664 
   6   1.0000     -27.707020      -753.9464 
   7   1.0000     -27.706833      -753.9413 
   8   1.0000     -20.587581      -560.2166 
   9   1.0000     -11.410120      -310.4851 
  10   1.0000     -11.310044      -307.7619 
  11   1.0000     -11.267962      -306.6168 
  12   1.0000     -11.262441      -306.4666 
  13   1.0000     -11.262370      -306.4647 
  14   1.0000     -11.262192      -306.4598 
  15   1.0000     -11.244579      -305.9805 
  16   1.0000     -11.243795      -305.9592 
  17   1.0000     -10.512841      -286.0689 
  18   1.0000     -10.508666      -285.9553 
  19   1.0000     -10.507514      -285.9240 
  20   1.0000      -7.979705      -217.1388 
  21   1.0000      -7.978886      -217.1165 
  22   1.0000      -7.978857      -217.1157 
  23   1.0000      -7.975522      -217.0250 
  24   1.0000      -7.974766      -217.0044 
  25   1.0000      -7.974705      -217.0028 
  26   1.0000      -7.974323      -216.9924 
  27   1.0000      -7.973629      -216.9735 
  28   1.0000      -7.973564      -216.9717 
  29   1.0000      -4.586674      -124.8098 
  30   1.0000      -3.199578       -87.0649 
  31   1.0000      -3.198357       -87.0317 
  32   1.0000      -3.198103       -87.0248 
  33   1.0000      -1.432251       -38.9735 
  34   1.0000      -1.152648       -31.3651 
  35   1.0000      -1.089967       -29.6595 
  36   1.0000      -1.057958       -28.7885 
  37   1.0000      -1.052091       -28.6288 
  38   1.0000      -1.049213       -28.5505 
  39   1.0000      -1.032730       -28.1020 
  40   1.0000      -0.998654       -27.1747 
  41   1.0000      -0.978131       -26.6163 
  42   1.0000      -0.932072       -25.3630 
  43   1.0000      -0.915824       -24.9208 
  44   1.0000      -0.915761       -24.9191 
  45   1.0000      -0.912799       -24.8385 
  46   1.0000      -0.906003       -24.6536 
  47   1.0000      -0.905283       -24.6340 
  48   1.0000      -0.799132       -21.7455 
  49   1.0000      -0.749976       -20.4079 
  50   1.0000      -0.694527       -18.8990 
  51   1.0000      -0.687932       -18.7196 
  52   1.0000      -0.682241       -18.5647 
  53   1.0000      -0.668440       -18.1892 
  54   1.0000      -0.638289       -17.3687 
  55   1.0000      -0.623318       -16.9613 
  56   1.0000      -0.604495       -16.4492 
  57   1.0000      -0.594761       -16.1843 
  58   1.0000      -0.582019       -15.8375 
  59   1.0000      -0.574687       -15.6380 
  60   1.0000      -0.566546       -15.4165 
  61   1.0000      -0.558772       -15.2050 
  62   1.0000      -0.555346       -15.1117 
  63   1.0000      -0.545030       -14.8310 
  64   1.0000      -0.539380       -14.6773 
  65   1.0000      -0.525431       -14.2977 
  66   1.0000      -0.512267       -13.9395 
  67   1.0000      -0.488870       -13.3028 
  68   1.0000      -0.469596       -12.7784 
  69   1.0000      -0.465470       -12.6661 
  70   1.0000      -0.437569       -11.9069 
  71   1.0000      -0.433319       -11.7912 
  72   1.0000      -0.431456       -11.7405 
  73   1.0000      -0.422707       -11.5024 
  74   1.0000      -0.421372       -11.4661 
  75   1.0000      -0.420405       -11.4398 
  76   1.0000      -0.374492       -10.1904 
  77   0.0000       0.011190         0.3045 
  78   0.0000       0.021398         0.5823 
  79   0.0000       0.022942         0.6243 
  80   0.0000       0.029297         0.7972 
  81   0.0000       0.037177         1.0116 
  82   0.0000       0.039775         1.0823 
  83   0.0000       0.041919         1.1407 
  84   0.0000       0.044493         1.2107 
  85   0.0000       0.044957         1.2233 
  86   0.0000       0.049718         1.3529 
  87   0.0000       0.057083         1.5533 
  88   0.0000       0.060922         1.6578 
  89   0.0000       0.062301         1.6953 
  90   0.0000       0.063126         1.7178 
  91   0.0000       0.064727         1.7613 
  92   0.0000       0.072025         1.9599 
  93   0.0000       0.076800         2.0898 
  94   0.0000       0.081850         2.2273 
  95   0.0000       0.089901         2.4463 
  96   0.0000       0.091530         2.4907 
  97   0.0000       0.093937         2.5562 
  98   0.0000       0.097423         2.6510 
  99   0.0000       0.099840         2.7168 
 100   0.0000       0.103508         2.8166 
 101   0.0000       0.107872         2.9353 
 102   0.0000       0.115139         3.1331 
 103   0.0000       0.122321         3.3285 
 104   0.0000       0.123630         3.3642 
 105   0.0000       0.124131         3.3778 
 106   0.0000       0.126451         3.4409 
 107   0.0000       0.128883         3.5071 
 108   0.0000       0.130572         3.5531 
 109   0.0000       0.133540         3.6338 
 110   0.0000       0.134571         3.6619 
 111   0.0000       0.138068         3.7570 
 112   0.0000       0.144567         3.9339 
 113   0.0000       0.145101         3.9484 
 114   0.0000       0.152040         4.1372 
 115   0.0000       0.152897         4.1605 
 116   0.0000       0.157182         4.2771 
 117   0.0000       0.160587         4.3698 
 118   0.0000       0.161899         4.4055 
 119   0.0000       0.167403         4.5553 
 120   0.0000       0.169825         4.6212 
 121   0.0000       0.171777         4.6743 
 122   0.0000       0.174544         4.7496 
 123   0.0000       0.179442         4.8829 
 124   0.0000       0.181514         4.9392 
 125   0.0000       0.186652         5.0791 
 126   0.0000       0.189518         5.1571 
 127   0.0000       0.190990         5.1971 
 128   0.0000       0.196373         5.3436 
 129   0.0000       0.197823         5.3830 
 130   0.0000       0.200638         5.4596 
 131   0.0000       0.201084         5.4718 
 132   0.0000       0.204790         5.5726 
 133   0.0000       0.208849         5.6831 
 134   0.0000       0.214463         5.8358 
 135   0.0000       0.218811         5.9541 
 136   0.0000       0.220040         5.9876 
 137   0.0000       0.224679         6.1138 
 138   0.0000       0.227814         6.1991 
 139   0.0000       0.232692         6.3319 
 140   0.0000       0.235075         6.3967 
 141   0.0000       0.238614         6.4930 
 142   0.0000       0.238954         6.5023 
 143   0.0000       0.242723         6.6048 
 144   0.0000       0.244760         6.6603 
 145   0.0000       0.246481         6.7071 
 146   0.0000       0.251782         6.8513 
 147   0.0000       0.257375         7.0035 
 148   0.0000       0.260126         7.0784 
 149   0.0000       0.261614         7.1189 
 150   0.0000       0.263241         7.1632 
 151   0.0000       0.269501         7.3335 
 152   0.0000       0.278882         7.5888 
 153   0.0000       0.280827         7.6417 
 154   0.0000       0.283403         7.7118 
 155   0.0000       0.285487         7.7685 
 156   0.0000       0.288207         7.8425 
 157   0.0000       0.291404         7.9295 
 158   0.0000       0.295193         8.0326 
 159   0.0000       0.303450         8.2573 
 160   0.0000       0.309585         8.4242 
 161   0.0000       0.313142         8.5210 
 162   0.0000       0.318493         8.6666 
 163   0.0000       0.320617         8.7244 
 164   0.0000       0.324712         8.8359 
 165   0.0000       0.327534         8.9127 
 166   0.0000       0.332665         9.0523 
 167   0.0000       0.336406         9.1541 
 168   0.0000       0.340334         9.2610 
 169   0.0000       0.341003         9.2792 
 170   0.0000       0.345626         9.4050 
 171   0.0000       0.352862         9.6019 
 172   0.0000       0.356029         9.6880 
 173   0.0000       0.359795         9.7905 
 174   0.0000       0.361478         9.8363 
 175   0.0000       0.366635         9.9767 
 176   0.0000       0.369972        10.0675 
 177   0.0000       0.373149        10.1539 
 178   0.0000       0.374856        10.2004 
 179   0.0000       0.379000        10.3131 
 180   0.0000       0.382163        10.3992 
 181   0.0000       0.385240        10.4829 
 182   0.0000       0.386250        10.5104 
 183   0.0000       0.387393        10.5415 
 184   0.0000       0.388691        10.5768 
 185   0.0000       0.391689        10.6584 
 186   0.0000       0.396773        10.7967 
 187   0.0000       0.398706        10.8493 
 188   0.0000       0.401992        10.9388 
 189   0.0000       0.406007        11.0480 
 190   0.0000       0.414475        11.2785 
 191   0.0000       0.415001        11.2927 
 192   0.0000       0.422236        11.4896 
 193   0.0000       0.424677        11.5561 
 194   0.0000       0.428635        11.6638 
 195   0.0000       0.434847        11.8328 
 196   0.0000       0.436796        11.8858 
 197   0.0000       0.442912        12.0523 
 198   0.0000       0.444796        12.1035 
 199   0.0000       0.446270        12.1436 
 200   0.0000       0.450847        12.2682 
 201   0.0000       0.453083        12.3290 
 202   0.0000       0.454262        12.3611 
 203   0.0000       0.461041        12.5456 
 204   0.0000       0.463062        12.6006 
 205   0.0000       0.466620        12.6974 
 206   0.0000       0.472593        12.8599 
 207   0.0000       0.473799        12.8927 
 208   0.0000       0.478524        13.0213 
 209   0.0000       0.481091        13.0911 
 210   0.0000       0.484724        13.1900 
 211   0.0000       0.489558        13.3216 
 212   0.0000       0.491211        13.3665 
 213   0.0000       0.495297        13.4777 
 214   0.0000       0.499915        13.6034 
 215   0.0000       0.500213        13.6115 
 216   0.0000       0.504888        13.7387 
 217   0.0000       0.507720        13.8158 
 218   0.0000       0.513620        13.9763 
 219   0.0000       0.514445        13.9988 
 220   0.0000       0.515810        14.0359 
 221   0.0000       0.517826        14.0908 
 222   0.0000       0.523704        14.2507 
 223   0.0000       0.525064        14.2877 
 224   0.0000       0.528889        14.3918 
 225   0.0000       0.531110        14.4523 
 226   0.0000       0.533441        14.5157 
 227   0.0000       0.537598        14.6288 
 228   0.0000       0.541411        14.7325 
 229   0.0000       0.544214        14.8088 
 230   0.0000       0.545631        14.8474 
 231   0.0000       0.555160        15.1067 
 232   0.0000       0.556225        15.1357 
 233   0.0000       0.558067        15.1858 
 234   0.0000       0.564270        15.3546 
 235   0.0000       0.567324        15.4377 
 236   0.0000       0.572320        15.5736 
 237   0.0000       0.574124        15.6227 
 238   0.0000       0.577273        15.7084 
 239   0.0000       0.585757        15.9392 
 240   0.0000       0.588673        16.0186 
 241   0.0000       0.589359        16.0373 
 242   0.0000       0.591166        16.0864 
 243   0.0000       0.594454        16.1759 
 244   0.0000       0.599912        16.3244 
 245   0.0000       0.602152        16.3854 
 246   0.0000       0.605169        16.4675 
 247   0.0000       0.611967        16.6525 
 248   0.0000       0.616866        16.7858 
 249   0.0000       0.618342        16.8259 
 250   0.0000       0.624843        17.0028 
 251   0.0000       0.628174        17.0935 
 252   0.0000       0.630395        17.1539 
 253   0.0000       0.634812        17.2741 
 254   0.0000       0.640715        17.4347 
 255   0.0000       0.646043        17.5797 
 256   0.0000       0.649472        17.6730 
 257   0.0000       0.650581        17.7032 
 258   0.0000       0.657589        17.8939 
 259   0.0000       0.662258        18.0209 
 260   0.0000       0.664633        18.0856 
 261   0.0000       0.665921        18.1206 
 262   0.0000       0.669057        18.2060 
 263   0.0000       0.672449        18.2983 
 264   0.0000       0.676587        18.4109 
 265   0.0000       0.684148        18.6166 
 266   0.0000       0.689726        18.7684 
 267   0.0000       0.693401        18.8684 
 268   0.0000       0.697024        18.9670 
 269   0.0000       0.699936        19.0462 
 270   0.0000       0.703679        19.1481 
 271   0.0000       0.712625        19.3915 
 272   0.0000       0.713928        19.4270 
 273   0.0000       0.719730        19.5849 
 274   0.0000       0.722007        19.6468 
 275   0.0000       0.730359        19.8741 
 276   0.0000       0.731610        19.9081 
 277   0.0000       0.735541        20.0151 
 278   0.0000       0.740529        20.1508 
 279   0.0000       0.743980        20.2447 
 280   0.0000       0.747557        20.3421 
 281   0.0000       0.748566        20.3695 
 282   0.0000       0.763764        20.7831 
 283   0.0000       0.767647        20.8887 
 284   0.0000       0.772281        21.0148 
 285   0.0000       0.778914        21.1953 
 286   0.0000       0.783460        21.3190 
 287   0.0000       0.789478        21.4828 
 288   0.0000       0.797822        21.7098 
 289   0.0000       0.802474        21.8364 
 290   0.0000       0.814928        22.1753 
 291   0.0000       0.819314        22.2947 
 292   0.0000       0.822651        22.3855 
 293   0.0000       0.832015        22.6403 
 294   0.0000       0.833362        22.6769 
 295   0.0000       0.838867        22.8267 
 296   0.0000       0.841287        22.8926 
 297   0.0000       0.845149        22.9977 
 298   0.0000       0.852781        23.2053 
 299   0.0000       0.855596        23.2820 
 300   0.0000       0.863345        23.4928 
 301   0.0000       0.866360        23.5748 
 302   0.0000       0.869938        23.6722 
 303   0.0000       0.873129        23.7590 
 304   0.0000       0.878988        23.9185 
 305   0.0000       0.883826        24.0501 
 306   0.0000       0.887705        24.1557 
 307   0.0000       0.893335        24.3089 
 308   0.0000       0.905495        24.6398 
 309   0.0000       0.906855        24.6768 
 310   0.0000       0.912363        24.8267 
 311   0.0000       0.918204        24.9856 
 312   0.0000       0.924043        25.1445 
 313   0.0000       0.924820        25.1656 
 314   0.0000       0.926058        25.1993 
 315   0.0000       0.932249        25.3678 
 316   0.0000       0.934582        25.4313 
 317   0.0000       0.937750        25.5175 
 318   0.0000       0.939857        25.5748 
 319   0.0000       0.940898        25.6031 
 320   0.0000       0.942572        25.6487 
 321   0.0000       0.949256        25.8306 
 322   0.0000       0.955299        25.9950 
 323   0.0000       0.957954        26.0673 
 324   0.0000       0.961941        26.1757 
 325   0.0000       0.965294        26.2670 
 326   0.0000       0.970029        26.3958 
 327   0.0000       0.971530        26.4367 
 328   0.0000       0.976076        26.5604 
 329   0.0000       0.981066        26.6962 
 330   0.0000       0.984108        26.7789 
 331   0.0000       0.990065        26.9410 
 332   0.0000       0.991484        26.9796 
 333   0.0000       0.993089        27.0233 
 334   0.0000       0.998615        27.1737 
 335   0.0000       1.001926        27.2638 
 336   0.0000       1.004274        27.3277 
 337   0.0000       1.013292        27.5731 
 338   0.0000       1.015317        27.6282 
 339   0.0000       1.022665        27.8281 
 340   0.0000       1.023056        27.8388 
 341   0.0000       1.026395        27.9296 
 342   0.0000       1.029418        28.0119 
 343   0.0000       1.031365        28.0649 
 344   0.0000       1.036477        28.2040 
 345   0.0000       1.037569        28.2337 
 346   0.0000       1.041491        28.3404 
 347   0.0000       1.044698        28.4277 
 348   0.0000       1.049281        28.5524 
 349   0.0000       1.054827        28.7033 
 350   0.0000       1.057348        28.7719 
 351   0.0000       1.058394        28.8004 
 352   0.0000       1.062619        28.9153 
 353   0.0000       1.069047        29.0903 
 354   0.0000       1.074648        29.2427 
 355   0.0000       1.078731        29.3538 
 356   0.0000       1.083200        29.4754 
 357   0.0000       1.084416        29.5085 
 358   0.0000       1.089398        29.6440 
 359   0.0000       1.090493        29.6738 
 360   0.0000       1.093080        29.7442 
 361   0.0000       1.098333        29.8872 
 362   0.0000       1.102977        30.0135 
 363   0.0000       1.105005        30.0687 
 364   0.0000       1.112260        30.2661 
 365   0.0000       1.115121        30.3440 
 366   0.0000       1.122706        30.5504 
 367   0.0000       1.127732        30.6872 
 368   0.0000       1.128352        30.7040 
 369   0.0000       1.131347        30.7855 
 370   0.0000       1.133087        30.8329 
 371   0.0000       1.140833        31.0436 
 372   0.0000       1.143464        31.1152 
 373   0.0000       1.147414        31.2227 
 374   0.0000       1.157171        31.4882 
 375   0.0000       1.166311        31.7369 
 376   0.0000       1.168053        31.7843 
 377   0.0000       1.170746        31.8576 
 378   0.0000       1.174065        31.9479 
 379   0.0000       1.181540        32.1513 
 380   0.0000       1.181979        32.1633 
 381   0.0000       1.189206        32.3599 
 382   0.0000       1.191857        32.4321 
 383   0.0000       1.198763        32.6200 
 384   0.0000       1.201391        32.6915 
 385   0.0000       1.201685        32.6995 
 386   0.0000       1.207266        32.8514 
 387   0.0000       1.215427        33.0735 
 388   0.0000       1.222930        33.2776 
 389   0.0000       1.229446        33.4549 
 390   0.0000       1.235610        33.6226 
 391   0.0000       1.239121        33.7182 
 392   0.0000       1.240352        33.7517 
 393   0.0000       1.245125        33.8816 
 394   0.0000       1.246287        33.9132 
 395   0.0000       1.251991        34.0684 
 396   0.0000       1.257255        34.2116 
 397   0.0000       1.262017        34.3412 
 398   0.0000       1.266190        34.4548 
 399   0.0000       1.273165        34.6446 
 400   0.0000       1.277432        34.7607 
 401   0.0000       1.283882        34.9362 
 402   0.0000       1.286393        35.0045 
 403   0.0000       1.292264        35.1643 
 404   0.0000       1.298437        35.3323 
 405   0.0000       1.306325        35.5469 
 406   0.0000       1.308853        35.6157 
 407   0.0000       1.311874        35.6979 
 408   0.0000       1.317851        35.8606 
 409   0.0000       1.321727        35.9660 
 410   0.0000       1.326890        36.1065 
 411   0.0000       1.328800        36.1585 
 412   0.0000       1.333972        36.2992 
 413   0.0000       1.340079        36.4654 
 414   0.0000       1.347478        36.6667 
 415   0.0000       1.352381        36.8002 
 416   0.0000       1.355363        36.8813 
 417   0.0000       1.362787        37.0833 
 418   0.0000       1.368492        37.2386 
 419   0.0000       1.371171        37.3114 
 420   0.0000       1.379801        37.5463 
 421   0.0000       1.382429        37.6178 
 422   0.0000       1.392348        37.8877 
 423   0.0000       1.396755        38.0076 
 424   0.0000       1.399535        38.0833 
 425   0.0000       1.409313        38.3493 
 426   0.0000       1.412336        38.4316 
 427   0.0000       1.420620        38.6570 
 428   0.0000       1.422276        38.7021 
 429   0.0000       1.426468        38.8162 
 430   0.0000       1.432121        38.9700 
 431   0.0000       1.434235        39.0275 
 432   0.0000       1.439141        39.1610 
 433   0.0000       1.447275        39.3824 
 434   0.0000       1.456247        39.6265 
 435   0.0000       1.459077        39.7035 
 436   0.0000       1.464893        39.8618 
 437   0.0000       1.470227        40.0069 
 438   0.0000       1.477573        40.2068 
 439   0.0000       1.482788        40.3487 
 440   0.0000       1.489951        40.5436 
 441   0.0000       1.494926        40.6790 
 442   0.0000       1.501843        40.8672 
 443   0.0000       1.502257        40.8785 
 444   0.0000       1.508364        41.0447 
 445   0.0000       1.515578        41.2410 
 446   0.0000       1.522087        41.4181 
 447   0.0000       1.525403        41.5083 
 448   0.0000       1.529130        41.6098 
 449   0.0000       1.536258        41.8037 
 450   0.0000       1.537455        41.8363 
 451   0.0000       1.541607        41.9493 
 452   0.0000       1.547829        42.1186 
 453   0.0000       1.551261        42.2119 
 454   0.0000       1.552291        42.2400 
 455   0.0000       1.565914        42.6107 
 456   0.0000       1.569156        42.6989 
 457   0.0000       1.579126        42.9702 
 458   0.0000       1.583103        43.0784 
 459   0.0000       1.584227        43.1090 
 460   0.0000       1.588234        43.2180 
 461   0.0000       1.589834        43.2616 
 462   0.0000       1.597952        43.4825 
 463   0.0000       1.610059        43.8119 
 464   0.0000       1.611073        43.8395 
 465   0.0000       1.619877        44.0791 
 466   0.0000       1.623289        44.1719 
 467   0.0000       1.630578        44.3703 
 468   0.0000       1.637081        44.5472 
 469   0.0000       1.639526        44.6138 
 470   0.0000       1.644152        44.7396 
 471   0.0000       1.646014        44.7903 
 472   0.0000       1.649920        44.8966 
 473   0.0000       1.657259        45.0963 
 474   0.0000       1.662344        45.2347 
 475   0.0000       1.665599        45.3233 
 476   0.0000       1.672108        45.5004 
 477   0.0000       1.678073        45.6627 
 478   0.0000       1.681248        45.7491 
 479   0.0000       1.693561        46.0841 
 480   0.0000       1.698035        46.2059 
 481   0.0000       1.700301        46.2675 
 482   0.0000       1.701362        46.2964 
 483   0.0000       1.709454        46.5166 
 484   0.0000       1.719444        46.7885 
 485   0.0000       1.720243        46.8102 
 486   0.0000       1.725476        46.9526 
 487   0.0000       1.733889        47.1815 
 488   0.0000       1.735863        47.2352 
 489   0.0000       1.743128        47.4329 
 490   0.0000       1.753387        47.7121 
 491   0.0000       1.756960        47.8093 
 492   0.0000       1.758582        47.8535 
 493   0.0000       1.764518        48.0150 
 494   0.0000       1.770567        48.1796 
 495   0.0000       1.771607        48.2079 
 496   0.0000       1.779291        48.4170 
 497   0.0000       1.784111        48.5481 
 498   0.0000       1.786201        48.6050 
 499   0.0000       1.794385        48.8277 
 500   0.0000       1.800414        48.9918 
 501   0.0000       1.807367        49.1809 
 502   0.0000       1.811748        49.3002 
 503   0.0000       1.814096        49.3641 
 504   0.0000       1.821175        49.5567 
 505   0.0000       1.825337        49.6699 
 506   0.0000       1.830571        49.8124 
 507   0.0000       1.839364        50.0516 
 508   0.0000       1.847543        50.2742 
 509   0.0000       1.851658        50.3862 
 510   0.0000       1.857892        50.5558 
 511   0.0000       1.859253        50.5929 
 512   0.0000       1.862490        50.6809 
 513   0.0000       1.872774        50.9608 
 514   0.0000       1.873551        50.9819 
 515   0.0000       1.879570        51.1457 
 516   0.0000       1.885752        51.3139 
 517   0.0000       1.890803        51.4514 
 518   0.0000       1.893963        51.5373 
 519   0.0000       1.899765        51.6952 
 520   0.0000       1.900747        51.7220 
 521   0.0000       1.905335        51.8468 
 522   0.0000       1.907345        51.9015 
 523   0.0000       1.914024        52.0832 
 524   0.0000       1.923963        52.3537 
 525   0.0000       1.926533        52.4236 
 526   0.0000       1.932993        52.5994 
 527   0.0000       1.937485        52.7216 
 528   0.0000       1.948401        53.0187 
 529   0.0000       1.950423        53.0737 
 530   0.0000       1.953334        53.1529 
 531   0.0000       1.957410        53.2638 
 532   0.0000       1.964458        53.4556 
 533   0.0000       1.968879        53.5759 
 534   0.0000       1.977991        53.8239 
 535   0.0000       1.988812        54.1183 
 536   0.0000       1.993069        54.2342 
 537   0.0000       1.998716        54.3878 
 538   0.0000       2.002097        54.4798 
 539   0.0000       2.016403        54.8691 
 540   0.0000       2.019814        54.9619 
 541   0.0000       2.032233        55.2999 
 542   0.0000       2.036434        55.4142 
 543   0.0000       2.039157        55.4883 
 544   0.0000       2.042381        55.5760 
 545   0.0000       2.055720        55.9390 
 546   0.0000       2.059066        56.0300 
 547   0.0000       2.064794        56.1859 
 548   0.0000       2.066240        56.2253 
 549   0.0000       2.080537        56.6143 
 550   0.0000       2.085168        56.7403 
 551   0.0000       2.093804        56.9753 
 552   0.0000       2.097823        57.0847 
 553   0.0000       2.103754        57.2461 
 554   0.0000       2.112718        57.4900 
 555   0.0000       2.119749        57.6813 
 556   0.0000       2.124043        57.7982 
 557   0.0000       2.134624        58.0861 
 558   0.0000       2.140651        58.2501 
 559   0.0000       2.142236        58.2932 
 560   0.0000       2.149286        58.4851 
 561   0.0000       2.157058        58.6965 
 562   0.0000       2.164412        58.8966 
 563   0.0000       2.173013        59.1307 
 564   0.0000       2.185144        59.4608 
 565   0.0000       2.193332        59.6836 
 566   0.0000       2.195177        59.7338 
 567   0.0000       2.204018        59.9744 
 568   0.0000       2.207112        60.0586 
 569   0.0000       2.217588        60.3436 
 570   0.0000       2.223415        60.5022 
 571   0.0000       2.226299        60.5807 
 572   0.0000       2.237299        60.8800 
 573   0.0000       2.239925        60.9515 
 574   0.0000       2.253889        61.3314 
 575   0.0000       2.256377        61.3991 
 576   0.0000       2.265978        61.6604 
 577   0.0000       2.271145        61.8010 
 578   0.0000       2.283093        62.1261 
 579   0.0000       2.288343        62.2690 
 580   0.0000       2.296522        62.4915 
 581   0.0000       2.299192        62.5642 
 582   0.0000       2.312435        62.9246 
 583   0.0000       2.320071        63.1323 
 584   0.0000       2.325966        63.2927 
 585   0.0000       2.338914        63.6451 
 586   0.0000       2.347307        63.8735 
 587   0.0000       2.352168        64.0057 
 588   0.0000       2.356768        64.1309 
 589   0.0000       2.361870        64.2698 
 590   0.0000       2.368197        64.4419 
 591   0.0000       2.378300        64.7168 
 592   0.0000       2.379869        64.7595 
 593   0.0000       2.393314        65.1254 
 594   0.0000       2.400658        65.3252 
 595   0.0000       2.410859        65.6028 
 596   0.0000       2.415901        65.7400 
 597   0.0000       2.425129        65.9911 
 598   0.0000       2.432172        66.1828 
 599   0.0000       2.438609        66.3579 
 600   0.0000       2.445079        66.5340 
 601   0.0000       2.448286        66.6212 
 602   0.0000       2.460032        66.9409 
 603   0.0000       2.467055        67.1320 
 604   0.0000       2.471467        67.2520 
 605   0.0000       2.486236        67.6539 
 606   0.0000       2.501052        68.0571 
 607   0.0000       2.514132        68.4130 
 608   0.0000       2.516960        68.4900 
 609   0.0000       2.528797        68.8121 
 610   0.0000       2.537568        69.0507 
 611   0.0000       2.546070        69.2821 
 612   0.0000       2.565508        69.8110 
 613   0.0000       2.588123        70.4264 
 614   0.0000       2.595612        70.6302 
 615   0.0000       2.598673        70.7135 
 616   0.0000       2.610193        71.0270 
 617   0.0000       2.626199        71.4625 
 618   0.0000       2.639200        71.8163 
 619   0.0000       2.643266        71.9269 
 620   0.0000       2.659017        72.3555 
 621   0.0000       2.665556        72.5335 
 622   0.0000       2.672849        72.7319 
 623   0.0000       2.679764        72.9201 
 624   0.0000       2.684513        73.0493 
 625   0.0000       2.696581        73.3777 
 626   0.0000       2.710226        73.7490 
 627   0.0000       2.714536        73.8663 
 628   0.0000       2.723474        74.1095 
 629   0.0000       2.735008        74.4233 
 630   0.0000       2.742086        74.6160 
 631   0.0000       2.761714        75.1500 
 632   0.0000       2.775322        75.5203 
 633   0.0000       2.780754        75.6681 
 634   0.0000       2.790005        75.9199 
 635   0.0000       2.798898        76.1619 
 636   0.0000       2.805232        76.3342 
 637   0.0000       2.817938        76.6800 
 638   0.0000       2.829323        76.9898 
 639   0.0000       2.842238        77.3412 
 640   0.0000       2.860921        77.8496 
 641   0.0000       2.869132        78.0731 
 642   0.0000       2.872907        78.1758 
 643   0.0000       2.880671        78.3871 
 644   0.0000       2.891679        78.6866 
 645   0.0000       2.897145        78.8353 
 646   0.0000       2.912335        79.2487 
 647   0.0000       2.925464        79.6059 
 648   0.0000       2.948219        80.2251 
 649   0.0000       2.957087        80.4664 
 650   0.0000       2.960858        80.5690 
 651   0.0000       2.971908        80.8697 
 652   0.0000       2.983414        81.1828 
 653   0.0000       3.013480        82.0010 
 654   0.0000       3.028794        82.4177 
 655   0.0000       3.055940        83.1564 
 656   0.0000       3.066263        83.4373 
 657   0.0000       3.083289        83.9006 
 658   0.0000       3.088531        84.0432 
 659   0.0000       3.104566        84.4795 
 660   0.0000       3.118231        84.8514 
 661   0.0000       3.135765        85.3285 
 662   0.0000       3.146402        85.6180 
 663   0.0000       3.172754        86.3350 
 664   0.0000       3.175765        86.4169 
 665   0.0000       3.192098        86.8614 
 666   0.0000       3.199734        87.0692 
 667   0.0000       3.210722        87.3682 
 668   0.0000       3.222582        87.6909 
 669   0.0000       3.228866        87.8619 
 670   0.0000       3.238240        88.1170 
 671   0.0000       3.241051        88.1935 
 672   0.0000       3.253855        88.5419 
 673   0.0000       3.261014        88.7367 
 674   0.0000       3.271397        89.0192 
 675   0.0000       3.278263        89.2061 
 676   0.0000       3.288209        89.4767 
 677   0.0000       3.290546        89.5403 
 678   0.0000       3.304927        89.9316 
 679   0.0000       3.314493        90.1919 
 680   0.0000       3.329799        90.6084 
 681   0.0000       3.335577        90.7657 
 682   0.0000       3.336430        90.7889 
 683   0.0000       3.347604        91.0929 
 684   0.0000       3.360499        91.4438 
 685   0.0000       3.364165        91.5436 
 686   0.0000       3.365081        91.5685 
 687   0.0000       3.401659        92.5639 
 688   0.0000       3.404431        92.6393 
 689   0.0000       3.422754        93.1379 
 690   0.0000       3.425399        93.2098 
 691   0.0000       3.445641        93.7607 
 692   0.0000       3.455943        94.0410 
 693   0.0000       3.464910        94.2850 
 694   0.0000       3.467600        94.3582 
 695   0.0000       3.475020        94.5601 
 696   0.0000       3.485306        94.8400 
 697   0.0000       3.495695        95.1227 
 698   0.0000       3.504271        95.3561 
 699   0.0000       3.505878        95.3998 
 700   0.0000       3.514611        95.6374 
 701   0.0000       3.521252        95.8181 
 702   0.0000       3.530125        96.0596 
 703   0.0000       3.538117        96.2771 
 704   0.0000       3.542984        96.4095 
 705   0.0000       3.556112        96.7667 
 706   0.0000       3.559761        96.8660 
 707   0.0000       3.560211        96.8783 
 708   0.0000       3.571185        97.1769 
 709   0.0000       3.585557        97.5680 
 710   0.0000       3.587636        97.6245 
 711   0.0000       3.600555        97.9761 
 712   0.0000       3.602785        98.0368 
 713   0.0000       3.615906        98.3938 
 714   0.0000       3.633101        98.8617 
 715   0.0000       3.637939        98.9933 
 716   0.0000       3.646112        99.2157 
 717   0.0000       3.653184        99.4082 
 718   0.0000       3.662221        99.6541 
 719   0.0000       3.669329        99.8475 
 720   0.0000       3.676420       100.0405 
 721   0.0000       3.686498       100.3147 
 722   0.0000       3.692455       100.4768 
 723   0.0000       3.699623       100.6718 
 724   0.0000       3.703758       100.7844 
 725   0.0000       3.720398       101.2372 
 726   0.0000       3.724876       101.3590 
 727   0.0000       3.727871       101.4405 
 728   0.0000       3.735199       101.6399 
 729   0.0000       3.745116       101.9098 
 730   0.0000       3.753008       102.1245 
 731   0.0000       3.755876       102.2026 
 732   0.0000       3.763217       102.4023 
 733   0.0000       3.773764       102.6893 
 734   0.0000       3.785370       103.0051 
 735   0.0000       3.788731       103.0966 
 736   0.0000       3.791108       103.1613 
 737   0.0000       3.798266       103.3561 
 738   0.0000       3.803695       103.5038 
 739   0.0000       3.814570       103.7997 
 740   0.0000       3.822051       104.0033 
 741   0.0000       3.837524       104.4244 
 742   0.0000       3.839383       104.4749 
 743   0.0000       3.849663       104.7546 
 744   0.0000       3.856019       104.9276 
 745   0.0000       3.864522       105.1590 
 746   0.0000       3.870967       105.3344 
 747   0.0000       3.884697       105.7080 
 748   0.0000       3.890003       105.8524 
 749   0.0000       3.893497       105.9474 
 750   0.0000       3.897412       106.0540 
 751   0.0000       3.910157       106.4008 
 752   0.0000       3.915113       106.5356 
 753   0.0000       3.921983       106.7226 
 754   0.0000       3.927336       106.8682 
 755   0.0000       3.934485       107.0628 
 756   0.0000       3.936347       107.1135 
 757   0.0000       3.946330       107.3851 
 758   0.0000       3.952964       107.5656 
 759   0.0000       3.961507       107.7981 
 760   0.0000       3.966076       107.9224 
 761   0.0000       3.971708       108.0757 
 762   0.0000       3.977121       108.2230 
 763   0.0000       3.983069       108.3848 
 764   0.0000       3.989244       108.5529 
 765   0.0000       3.998028       108.7919 
 766   0.0000       4.002588       108.9160 
 767   0.0000       4.013147       109.2033 
 768   0.0000       4.031603       109.7055 
 769   0.0000       4.032671       109.7346 
 770   0.0000       4.040015       109.9344 
 771   0.0000       4.045049       110.0714 
 772   0.0000       4.054077       110.3170 
 773   0.0000       4.058151       110.4279 
 774   0.0000       4.063453       110.5722 
 775   0.0000       4.065984       110.6410 
 776   0.0000       4.083456       111.1165 
 777   0.0000       4.090910       111.3193 
 778   0.0000       4.099758       111.5601 
 779   0.0000       4.111033       111.8669 
 780   0.0000       4.119798       112.1054 
 781   0.0000       4.121082       112.1403 
 782   0.0000       4.130878       112.4069 
 783   0.0000       4.135979       112.5457 
 784   0.0000       4.142111       112.7126 
 785   0.0000       4.149097       112.9027 
 786   0.0000       4.162495       113.2673 
 787   0.0000       4.173546       113.5679 
 788   0.0000       4.179646       113.7339 
 789   0.0000       4.180028       113.7443 
 790   0.0000       4.196548       114.1939 
 791   0.0000       4.206427       114.4627 
 792   0.0000       4.216803       114.7451 
 793   0.0000       4.229670       115.0952 
 794   0.0000       4.235547       115.2551 
 795   0.0000       4.244893       115.5094 
 796   0.0000       4.249322       115.6299 
 797   0.0000       4.267366       116.1209 
 798   0.0000       4.285852       116.6240 
 799   0.0000       4.286729       116.6478 
 800   0.0000       4.290631       116.7540 
 801   0.0000       4.297993       116.9543 
 802   0.0000       4.312088       117.3379 
 803   0.0000       4.313057       117.3643 
 804   0.0000       4.327693       117.7625 
 805   0.0000       4.335242       117.9679 
 806   0.0000       4.341108       118.1276 
 807   0.0000       4.349308       118.3507 
 808   0.0000       4.350654       118.3873 
 809   0.0000       4.363355       118.7329 
 810   0.0000       4.373062       118.9971 
 811   0.0000       4.379549       119.1736 
 812   0.0000       4.386985       119.3759 
 813   0.0000       4.404871       119.8626 
 814   0.0000       4.412000       120.0566 
 815   0.0000       4.414816       120.1333 
 816   0.0000       4.427132       120.4684 
 817   0.0000       4.437226       120.7431 
 818   0.0000       4.447708       121.0283 
 819   0.0000       4.464093       121.4742 
 820   0.0000       4.473482       121.7296 
 821   0.0000       4.487934       122.1229 
 822   0.0000       4.494712       122.3073 
 823   0.0000       4.500270       122.4586 
 824   0.0000       4.513765       122.8258 
 825   0.0000       4.518991       122.9680 
 826   0.0000       4.527124       123.1893 
 827   0.0000       4.539698       123.5315 
 828   0.0000       4.541073       123.5689 
 829   0.0000       4.551150       123.8431 
 830   0.0000       4.555552       123.9629 
 831   0.0000       4.560430       124.0956 
 832   0.0000       4.569778       124.3500 
 833   0.0000       4.593206       124.9875 
 834   0.0000       4.604747       125.3015 
 835   0.0000       4.613036       125.5271 
 836   0.0000       4.625668       125.8708 
 837   0.0000       4.631147       126.0199 
 838   0.0000       4.656990       126.7231 
 839   0.0000       4.670012       127.0775 
 840   0.0000       4.673177       127.1636 
 841   0.0000       4.682146       127.4077 
 842   0.0000       4.687474       127.5526 
 843   0.0000       4.701456       127.9331 
 844   0.0000       4.713964       128.2735 
 845   0.0000       4.717516       128.3701 
 846   0.0000       4.726292       128.6089 
 847   0.0000       4.745810       129.1401 
 848   0.0000       4.755216       129.3960 
 849   0.0000       4.763224       129.6139 
 850   0.0000       4.781643       130.1151 
 851   0.0000       4.793433       130.4360 
 852   0.0000       4.801853       130.6651 
 853   0.0000       4.809761       130.8802 
 854   0.0000       4.823997       131.2676 
 855   0.0000       4.832013       131.4858 
 856   0.0000       4.848309       131.9292 
 857   0.0000       4.863473       132.3418 
 858   0.0000       4.870482       132.5326 
 859   0.0000       4.893215       133.1511 
 860   0.0000       4.899769       133.3295 
 861   0.0000       4.909142       133.5845 
 862   0.0000       4.924067       133.9907 
 863   0.0000       4.930151       134.1562 
 864   0.0000       4.936088       134.3178 
 865   0.0000       4.954508       134.8190 
 866   0.0000       4.968195       135.1915 
 867   0.0000       4.976813       135.4260 
 868   0.0000       4.984548       135.6364 
 869   0.0000       5.005276       136.2005 
 870   0.0000       5.010035       136.3300 
 871   0.0000       5.013936       136.4361 
 872   0.0000       5.031534       136.9150 
 873   0.0000       5.034495       136.9956 
 874   0.0000       5.044331       137.2632 
 875   0.0000       5.057011       137.6083 
 876   0.0000       5.076303       138.1332 
 877   0.0000       5.084316       138.3513 
 878   0.0000       5.099644       138.7684 
 879   0.0000       5.119835       139.3178 
 880   0.0000       5.130325       139.6032 
 881   0.0000       5.131176       139.6264 
 882   0.0000       5.140866       139.8901 
 883   0.0000       5.155820       140.2970 
 884   0.0000       5.165836       140.5695 
 885   0.0000       5.174038       140.7927 
 886   0.0000       5.193100       141.3114 
 887   0.0000       5.193790       141.3302 
 888   0.0000       5.219301       142.0244 
 889   0.0000       5.233770       142.4181 
 890   0.0000       5.237656       142.5239 
 891   0.0000       5.249130       142.8361 
 892   0.0000       5.261271       143.1665 
 893   0.0000       5.266836       143.3179 
 894   0.0000       5.275966       143.5663 
 895   0.0000       5.300393       144.2310 
 896   0.0000       5.305361       144.3662 
 897   0.0000       5.316545       144.6706 
 898   0.0000       5.326912       144.9526 
 899   0.0000       5.349532       145.5682 
 900   0.0000       5.361036       145.8812 
 901   0.0000       5.380910       146.4220 
 902   0.0000       5.386522       146.5747 
 903   0.0000       5.403922       147.0482 
 904   0.0000       5.428871       147.7271 
 905   0.0000       5.433388       147.8500 
 906   0.0000       5.438509       147.9893 
 907   0.0000       5.462582       148.6444 
 908   0.0000       5.467394       148.7754 
 909   0.0000       5.473951       148.9538 
 910   0.0000       5.476695       149.0285 
 911   0.0000       5.484410       149.2384 
 912   0.0000       5.496797       149.5754 
 913   0.0000       5.507081       149.8553 
 914   0.0000       5.528571       150.4401 
 915   0.0000       5.548721       150.9884 
 916   0.0000       5.568523       151.5272 
 917   0.0000       5.574072       151.6782 
 918   0.0000       5.585338       151.9848 
 919   0.0000       5.595685       152.2663 
 920   0.0000       5.605734       152.5398 
 921   0.0000       5.608049       152.6028 
 922   0.0000       5.623778       153.0308 
 923   0.0000       5.626723       153.1109 
 924   0.0000       5.643159       153.5582 
 925   0.0000       5.654807       153.8751 
 926   0.0000       5.665077       154.1546 
 927   0.0000       5.673058       154.3717 
 928   0.0000       5.688157       154.7826 
 929   0.0000       5.695590       154.9849 
 930   0.0000       5.699136       155.0814 
 931   0.0000       5.720379       155.6594 
 932   0.0000       5.727394       155.8503 
 933   0.0000       5.746890       156.3808 
 934   0.0000       5.765867       156.8972 
 935   0.0000       5.771811       157.0590 
 936   0.0000       5.784015       157.3910 
 937   0.0000       5.799124       157.8022 
 938   0.0000       5.816350       158.2709 
 939   0.0000       5.833256       158.7310 
 940   0.0000       5.850169       159.1912 
 941   0.0000       5.858438       159.4162 
 942   0.0000       5.883530       160.0990 
 943   0.0000       5.903465       160.6414 
 944   0.0000       5.915318       160.9640 
 945   0.0000       6.026264       163.9830 
 946   0.0000       6.059981       164.9005 
 947   0.0000       6.074596       165.2982 
 948   0.0000       6.109592       166.2505 
 949   0.0000       6.121092       166.5634 
 950   0.0000       6.151646       167.3948 
 951   0.0000       6.158697       167.5867 
 952   0.0000       6.183342       168.2573 
 953   0.0000       6.190342       168.4478 
 954   0.0000       6.223571       169.3520 
 955   0.0000       6.246145       169.9662 
 956   0.0000       6.251234       170.1047 
 957   0.0000       6.259794       170.3377 
 958   0.0000       6.278133       170.8367 
 959   0.0000       6.289851       171.1556 
 960   0.0000       6.312331       171.7672 
 961   0.0000       6.319084       171.9510 
 962   0.0000       6.343995       172.6289 
 963   0.0000       6.359868       173.0608 
 964   0.0000       6.376781       173.5210 
 965   0.0000       6.380770       173.6296 
 966   0.0000       6.395311       174.0253 
 967   0.0000       6.414275       174.5413 
 968   0.0000       6.472225       176.1182 
 969   0.0000       6.531906       177.7422 
 970   0.0000       6.564255       178.6225 
 971   0.0000       6.680016       181.7725 
 972   0.0000       6.824573       185.7061 
 973   0.0000       6.858363       186.6256 
 974   0.0000       6.893727       187.5879 
 975   0.0000       6.902382       187.8234 
 976   0.0000       6.926927       188.4913 
 977   0.0000       6.954953       189.2539 
 978   0.0000       6.974937       189.7977 
 979   0.0000       7.009225       190.7307 
 980   0.0000       7.011277       190.7866 
 981   0.0000       7.020877       191.0478 
 982   0.0000       7.037983       191.5132 
 983   0.0000       7.072631       192.4561 
 984   0.0000       7.095252       193.0716 
 985   0.0000       7.156030       194.7255 
 986   0.0000       7.277862       198.0407 
 987   0.0000       7.345037       199.8686 
 988   0.0000       7.395941       201.2538 
 989   0.0000       7.449960       202.7237 
 990   0.0000       7.530997       204.9288 
 991   0.0000       7.610429       207.0903 
 992   0.0000       7.688752       209.2216 
 993   0.0000       7.700745       209.5479 
 994   0.0000       7.795959       212.1388 
 995   0.0000       7.919395       215.4977 
 996   0.0000       7.971097       216.9046 
 997   0.0000       8.051325       219.0877 
 998   0.0000       8.305252       225.9974 
 999   0.0000       9.419306       256.3124 
 1000   0.0000       9.442586       256.9458 
 1001   0.0000       9.446293       257.0467 
 1002   0.0000       9.454776       257.2775 
 1003   0.0000       9.473704       257.7926 
 1004   0.0000       9.499653       258.4987 
 1005   0.0000       9.712314       264.2855 
 1006   0.0000      10.094924       274.6968 
 1007   0.0000      10.105749       274.9914 
 1008   0.0000      10.121069       275.4083 
 1009   0.0000      10.212199       277.8880 
 1010   0.0000      10.218944       278.0716 
 1011   0.0000      10.241096       278.6744 
 1012   0.0000      10.364897       282.0432 
 1013   0.0000      10.407476       283.2018 
 1014   0.0000      10.506326       285.8917 
 1015   0.0000      13.233192       360.0935 
 1016   0.0000      17.236006       469.0156 
 1017   0.0000      17.833432       485.2723 
 1018   0.0000      18.387803       500.3576 
 1019   0.0000      18.540259       504.5061 
 1020   0.0000      18.806783       511.7586 
 1021   0.0000      18.925095       514.9780 
 1022   0.0000      20.345888       553.6398 
 1023   0.0000      20.786552       565.6308 
 1024   0.0000      21.762179       592.1790 

                 SPIN DOWN ORBITALS
  NO   OCC          E(Eh)            E(eV) 
   0   1.0000    -261.560136     -7117.4131 
   1   1.0000    -104.784740     -2851.3377 
   2   1.0000    -104.780496     -2851.2222 
   3   1.0000    -104.779419     -2851.1929 
   4   1.0000     -32.069478      -872.6549 
   5   1.0000     -27.547427      -749.6036 
   6   1.0000     -27.547358      -749.6017 
   7   1.0000     -27.547105      -749.5948 
   8   1.0000     -20.583378      -560.1022 
   9   1.0000     -11.410047      -310.4832 
  10   1.0000     -11.309848      -307.7566 
  11   1.0000     -11.267849      -306.6138 
  12   1.0000     -11.262425      -306.4662 
  13   1.0000     -11.262407      -306.4657 
  14   1.0000     -11.262218      -306.4605 
  15   1.0000     -11.244623      -305.9817 
  16   1.0000     -11.243790      -305.9591 
  17   1.0000     -10.511316      -286.0274 
  18   1.0000     -10.507056      -285.9115 
  19   1.0000     -10.505936      -285.8810 
  20   1.0000      -7.977204      -217.0708 
  21   1.0000      -7.976591      -217.0541 
  22   1.0000      -7.976536      -217.0526 
  23   1.0000      -7.972968      -216.9555 
  24   1.0000      -7.972270      -216.9365 
  25   1.0000      -7.972185      -216.9342 
  26   1.0000      -7.971910      -216.9267 
  27   1.0000      -7.971122      -216.9053 
  28   1.0000      -7.971033      -216.9028 
  29   1.0000      -4.144407      -112.7751 
  30   1.0000      -2.666079       -72.5477 
  31   1.0000      -2.666043       -72.5467 
  32   1.0000      -2.665336       -72.5275 
  33   1.0000      -1.421639       -38.6848 
  34   1.0000      -1.151987       -31.3472 
  35   1.0000      -1.087237       -29.5852 
  36   1.0000      -1.043105       -28.3843 
  37   1.0000      -1.032821       -28.1045 
  38   1.0000      -1.030194       -28.0330 
  39   1.0000      -1.027438       -27.9580 
  40   1.0000      -0.997919       -27.1548 
  41   1.0000      -0.978006       -26.6129 
  42   1.0000      -0.913407       -24.8551 
  43   1.0000      -0.812828       -22.1182 
  44   1.0000      -0.750142       -20.4124 
  45   1.0000      -0.697318       -18.9750 
  46   1.0000      -0.687357       -18.7039 
  47   1.0000      -0.681331       -18.5400 
  48   1.0000      -0.668103       -18.1800 
  49   1.0000      -0.638205       -17.3665 
  50   1.0000      -0.622811       -16.9476 
  51   1.0000      -0.603880       -16.4324 
  52   1.0000      -0.594720       -16.1832 
  53   1.0000      -0.581837       -15.8326 
  54   1.0000      -0.573484       -15.6053 
  55   1.0000      -0.566470       -15.4144 
  56   1.0000      -0.558629       -15.2011 
  57   1.0000      -0.555060       -15.1039 
  58   1.0000      -0.543267       -14.7830 
  59   1.0000      -0.537482       -14.6256 
  60   1.0000      -0.515275       -14.0213 
  61   1.0000      -0.511608       -13.9216 
  62   1.0000      -0.488660       -13.2971 
  63   1.0000      -0.476184       -12.9576 
  64   1.0000      -0.473830       -12.8936 
  65   1.0000      -0.446410       -12.1474 
  66   1.0000      -0.443082       -12.0569 
  67   1.0000      -0.440531       -11.9875 
  68   1.0000      -0.425673       -11.5832 
  69   1.0000      -0.420884       -11.4528 
  70   1.0000      -0.406629       -11.0649 
  71   1.0000      -0.372596       -10.1389 
  72   0.0000       0.011178         0.3042 
  73   0.0000       0.021373         0.5816 
  74   0.0000       0.022929         0.6239 
  75   0.0000       0.029110         0.7921 
  76   0.0000       0.036626         0.9966 
  77   0.0000       0.039625         1.0783 
  78   0.0000       0.041780         1.1369 
  79   0.0000       0.044439         1.2093 
  80   0.0000       0.044973         1.2238 
  81   0.0000       0.048184         1.3111 
  82   0.0000       0.057044         1.5523 
  83   0.0000       0.060804         1.6546 
  84   0.0000       0.061989         1.6868 
  85   0.0000       0.063049         1.7157 
  86   0.0000       0.064599         1.7578 
  87   0.0000       0.071615         1.9487 
  88   0.0000       0.076647         2.0857 
  89   0.0000       0.081764         2.2249 
  90   0.0000       0.089475         2.4347 
  91   0.0000       0.091524         2.4905 
  92   0.0000       0.093680         2.5492 
  93   0.0000       0.097336         2.6486 
  94   0.0000       0.099842         2.7168 
  95   0.0000       0.103353         2.8124 
  96   0.0000       0.106339         2.8936 
  97   0.0000       0.113174         3.0796 
  98   0.0000       0.113264         3.0821 
  99   0.0000       0.115551         3.1443 
 100   0.0000       0.117370         3.1938 
 101   0.0000       0.118994         3.2380 
 102   0.0000       0.122235         3.3262 
 103   0.0000       0.123367         3.3570 
 104   0.0000       0.124775         3.3953 
 105   0.0000       0.125340         3.4107 
 106   0.0000       0.128437         3.4949 
 107   0.0000       0.130980         3.5642 
 108   0.0000       0.133292         3.6271 
 109   0.0000       0.135729         3.6934 
 110   0.0000       0.136007         3.7009 
 111   0.0000       0.139366         3.7923 
 112   0.0000       0.145111         3.9487 
 113   0.0000       0.147760         4.0208 
 114   0.0000       0.153015         4.1638 
 115   0.0000       0.154671         4.2088 
 116   0.0000       0.158856         4.3227 
 117   0.0000       0.161344         4.3904 
 118   0.0000       0.162248         4.4150 
 119   0.0000       0.168294         4.5795 
 120   0.0000       0.172426         4.6920 
 121   0.0000       0.173996         4.7347 
 122   0.0000       0.176476         4.8022 
 123   0.0000       0.181873         4.9490 
 124   0.0000       0.182592         4.9686 
 125   0.0000       0.187034         5.0894 
 126   0.0000       0.191991         5.2243 
 127   0.0000       0.194525         5.2933 
 128   0.0000       0.197158         5.3650 
 129   0.0000       0.200378         5.4526 
 130   0.0000       0.202058         5.4983 
 131   0.0000       0.203695         5.5428 
 132   0.0000       0.207380         5.6431 
 133   0.0000       0.211200         5.7470 
 134   0.0000       0.217272         5.9123 
 135   0.0000       0.221488         6.0270 
 136   0.0000       0.226390         6.1604 
 137   0.0000       0.228026         6.2049 
 138   0.0000       0.231261         6.2929 
 139   0.0000       0.235820         6.4170 
 140   0.0000       0.236645         6.4394 
 141   0.0000       0.239463         6.5161 
 142   0.0000       0.241182         6.5629 
 143   0.0000       0.248347         6.7579 
 144   0.0000       0.250638         6.8202 
 145   0.0000       0.251705         6.8492 
 146   0.0000       0.253185         6.8895 
 147   0.0000       0.262342         7.1387 
 148   0.0000       0.263576         7.1723 
 149   0.0000       0.270456         7.3595 
 150   0.0000       0.273050         7.4301 
 151   0.0000       0.278514         7.5788 
 152   0.0000       0.282375         7.6838 
 153   0.0000       0.282478         7.6866 
 154   0.0000       0.285894         7.7796 
 155   0.0000       0.293295         7.9810 
 156   0.0000       0.294740         8.0203 
 157   0.0000       0.298546         8.1239 
 158   0.0000       0.300198         8.1688 
 159   0.0000       0.304332         8.2813 
 160   0.0000       0.310889         8.4597 
 161   0.0000       0.318529         8.6676 
 162   0.0000       0.322210         8.7678 
 163   0.0000       0.323483         8.8024 
 164   0.0000       0.328387         8.9359 
 165   0.0000       0.333755         9.0819 
 166   0.0000       0.338129         9.2009 
 167   0.0000       0.340435         9.2637 
 168   0.0000       0.343956         9.3595 
 169   0.0000       0.345825         9.4104 
 170   0.0000       0.351867         9.5748 
 171   0.0000       0.354926         9.6580 
 172   0.0000       0.359401         9.7798 
 173   0.0000       0.363400         9.8886 
 174   0.0000       0.364641         9.9224 
 175   0.0000       0.367555        10.0017 
 176   0.0000       0.372062        10.1243 
 177   0.0000       0.374967        10.2034 
 178   0.0000       0.380688        10.3591 
 179   0.0000       0.382616        10.4115 
 180   0.0000       0.385976        10.5029 
 181   0.0000       0.389195        10.5905 
 182   0.0000       0.390461        10.6250 
 183   0.0000       0.395160        10.7528 
 184   0.0000       0.396443        10.7878 
 185   0.0000       0.397304        10.8112 
 186   0.0000       0.399648        10.8750 
 187   0.0000       0.401824        10.9342 
 188   0.0000       0.404520        11.0075 
 189   0.0000       0.409167        11.1340 
 190   0.0000       0.416747        11.3403 
 191   0.0000       0.421997        11.4831 
 192   0.0000       0.424257        11.5446 
 193   0.0000       0.429762        11.6944 
 194   0.0000       0.432193        11.7606 
 195   0.0000       0.437337        11.9005 
 196   0.0000       0.438154        11.9228 
 197   0.0000       0.444506        12.0956 
 198   0.0000       0.446835        12.1590 
 199   0.0000       0.449809        12.2399 
 200   0.0000       0.454879        12.3779 
 201   0.0000       0.460122        12.5206 
 202   0.0000       0.461271        12.5518 
 203   0.0000       0.466373        12.6906 
 204   0.0000       0.467882        12.7317 
 205   0.0000       0.470456        12.8018 
 206   0.0000       0.477065        12.9816 
 207   0.0000       0.481168        13.0933 
 208   0.0000       0.483200        13.1485 
 209   0.0000       0.485290        13.2054 
 210   0.0000       0.487898        13.2764 
 211   0.0000       0.491360        13.3706 
 212   0.0000       0.496712        13.5162 
 213   0.0000       0.499779        13.5997 
 214   0.0000       0.502107        13.6630 
 215   0.0000       0.504645        13.7321 
 216   0.0000       0.506368        13.7790 
 217   0.0000       0.511190        13.9102 
 218   0.0000       0.515559        14.0291 
 219   0.0000       0.517666        14.0864 
 220   0.0000       0.521575        14.1928 
 221   0.0000       0.522494        14.2178 
 222   0.0000       0.524804        14.2806 
 223   0.0000       0.529903        14.4194 
 224   0.0000       0.530085        14.4243 
 225   0.0000       0.532927        14.5017 
 226   0.0000       0.539754        14.6874 
 227   0.0000       0.541939        14.7469 
 228   0.0000       0.542775        14.7697 
 229   0.0000       0.546879        14.8813 
 230   0.0000       0.549869        14.9627 
 231   0.0000       0.556371        15.1396 
 232   0.0000       0.558801        15.2058 
 233   0.0000       0.561087        15.2680 
 234   0.0000       0.565240        15.3810 
 235   0.0000       0.569047        15.4846 
 236   0.0000       0.573185        15.5971 
 237   0.0000       0.575151        15.6507 
 238   0.0000       0.580423        15.7941 
 239   0.0000       0.587870        15.9968 
 240   0.0000       0.590245        16.0614 
 241   0.0000       0.591148        16.0860 
 242   0.0000       0.593262        16.1435 
 243   0.0000       0.597290        16.2531 
 244   0.0000       0.600920        16.3519 
 245   0.0000       0.603280        16.4161 
 246   0.0000       0.606676        16.5085 
 247   0.0000       0.614938        16.7333 
 248   0.0000       0.618835        16.8394 
 249   0.0000       0.622651        16.9432 
 250   0.0000       0.627125        17.0650 
 251   0.0000       0.629380        17.1263 
 252   0.0000       0.632536        17.2122 
 253   0.0000       0.637514        17.3476 
 254   0.0000       0.642379        17.4800 
 255   0.0000       0.648255        17.6399 
 256   0.0000       0.651989        17.7415 
 257   0.0000       0.656225        17.8568 
 258   0.0000       0.661295        17.9947 
 259   0.0000       0.663243        18.0477 
 260   0.0000       0.667306        18.1583 
 261   0.0000       0.668521        18.1914 
 262   0.0000       0.672138        18.2898 
 263   0.0000       0.677182        18.4271 
 264   0.0000       0.679664        18.4946 
 265   0.0000       0.686909        18.6917 
 266   0.0000       0.690596        18.7921 
 267   0.0000       0.697359        18.9761 
 268   0.0000       0.700386        19.0585 
 269   0.0000       0.703483        19.1427 
 270   0.0000       0.706322        19.2200 
 271   0.0000       0.715868        19.4798 
 272   0.0000       0.717806        19.5325 
 273   0.0000       0.723386        19.6843 
 274   0.0000       0.726285        19.7632 
 275   0.0000       0.734124        19.9765 
 276   0.0000       0.736287        20.0354 
 277   0.0000       0.740274        20.1439 
 278   0.0000       0.746057        20.3012 
 279   0.0000       0.748064        20.3559 
 280   0.0000       0.749627        20.3984 
 281   0.0000       0.755207        20.5502 
 282   0.0000       0.767704        20.8903 
 283   0.0000       0.768397        20.9091 
 284   0.0000       0.775159        21.0932 
[...]
  | sigma^2 in % of trace(Dij) retained ...   9.10e+00
  | sigma^2 in % of trace(Dip) retained ...   1.86e+01
  | sigma^2 in % of trace(Dpq) retained ...   1.35e-01
  | Av. % of trace(Di) retained         ...  99.998511968510
  | Av. % of trace(Dp) retained         ...  99.999999635027
  | sigma^2 in % of trace(Di) retained  ...   7.04e-07
  | sigma^2 in % of trace(Dp) retained  ...   1.61e-14
 Distributions of % trace(Dij) recovered:
  |       >= 99.9  ...   105 ( 21.0 % of all IJ-pairs)
  |   [80.0, 90.0) ...    30 (  6.0 % of all IJ-pairs)
  |   [90.0, 99.0) ...   268 ( 53.6 % of all IJ-pairs)
  |   [99.0, 99.9) ...    97 ( 19.4 % of all IJ-pairs)
 Distributions of % trace(Dip) recovered:
  |   [80.0, 90.0) ...    18 ( 15.1 % of all IP-pairs)
  |   [90.0, 99.0) ...    59 ( 49.6 % of all IP-pairs)
  |   [99.0, 99.9) ...    42 ( 35.3 % of all IP-pairs)
 Distributions of % trace(Dpq) recovered:
  |       >= 99.9  ...     5 ( 33.3 % of all PQ-pairs)
  |   [99.0, 99.9) ...    10 ( 66.7 % of all PQ-pairs)
 Distributions of % trace(Di) recovered :
  |       >= 99.9  ...    43 (100.0 % of all I-pairs )
 Distributions of % trace(Dp) recovered :
  |       >= 99.9  ...     5 (100.0 % of all P-pairs )

                       ===========================
                       1101 OF 1679 PAIRS ARE KEPT
                       ===========================

 Initial PAO correlation energy (all pairs)    ...  -2.6946060101 Eh
 Energy constituents in PAO basis (Eh):
  | Vijab(+0) ...  -2.2667768478
  | Viab (-1) ...  -0.1745799582
  | Vab  (-2) ...  -0.0573552073
  | Va   (-1) ...  -0.0000430659
  | Vija (+1) ...  -0.0718649534
  | Vij  (+2) ...  -0.0155035925
  | Via  (+0) ...  -0.1083227200
  | Vi   (+1) ...  -0.0001596650
 Initial PNO correlation energy                ...  -2.6599228305 Eh
 Energy constituents in PNO basis (Eh):
  | Vijab(+0) ...  -2.2478584707 (err=  0.0189183771)
  | Viab (-1) ...  -0.1604686380 (err=  0.0141113203)
  | Vab  (-2) ...  -0.0569033001 (err=  0.0004519072)
  | Va   (-1) ...  -0.0000249709 (err=  0.0000180950)
  | Vija (+1) ...  -0.0708395005 (err=  0.0010254529)
  | Vij  (+2) ...  -0.0154434411 (err=  0.0000601514)
  | Via  (+0) ...  -0.1082252139 (err=  0.0000975061)
  | Vi   (+1) ...  -0.0001592955 (err=  0.0000003696)
 Sum of total truncation errors ...   0.0346831795 Eh
  | Pair screening ...   0.0117433611 Eh
  | PNO truncation ...   0.0229398185 Eh

 UMP2 correlation energy (PAO) ...  -2.6896447234
  | alpha-alpha ...  -0.3867733847 (NP_aa=  903)
  | alpha-beta  ...  -1.9957204553 (NP_ab= 1654)
  | beta -beta  ...  -0.3071508834 (NP_bb=  718)
 UMP2 correlation energy (PNO) ...  -2.6545750549
  | alpha-alpha ...  -0.3746940662 (err=  0.0120793185, NP_aa=  586)
  | alpha-beta  ...  -1.9768799354 (err=  0.0188405199, NP_ab= 1076)
  | beta -beta  ...  -0.3030010533 (err=  0.0041498301, NP_bb=  457)
 Sum of total UMP2 truncation errors ...   0.0350696686 Eh
  | Pair screening ...   0.0117626677 Eh
  | PNO truncation ...   0.0233070009 Eh
 Timing for NEV-PNO construction (sec.)
  | Intermediate construction  ..           45.526
  | Amplitude construction     ..           63.389
  | Total time                 ..          108.915
 Making pair pair interaction lists ...      ok
 Total size for 2-ext PNO integrals ...     11.0 MB
Checking the number of SOMO/SOMO doubles PNOs ... 
 #Truncate: (72, 72)[175] -> [85] .. 
 #Truncate: (73, 73)[179] -> [85] .. 
 #Truncate: (74, 74)[177] -> [85] .. 
 #Truncate: (75, 75)[178] -> [85] .. 
 #Truncate: (76, 76)[178] -> [85] .. 

--------------------------------
LOCAL RI TRANSFORMATION (VABPAO)
--------------------------------

Number of PAOs:    1030
Basis functions:   1025 (343 shells)
Aux. functions:    2424 (644 shells)

Processing maps (0.0 sec)
Average map sizes:
   Aux shells -> PAOs           1030.0
   PAOs       -> AO shells       343.0

Calculating integrals (192.3 sec, 37370.165 MB)
Finished
-----------------------------
LOCAL RI TRANSFORMATION (IJV)
-----------------------------

Orbital window:      29 to 76
Basis functions:   1025 (343 shells)
Aux. functions:    2424 (644 shells)

Processing maps (0.0 sec)
Average map sizes:
   Aux shells -> MOs(i)           46.6
   Aux shells -> MOs(j)           48.0
   MOs        -> AO shells       340.0

Calculating integrals (23.0 sec, 41.499 MB)
Sorting integrals (0.3 sec, 41.471 MB)
Total time for the integral transformation: 23.4 sec


-------------------------------------
Pair Pair Term precalculation with     
RI-(ij|mn) and (im|jn) transformation  
ON THE FLY                             
-------------------------------------

   IBatch   1 (of   2)              ... done ( 1248.057 sec)
   IBatch   2 (of   2)              ... done ( 1079.791 sec)
Total EXT                           ...        2327.849 sec

---------------------
RI-PNO TRANSFORMATION
---------------------

Total Number of PNOs                   ... 34344
Total Number of IJ-PNOs                ... 30172
Total Number of IP-PNOs                ...  3219
Total Number of PQ-PNOs                ...   953
Total Number of IJ-pairs               ...   957
Total Number of PI-pairs               ...   119
Total Number of PQ-pairs               ...    25
Average number of PNOs per pair        ...    31
Maximal number of PNOs per pair        ...    85
>> Statistics for ij-pairs..
   #pairs with  1 -  5 PNOs   :    0
   #pairs with  6 - 10 PNOs   :    0
   #pairs with 11 - 15 PNOs   :   68
   #pairs with 16 - 20 PNOs   :  230
   #pairs with 21 - 25 PNOs   :  158
   #pairs with 26 - 30 PNOs   :  144
   #pairs with 31 - 35 PNOs   :   62
   #pairs with 36 - 40 PNOs   :   52
   #pairs with 41 - 45 PNOs   :   46
   #pairs with 46 - 50 PNOs   :   24
   #pairs with 51 - 55 PNOs   :   34
   #pairs with 56 - 60 PNOs   :   58
   #pairs with 61 - 65 PNOs   :   76
   #pairs with 66 - 70 PNOs   :    2
   #pairs with 76 - 80 PNOs   :    1
   #pairs with 81 - 85 PNOs   :    2
>> Statistics for ip-pairs..
   #pairs with  1 -  5 PNOs   :    0
   #pairs with  6 - 10 PNOs   :    1
   #pairs with 11 - 15 PNOs   :   17
   #pairs with 16 - 20 PNOs   :    4
   #pairs with 21 - 25 PNOs   :   27
   #pairs with 26 - 30 PNOs   :   12
   #pairs with 31 - 35 PNOs   :   45
   #pairs with 36 - 40 PNOs   :   13
   #pairs with 41 - 45 PNOs   :    0
   #pairs with 46 - 50 PNOs   :    0
>> Statistics for pq-pairs..
   #pairs with  1 -  5 PNOs   :    0
   #pairs with  6 - 10 PNOs   :    0
   #pairs with 11 - 15 PNOs   :    0
   #pairs with 16 - 20 PNOs   :    0
   #pairs with 21 - 25 PNOs   :   10
   #pairs with 26 - 30 PNOs   :   10
   #pairs with 31 - 35 PNOs   :    0
   #pairs with 36 - 40 PNOs   :    0
   #pairs with 41 - 45 PNOs   :    0
   #pairs with 46 - 50 PNOs   :    0
   #pairs with 81 - 85 PNOs   :    5

Generation of (ij|ab)[P] integrals            ... on
Generation of (ia|bc)[P],(ja|bc)[P] integrals ... on
Storage of 3 and 4 external integrals         ... on
Generation of ALL (ka|bc)[P] integrals        ... on
Keep RI integrals in memory                   ... off

Ibatch:  1 (of  1)
Starting 2-4 index PNO integral generation ... done

Timings:
Total PNO integral transformation time     ...       2241.760 sec
Size of the 3-external file                ...       288 MB
Size of the 4-external file                ...      1959 MB
Size of the IKJL file                      ...        18 MB
Size of the all 3-external file            ...      6916 MB
Size of the 1-external file                ...        22 MB

Size of the PAO/PNO coefficient matrices   ...     220.5 MB

Making pair/pair overlap matrices          ... done (  387.358 sec)
Size of the pair overlap file              ...    2433.0 MB
Total # unrestricted pairs ...       2119
  # of alpha-alpha pairs   ...        586
  # of alpha-beta pairs    ...       1076
  # of beta-beta pairs     ...        457
Constructing the guess amplitudes          ... done (    0.668 sec)

-------------------------
FINAL STARTUP INFORMATION
-------------------------

E(0)                                       ...  -3028.438967192
E(SL-UMP2 in NEV-PNO space)                ...     -2.690671058
Initial E(tot)                             ...  -3031.129638250
<T|T>                                      ...      0.535946583
Number of unrestricted pairs included      ... 2119
Total number of pairs                      ... 4095
----------------------------------------------------------
                     OPEN-SHELL COUPLED CLUSTER ITERATIONS
----------------------------------------------------------

Number of PNO amplitudes to be optimized        ...          2118918
Number of canonical amplitudes for strong pairs ...       1913884284
Untruncated number of canonical amplitudes      ...       3698645738

Iter       E(tot)           E(Corr)          Delta-E          Residual     Time
  0  -3031.136822187     -2.661758991      0.028912067      0.020648913 1938.64
                           *** Turning on DIIS ***
  1  -3031.249140710     -2.774077515     -0.112318523      0.008965365 1925.14
  2  -3031.313707944     -2.838644749     -0.064567234      0.008276907 1923.72
  3  -3031.335024934     -2.859961739     -0.021316990      0.002917816 1926.34
  4  -3031.342299899     -2.867236704     -0.007274965      0.002657382 1934.29
  5  -3031.346209081     -2.871145886     -0.003909182      0.001608269 1939.45
  6  -3031.347623992     -2.872560796     -0.001414911      0.000887723 1944.90
  7  -3031.348350042     -2.873286846     -0.000726050      0.000702351 1944.28
  8  -3031.348512932     -2.873449736     -0.000162890      0.000300449 1948.87
  9  -3031.348570734     -2.873507538     -0.000057802      0.000221248 1946.13
 10  -3031.348567360     -2.873504164      0.000003374      0.000124771 1935.52
 11  -3031.348579299     -2.873516104     -0.000011939      0.000086378 1948.28
 12  -3031.348585751     -2.873522555     -0.000006451      0.000038307 1939.95
 13  -3031.348588348     -2.873525153     -0.000002597      0.000017090 1939.40
 14  -3031.348589809     -2.873526613     -0.000001460      0.000006552 1669.77
               --- The CCSD iterations have converged ---

E(0)                                       ...  -3028.438967192
E(CORR)(strong-pairs)                      ...     -2.873526613
E(CORR)(weak-pairs)                        ...     -0.036096003
E(CORR)(corrected)                         ...     -2.909622616
E(TOT)                                     ...  -3031.348589809
Singles norm <S|S>**1/2                    ...      0.193564979 ( 0.065314780, 0.128250199)  
T1 diagnostic                              ...      0.020291123                              
<S**2>(linearized)                         ...      8.7507936 (ideal value:      8.7500000)

----------------------
LARGEST PNO AMPLITUDES
----------------------
  70a-> 77a  70b-> 77b       0.058369
  50b-> 76b  -1b-> -1b       0.054770
  51b-> 76b  -1b-> -1b       0.053071
  48b-> 72b  -1b-> -1b       0.052966
  70a-> 78a  70b-> 78b       0.052609
  30a-> 77a  -1a-> -1a       0.048276
  30b-> 77b  -1b-> -1b       0.047521
  48b-> 75b  -1b-> -1b       0.046754
  65a-> 77a  65b-> 77b       0.045925
  48b-> 74b  -1b-> -1b       0.045742
  61a-> 77a  61b-> 77b       0.044652
  54a-> 77a  54b-> 77b       0.044327
  69a-> 77a  69b-> 77b       0.043802
  55a-> 78a  55b-> 78b       0.043291
  59a-> 77a  59b-> 77b       0.042746
  63a-> 77a  63b-> 77b       0.042721

Total # unrestricted pairs ...       1156
  # of alpha-alpha pairs   ...        317
  # of alpha-beta pairs    ...        578
  # of beta-beta pairs     ...        261

-------------------------------------------
DLPNO BASED TRIPLES CORRECTION
-------------------------------------------

Singles multiplier          ...  1.000000
Fragment selection                          .... not used
TCutTNO                     ... 1.000e-09
TCutMP2Pairs                ... 1.000e-05
TCutDOStrong                ... 2.000e-02
TCutMKNStrong               ... 1.000e-02
TCutDOWeak                  ... 4.000e-02
TCutMKNWeak                 ... 1.000e-01
NTCutTNO                    ... 1

Number of Triples that are to be computed         ...     34046

 . . . . . . . . .
10% done  
20% done  
30% done  
40% done  
50% done  
60% done  
70% done  
80% done  
90% done  
          Batch   1   done (  14444.866 sec)

Triples-Correction TCutTNO=   1.000e-09 (NWeakPairs = 0  1  2  3)  -0.117847168654   -0.001977117805    0.000000000000    0.000000000000
Triples-Correction  -0.119824286459

Triples timings:
Total time                      ... 15051.639 sec

Triples List generation         ...     0.000 sec
TNO generation                  ...   606.540 sec
Pair density generation         ...     0.084 sec
Look up tables                  ...     0.112 sec
Generating 3-index integrals    ...  8700.364 sec
Make 4-ind.int. from 3-ind.int  ...     3.357 sec
Projecting amplitudes (D + S)   ...  5478.333 sec
Sorting integrals for spin cases...    53.979 sec
Calculate W0/W1                 ...   167.930 sec
Energy contr. (sum over a,b,c)  ...    40.758 sec

Everything after 3-index        ...  5868.176 sec

Energy contribution AAA         ...    25.387 sec
Energy contribution AAB         ...   116.315 sec
Energy contribution ABB         ...   106.536 sec
Energy contribution BBB         ...    14.474 sec
prep                ...     3.185 sec
makeTTNO            ...  5422.242 sec
copyij              ...     0.128 sec
copyil              ...     4.050 sec
transposeij         ...     0.078 sec
newMatInDoubleProj  ...    53.404 sec
BlasInDoubleProj    ...  2934.410 sec
ProjSingles         ...    46.117 sec
ProjDoubles         ...  5432.215 sec
overall Doubles for projection      ... 3042494
used Doubles for projection         ... 3042494


Number of Triples   (0, 1, 2, 3 weak pairs; overall):  16077   12114       0       0  ( 28191)
Number of Atoms     (0, 1, 2, 3 weak pairs; overall):   19.7    14.7     0.0     0.0  (    29)
Number of PAOs      (0, 1, 2, 3 weak pairs; overall):  767.0   589.2     0.0     0.0  (  1025)
Number of AuxFcns   (0, 1, 2, 3 weak pairs; overall):  874.6   574.0     0.0     0.0  (  2424)
Number of TNOs (0, 1, 2, 3 weak pairs         ):   79.1    56.5     0.0     0.0
Aver. Number of NTNO, Atoms, PAOs, AuxFcns / Triples:  28191    69.4    17.6   690.6   745.4

Triples Correction (T)                     ...     -0.119824286
    alpha-alpha-alpha ... -0.003899371 (  3.3%)
    alpha-alpha-beta  ... -0.056258857 ( 47.0%)
    alpha-beta -beta  ... -0.055539060 ( 46.4%)
    beta -beta -beta  ... -0.004126998 (  3.4%)
Final correlation energy                   ...     -3.029446903
E(CCSD)                                    ...  -3031.348589809
E(CCSD(T))                                 ...  -3031.468414095

----------------------------
STATISTICS FOR PAIR-ENERGIES
----------------------------
Minimum, maximum and average ratios of UMP and CCSD pair-energies ... 0.54, 1.43, 1.02


------------------------------------------------------------------------------- 
                                     TIMINGS                                   
------------------------------------------------------------------------------- 


Total execution time                   ...    52605.982 sec

Localization of occupied MO's          ...       10.092 sec (  0.0%)
Fock Matrix Formation                  ...     1425.031 sec (  2.7%)
Differential overlap integrals         ...        1.472 sec (  0.0%)
Organizing maps                        ...        1.694 sec (  0.0%)
RI 3-index integral generations        ...      278.960 sec (  0.5%)
RI-PNO integral transformation         ...     5068.777 sec (  9.6%)
Initial Guess                          ...     1886.420 sec (  3.6%)
DIIS Solver                            ...       16.412 sec (  0.0%)
State Vector Update                    ...        0.835 sec (  0.0%)
Sigma-vector construction              ...    28804.691 sec ( 54.8%)
  <0|H|D>                              ...        0.031 sec (  0.0% of sigma)
  <D|H|D>(0-ext)                       ...     4899.437 sec ( 17.0% of sigma)
  <D|H|D>(2-ext Fock)                  ...        1.464 sec (  0.0% of sigma)
  <D|H|D>(2-ext)                       ...     3884.059 sec ( 13.5% of sigma)
  <D|H|D>(4-ext)                       ...      155.280 sec (  0.5% of sigma)
  <D|H|D>(4-ext-corr)                  ...      967.973 sec (  3.4% of sigma)
  CCSD doubles correction              ...      462.138 sec (  1.6% of sigma)
  <S|H|S>                              ...      801.947 sec (  2.8% of sigma)
  <S|H|D>(1-ext)                       ...      270.143 sec (  0.9% of sigma)
  <D|H|S>(1-ext)                       ...        0.972 sec (  0.0% of sigma)
  <S|H|D>(3-ext)                       ...       22.099 sec (  0.1% of sigma)
  CCSD singles correction              ...        0.004 sec (  0.0% of sigma)
  Fock-dressing                        ...     9351.478 sec ( 32.5% of sigma)
  Singles amplitudes                   ...      119.683 sec (  0.4% of sigma)
  (ik|jl)-dressing                     ...     6428.457 sec ( 22.3% of sigma)
  (ij|ab),(ia|jb)-dressing             ...     1374.524 sec (  4.8% of sigma)
  Pair energies                        ...        0.186 sec (  0.0% of sigma)
Total Time for computing (T)           ...    15471.139 sec ( 29.4% of ALL)


-------------------------   --------------------
FINAL SINGLE POINT ENERGY     -3031.468414094988
-------------------------   --------------------


                            ***************************************
                            *     ORCA property calculations      *
                            ***************************************

                                    ---------------------
                                    Active property flags
                                    ---------------------
   (+) Dipole Moment


------------------------------------------------------------------------------
                       ORCA ELECTRIC PROPERTIES CALCULATION
------------------------------------------------------------------------------

Dipole Moment Calculation                       ... on
Quadrupole Moment Calculation                   ... off
Polarizability Calculation                      ... off
GBWName                                         ... simple-grid-220-270-b3lyp_d3bj-631gd-gas-singlepoint-DLPNO_CCSD_T1-NormalPNO-augtz-gas.gbw
Electron density file                           ... simple-grid-220-270-b3lyp_d3bj-631gd-gas-singlepoint-DLPNO_CCSD_T1-NormalPNO-augtz-gas.scfp.tmp
The origin for moment calculation is the CENTER OF MASS  = ( 0.310119,  0.039425  0.011865)

-------------
DIPOLE MOMENT
-------------
                                X             Y             Z
Electronic contribution:     42.11214       5.02481       1.24070
Nuclear contribution   :    -46.20761      -5.87439      -1.76783
                        -----------------------------------------
Total Dipole Moment    :     -4.09548      -0.84958      -0.52713
                        -----------------------------------------
Magnitude (a.u.)       :      4.21576
Magnitude (Debye)      :     10.71560



--------------------
Rotational spectrum 
--------------------
 
Rotational constants in cm-1:     0.019148     0.011053     0.010390 
Rotational constants in MHz :   574.043540   331.372164   311.494278 

 Dipole components along the rotational axes: 
x,y,z [a.u.] :    -4.090040     0.843145    -0.577294 
x,y,z [Debye]:   -10.396056     2.143104    -1.467365 

 

Timings for individual modules:

Sum of individual times         ...    68468.331 sec (=1141.139 min)
GTO integral calculation        ...       11.830 sec (=   0.197 min)   0.0 %
SCF iterations                  ...    15833.639 sec (= 263.894 min)  23.1 %
MDCI module                     ...    52622.863 sec (= 877.048 min)  76.9 %
                             ****ORCA TERMINATED NORMALLY****
TOTAL RUN TIME: 0 days 19 hours 1 minutes 10 seconds 787 msec
