
                                 *****************
                                 * O   R   C   A *
                                 *****************

           --- An Ab Initio, DFT and Semiempirical electronic structure package ---

                  #######################################################
                  #                        -***-                        #
                  #          Department of theory and spectroscopy      #
                  #               Directorship: Frank Neese             #
                  #        Max Planck Institute fuer Kohlenforschung    #
                  #                Kaiser Wilhelm Platz 1               #
                  #                 D-45470 Muelheim/Ruhr               #
                  #                      Germany                        #
                  #                                                     #
                  #                  All rights reserved                #
                  #                        -***-                        #
                  #######################################################


                         Program Version 4.1.2  - RELEASE  -


 With contributions from (in alphabetic order):
   Daniel Aravena         : Magnetic Properties
   Michael Atanasov       : Ab Initio Ligand Field Theory
   Alexander A. Auer      : GIAO ZORA
   Ute Becker             : Parallelization
   Giovanni Bistoni       : ED, Open-shell LED
   Martin Brehm           : Molecular dynamics
   Dmytro Bykov           : SCF Hessian
   Vijay G. Chilkuri      : MRCI spin determinant printing
   Dipayan Datta          : RHF DLPNO-CCSD density
   Achintya Kumar Dutta   : EOM-CC, STEOM-CC
   Dmitry Ganyushin       : Spin-Orbit,Spin-Spin,Magnetic field MRCI
   Miquel Garcia          : C-PCM Hessian
   Yang Guo               : DLPNO-NEVPT2, CIM, IAO-localization
   Andreas Hansen         : Spin unrestricted coupled pair/coupled cluster methods
   Benjamin Helmich-Paris : CASSCF linear response (MC-RPA)
   Lee Huntington         : MR-EOM, pCC
   Robert Izsak           : Overlap fitted RIJCOSX, COSX-SCS-MP3, EOM
   Christian Kollmar      : KDIIS, OOCD, Brueckner-CCSD(T), CCSD density
   Simone Kossmann        : Meta GGA functionals, TD-DFT gradient, OOMP2, MP2 Hessian
   Martin Krupicka        : AUTO-CI
   Lucas Lang             : DCDCAS
   Dagmar Lenk            : GEPOL surface, SMD
   Dimitrios Liakos       : Extrapolation schemes; parallel MDCI
   Dimitrios Manganas     : ROCIS; embedding schemes
   Dimitrios Pantazis     : SARC Basis sets
   Taras Petrenko         : DFT Hessian,TD-DFT gradient, ASA, ECA, R-Raman, ABS, FL, XAS/XES, NRVS
   Peter Pinski           : DLPNO-MP2, DLPNO-MP2 Gradient
   Christoph Reimann      : Effective Core Potentials
   Marius Retegan         : Local ZFS, SOC
   Christoph Riplinger    : Optimizer, TS searches, QM/MM, DLPNO-CCSD(T), (RO)-DLPNO pert. Triples
   Tobias Risthaus        : Range-separated hybrids, TD-DFT gradient, RPA, STAB
   Michael Roemelt        : Restricted open shell CIS
   Masaaki Saitow         : Open-shell DLPNO
   Barbara Sandhoefer     : DKH picture change effects
   Avijit Sen             : IP-ROCIS
   Kantharuban Sivalingam : CASSCF convergence, NEVPT2, FIC-MRCI
   Bernardo de Souza      : ESD, SOC TD-DFT
   Georgi Stoychev        : AutoAux, RI-MP2 NMR
   Willem Van den Heuvel  : Paramagnetic NMR
   Boris Wezisla          : Elementary symmetry handling
   Frank Wennmohs         : Technical directorship


 We gratefully acknowledge several colleagues who have allowed us to
 interface, adapt or use parts of their codes:
   Stefan Grimme, W. Hujo, H. Kruse,             : VdW corrections, initial TS optimization,
                  C. Bannwarth                     DFT functionals, gCP, sTDA/sTD-DF
   Ed Valeev                                     : LibInt (2-el integral package), F12 methods
   Garnet Chan, S. Sharma, J. Yang, R. Olivares  : DMRG
   Ulf Ekstrom                                   : XCFun DFT Library
   Mihaly Kallay                                 : mrcc  (arbitrary order and MRCC methods)
   Andreas Klamt, Michael Diedenhofen            : otool_cosmo (COSMO solvation model)
   Jiri Pittner, Ondrej Demel                    : Mk-CCSD
   Frank Weinhold                                : gennbo (NPA and NBO analysis)
   Christopher J. Cramer and Donald G. Truhlar   : smd solvation model
   Lars Goerigk                                  : TD-DFT with DH, B97 family of functionals
   V. Asgeirsson, H. Jonsson                     : NEB implementation
   FAccTs GmbH                                   : IRC, NEB, NEB-TS, Multilevel


 Your calculation uses the libint2 library for the computation of 2-el integrals
 For citations please refer to: http://libint.valeyev.net

 This ORCA versions uses:
   CBLAS   interface :  Fast vector & matrix operations
   LAPACKE interface :  Fast linear algebra routines
   SCALAPACK package :  Parallel linear algebra routines


----- Orbital basis set information -----
Your calculation utilizes the basis: aug-cc-pVTZ 
    H, B-Ne : Obtained from the ccRepo (grant-hill.group.shef.ac.uk/ccrepo) Feb. 2017
              R. A. Kendall, T. H. Dunning, Jr., R. J. Harrison, J. Chem. Phys. 96, 6796 (1992)
         He : Obtained from the ccRepo (grant-hill.group.shef.ac.uk/ccrepo) Feb. 2017
              D. E. Woon, T. H. Dunning, Jr., J. Chem. Phys. 100, 2975 (1994)
  Li-Be, Na : Obtained from the ccRepo (grant-hill.group.shef.ac.uk/ccrepo) Feb. 2017
              B. P. Prascher, D. E. Woon, K. A. Peterson, T. H. Dunning, Jr., A. K. Wilson, Theor. Chem. Acc. 128, 69 (2011)
         Mg : Obtained from the Peterson Research Group Website (tyr0.chem.wsu.edu/~kipeters) Feb. 2017
              B. P. Prascher, D. E. Woon, K. A. Peterson, T. H. Dunning, Jr., A. K. Wilson, Theor. Chem. Acc. 128, 69 (2011)
      Al-Ar : Obtained from the ccRepo (grant-hill.group.shef.ac.uk/ccrepo) Feb. 2017
              D. E. Woon, T. H. Dunning, Jr., J. Chem. Phys. 98, 1358 (1993)
      Sc-Zn : Obtained from the ccRepo (grant-hill.group.shef.ac.uk/ccrepo) Feb. 2017
              N. B. Balabanov, K. A. Peterson, J. Chem. Phys. 123, 064107 (2005)
              N. B. Balabanov, K. A. Peterson, J. Chem. Phys. 125, 074110 (2006)
      Ga-Kr : Obtained from the ccRepo (grant-hill.group.shef.ac.uk/ccrepo) Feb. 2017
              A. K. Wilson, D. E. Woon, K. A. Peterson, T. H. Dunning, Jr., J. Chem. Phys. 110, 7667 (1999)
     Ag, Au : Obtained from the Peterson Research Group Website (tyr0.chem.wsu.edu/~kipeters) Feb. 2017
              K. A. Peterson, C. Puzzarini, Theor. Chem. Acc. 114, 283 (2005)

----- AuxJ basis set information -----
Your calculation utilizes the AutoAux generation procedure.
  G. L. Stoychev, A. A. Auer, F. Neese, J. Chem. Theory Comput. 13, 554 (2017)

----- AuxC basis set information -----
Your calculation utilizes the auxiliary basis: aug-cc-pVTZ/C 
  H-He, B-F, Al-Ar, Ga-Kr : Obtained from the EMSL Basis Set Exchange (bse.pnl.gov) Feb. 2017
                            F. Weigend, A. Kohn, C. Hattig, J. Chem. Phys. 116, 3175 (2002)
                   Be, Mg : Obtained from the TURBOMOLE 7.0 basis set library
                            C. Haettig, Phys. Chem. Chem. Phys. 7, 59 (2005)
                       Ne : Obtained from the EMSL Basis Set Exchange (bse.pnl.gov) Feb. 2017
                            C. Haettig, Phys. Chem. Chem. Phys. 7, 59 (2005)
                            F. Weigend, A. Kohn, C. Hattig, J. Chem. Phys. 116, 3175 (2002)
                    Sc-Zn : Obtained from the EMSL Basis Set Exchange (bse.pnl.gov) Feb. 2017
                            J. G. Hill, J. A. Platts, J. Chem. Phys. 128, 044104 (2008)

----- AuxJK basis set information -----
Your calculation utilizes the AutoAux generation procedure.
  G. L. Stoychev, A. A. Auer, F. Neese, J. Chem. Theory Comput. 13, 554 (2017)

================================================================================
                                        WARNINGS
                       Please study these warnings very carefully!
================================================================================


WARNING: your system is open-shell and RHF/RKS was chosen
  ===> : WILL SWITCH to UHF/UKS


WARNING: MDCI localization with Augmented Hessian Foster-Boys
  ===> : Switching off randomization!

WARNING: Post HF methods need fully converged wavefunctions
  ===> : Setting SCFConvForced true
         You can overwrite this default with %scf ConvForced false 


INFO   : the flag for use of LIBINT has been found!

================================================================================
                                       INPUT FILE
================================================================================
NAME = simple-grid-165-210-b3lyp_d3bj-631gd-gas-singlepoint-DLPNO_CCSD_T1-NormalPNO-augtz-gas.inp
|  1> ! aug-cc-pVTZ aug-cc-pVTZ/C DLPNO-CCSD(T1) TightSCF NormalPNO UNO MiniPrint AutoAux
|  2> %pal nproc 10 end
|  3> %maxcore 20000
|  4> %mdci
|  5>      density none
|  6> end
|  7> 
|  8> * xyz 0 6
|  9>  O     -0.38971000     -0.21501800     -0.55957600
| 10>  C     -1.45404700     -1.18130000     -0.34449700
| 11>  C     -2.73576400     -0.14541600     -0.26295800
| 12>  C     -1.95194500      1.15416100     -0.25178300
| 13>  C     -1.84507100      1.95327300     -1.49384200
| 14> Fe      1.37923200      0.02947800      0.02143500
| 15> Cl      1.82606300      2.01894900     -0.84581200
| 16>  C     -1.58584100      1.80855900      1.02527100
| 17> Cl      2.51755500     -1.68797100     -0.72542100
| 18> Cl      1.35829800      0.15346200      2.23325300
| 19>  H     -3.27387500     -0.21478200     -1.21311400
| 20>  H     -2.46402400      2.39559700      1.34145400
| 21>  H     -1.35618000      1.09710600      1.81856000
| 22>  H     -0.74708300      2.49590300      0.89462300
| 23>  H     -2.63426200      2.72267800     -1.45536300
| 24>  H     -0.87945100      2.46561900     -1.54107900
| 25>  H     -1.99625200      1.34706800     -2.38789500
| 26>  C     -3.71597100     -0.34678200      0.88903900
| 27>  H     -4.50837500      0.41006400      0.86867400
| 28>  H     -4.19526600     -1.32581400      0.79462700
| 29>  H     -3.23014100     -0.30614800      1.86657600
| 30>  C     -1.22168700     -1.97491700      0.93013700
| 31>  H     -2.04278100     -2.67628700      1.10980500
| 32>  H     -0.29837100     -2.55436000      0.82120000
| 33>  H     -1.10231300     -1.33084400      1.80335500
| 34>  C     -1.53901800     -2.08150200     -1.56538000
| 35>  H     -0.60533900     -2.64528300     -1.66343500
| 36>  H     -2.37018200     -2.79020200     -1.47422600
| 37>  H     -1.67496500     -1.48850800     -2.47472900
| 38> *
| 39> 
| 40> 
| 41>                          ****END OF INPUT****
================================================================================

                       ****************************
                       * Single Point Calculation *
                       ****************************

---------------------------------
CARTESIAN COORDINATES (ANGSTROEM)
---------------------------------
  O     -0.389710   -0.215018   -0.559576
  C     -1.454047   -1.181300   -0.344497
  C     -2.735764   -0.145416   -0.262958
  C     -1.951945    1.154161   -0.251783
  C     -1.845071    1.953273   -1.493842
  Fe     1.379232    0.029478    0.021435
  Cl     1.826063    2.018949   -0.845812
  C     -1.585841    1.808559    1.025271
  Cl     2.517555   -1.687971   -0.725421
  Cl     1.358298    0.153462    2.233253
  H     -3.273875   -0.214782   -1.213114
  H     -2.464024    2.395597    1.341454
  H     -1.356180    1.097106    1.818560
  H     -0.747083    2.495903    0.894623
  H     -2.634262    2.722678   -1.455363
  H     -0.879451    2.465619   -1.541079
  H     -1.996252    1.347068   -2.387895
  C     -3.715971   -0.346782    0.889039
  H     -4.508375    0.410064    0.868674
  H     -4.195266   -1.325814    0.794627
  H     -3.230141   -0.306148    1.866576
  C     -1.221687   -1.974917    0.930137
  H     -2.042781   -2.676287    1.109805
  H     -0.298371   -2.554360    0.821200
  H     -1.102313   -1.330844    1.803355
  C     -1.539018   -2.081502   -1.565380
  H     -0.605339   -2.645283   -1.663435
  H     -2.370182   -2.790202   -1.474226
  H     -1.674965   -1.488508   -2.474729

----------------------------
CARTESIAN COORDINATES (A.U.)
----------------------------
  NO LB      ZA    FRAG     MASS         X           Y           Z
   0 O     8.0000    0    15.999   -0.736445   -0.406325   -1.057445
   1 C     6.0000    0    12.011   -2.747751   -2.232333   -0.651005
   2 C     6.0000    0    12.011   -5.169845   -0.274796   -0.496919
   3 C     6.0000    0    12.011   -3.688641    2.181048   -0.475801
   4 C     6.0000    0    12.011   -3.486679    3.691151   -2.822952
   5 Fe   26.0000    0    55.850    2.606371    0.055705    0.040506
   6 Cl   17.0000    0    35.453    3.450759    3.815261   -1.598353
   7 C     6.0000    0    12.011   -2.996805    3.417681    1.937481
   8 Cl   17.0000    0    35.453    4.757489   -3.189803   -1.370847
   9 Cl   17.0000    0    35.453    2.566811    0.290001    4.220237
  10 H     1.0000    0     1.008   -6.186727   -0.405879   -2.292453
  11 H     1.0000    0     1.008   -4.656331    4.527022    2.534981
  12 H     1.0000    0     1.008   -2.562809    2.073230    3.436580
  13 H     1.0000    0     1.008   -1.411782    4.716573    1.690592
  14 H     1.0000    0     1.008   -4.978034    5.145116   -2.750237
  15 H     1.0000    0     1.008   -1.661922    4.659345   -2.912217
  16 H     1.0000    0     1.008   -3.772370    2.545590   -4.512468
  17 C     6.0000    0    12.011   -7.022168   -0.655323    1.680040
  18 H     1.0000    0     1.008   -8.519594    0.774909    1.641556
  19 H     1.0000    0     1.008   -7.927904   -2.505425    1.501627
  20 H     1.0000    0     1.008   -6.104082   -0.578536    3.527317
  21 C     6.0000    0    12.011   -2.308654   -3.732052    1.757704
  22 H     1.0000    0     1.008   -3.860297   -5.057449    2.097228
  23 H     1.0000    0     1.008   -0.563839   -4.827041    1.551843
  24 H     1.0000    0     1.008   -2.083070   -2.514931    3.407847
  25 C     6.0000    0    12.011   -2.908323   -3.933469   -2.958139
  26 H     1.0000    0     1.008   -1.143925   -4.998860   -3.143437
  27 H     1.0000    0     1.008   -4.478995   -5.272718   -2.785883
  28 H     1.0000    0     1.008   -3.165225   -2.812872   -4.676560



           ************************************************************
           *        Program running with 10 parallel MPI-processes    *
           *              working on a common directory               *
           ************************************************************


           ************************************************************
           *        Program running with 10 parallel MPI-processes    *
           *              working on a common directory               *
           ************************************************************

Diagonalization of the overlap matrix:
Smallest eigenvalue                        ... 6.644e-07
Time for diagonalization                   ...    0.370 sec
Threshold for overlap eigenvalues          ... 1.000e-08
Number of eigenvalues below threshold      ... 0
Time for construction of square roots      ...    0.331 sec
Total time needed                          ...    0.708 sec

-------------------
DFT GRID GENERATION
-------------------

General Integration Accuracy     IntAcc      ...  4.340
Radial Grid Type                 RadialGrid  ... Gauss-Chebyshev
Angular Grid (max. acc.)         AngularGrid ... Lebedev-110
Angular grid pruning method      GridPruning ... 3 (G Style)
Weight generation scheme         WeightScheme... Becke
Basis function cutoff            BFCut       ...    1.0000e-11
Integration weight cutoff        WCut        ...    1.0000e-14
Grids for H and He will be reduced by one unit

# of grid points (after initial pruning)     ...  36112 (   0.0 sec)
# of grid points (after weights+screening)   ...  32256 (   0.1 sec)
nearest neighbour list constructed           ...    0.0 sec
Grid point re-assignment to atoms done       ...    0.0 sec
Grid point division into batches done        ...    0.0 sec
Reduced shell lists constructed in    0.3 sec

Total number of grid points                  ...    32256
Total number of batches                      ...      520
Average number of points per batch           ...       62
Average number of grid points per atom       ...     1112
Average number of shells per batch           ...   294.30 (85.80%)
Average number of basis functions per batch  ...   876.34 (85.50%)
Average number of large shells per batch     ...   243.26 (82.66%)
Average number of large basis fcns per batch ...   723.42 (82.55%)
Maximum spatial batch extension              ...   3.37,  3.24,  2.54 au
Average spatial batch extension              ...   0.17,  0.17,  0.16 au

Time for grid setup =    0.396 sec

Loading Hartree-Fock densities                     ... done
Calculating cut-offs                               ... done
Setting up the integral package                    ... done
Initializing the effective Hamiltonian             ... done
Starting the Coulomb interaction                   ... done (   1.1 sec)
Reading the grid                                   ... done
Mapping shells                                     ... done
Starting the XC term evaluation                    ... done (   0.8 sec)
Transforming the Hamiltonian                       ... done (   0.2 sec)
Diagonalizing the Hamiltonian                      ... done (   0.3 sec)
Back transforming the eigenvectors                 ... done (   0.1 sec)
Now organizing SCF variables                       ... done
--------------
SCF ITERATIONS
--------------
ITER       Energy         Delta-E        Max-DP      RMS-DP      [F,P]     Damp
               ***  Starting incremental Fock matrix formation  ***
  0  -3027.5763343107   0.000000000000 0.43627820  0.00133304  0.2634089 0.7000
  1  -3027.8259913851  -0.249657074388 0.30611435  0.00102288  0.1522741 0.7000
                               ***Turning on DIIS***
  2  -3027.9939746506  -0.167983265486 0.20643744  0.00074230  0.1098283 0.7000
  3  -3029.6543247458  -1.660350095173 0.42279114  0.00181738  0.0820168 0.0000
  4  -3028.3065000367   1.347824709068 0.05314988  0.00023192  0.0192903 0.0000
  5  -3028.4288192305  -0.122319193790 0.03968286  0.00017669  0.0120979 0.0000
  6  -3028.4425411850  -0.013721954508 0.02009646  0.00007030  0.0055990 0.0000
  7  -3028.4670858798  -0.024544694839 0.00975202  0.00003362  0.0034271 0.0000
  8  -3028.4642022773   0.002883602545 0.00578018  0.00001844  0.0014990 0.0000
  9  -3028.4546819961   0.009520281154 0.00237456  0.00001088  0.0007496 0.0000
 10  -3028.4466290054   0.008052990743 0.00085218  0.00000322  0.0003852 0.0000
 11  -3028.4515988860  -0.004969880647 0.00022774  0.00000166  0.0001000 0.0000
 12  -3028.4485060672   0.003092818841 0.00020966  0.00000122  0.0000253 0.0000
 13  -3028.4486901757  -0.000184108507 0.00052333  0.00000111  0.0000120 0.0000
 14  -3028.4486881329   0.000002042830 0.00048869  0.00000135  0.0000084 0.0000
 15  -3028.4486460725   0.000042060427 0.00097317  0.00000186  0.0000060 0.0000
 16  -3028.4486881170  -0.000042044513 0.00118908  0.00000226  0.0000048 0.0000
 17  -3028.4486854600   0.000002656979 0.00046852  0.00000182  0.0000030 0.0000
 18  -3028.4486725804   0.000012879584 0.00212170  0.00000357  0.0000019 0.0000
                            ***DIIS convergence achieved***

               *****************************************************
               *                     SUCCESS                       *
               *           SCF CONVERGED AFTER  19 CYCLES          *
               *****************************************************

Total Energy       :        -3028.44869007 Eh          -82408.27841 eV
  Last Energy change         ...   -1.7493e-05  Tolerance :   1.0000e-08
  Last MAX-Density change    ...    1.3970e-03  Tolerance :   1.0000e-07
             **** THE GBW FILE WAS UPDATED (simple-grid-165-210-b3lyp_d3bj-631gd-gas-singlepoint-DLPNO_CCSD_T1-NormalPNO-augtz-gas.gbw) ****
             **** DENSITY FILE WAS UPDATED (simple-grid-165-210-b3lyp_d3bj-631gd-gas-singlepoint-DLPNO_CCSD_T1-NormalPNO-augtz-gas.scfp.tmp) ****
             **** ENERGY FILE WAS UPDATED (simple-grid-165-210-b3lyp_d3bj-631gd-gas-singlepoint-DLPNO_CCSD_T1-NormalPNO-augtz-gas.en.tmp) ****
----------------------
UHF SPIN CONTAMINATION
----------------------

Expectation value of <S**2>     :     8.764621
Ideal value S*(S+1) for S=2.5   :     8.750000
Deviation                       :     0.014621

----------------
ORBITAL ENERGIES
----------------
                 SPIN UP ORBITALS
  NO   OCC          E(Eh)            E(eV) 
   0   1.0000    -261.547361     -7117.0655 
   1   1.0000    -104.776047     -2851.1012 
   2   1.0000    -104.774423     -2851.0570 
   3   1.0000    -104.771595     -2850.9800 
   4   1.0000     -32.215278      -876.6223 
   5   1.0000     -27.691174      -753.5152 
   6   1.0000     -27.691028      -753.5112 
   7   1.0000     -27.690676      -753.5016 
   8   1.0000     -20.556421      -559.3687 
   9   1.0000     -11.408506      -310.4412 
  10   1.0000     -11.334670      -308.4320 
  11   1.0000     -11.293993      -307.3252 
  12   1.0000     -11.280892      -306.9687 
  13   1.0000     -11.280147      -306.9484 
  14   1.0000     -11.265708      -306.5555 
  15   1.0000     -11.235737      -305.7400 
  16   1.0000     -11.234503      -305.7064 
  17   1.0000     -10.502644      -285.7915 
  18   1.0000     -10.501126      -285.7502 
  19   1.0000     -10.498218      -285.6710 
  20   1.0000      -7.969478      -216.8605 
  21   1.0000      -7.968726      -216.8401 
  22   1.0000      -7.968642      -216.8378 
  23   1.0000      -7.968010      -216.8206 
  24   1.0000      -7.967163      -216.7975 
  25   1.0000      -7.967140      -216.7969 
  26   1.0000      -7.965019      -216.7392 
  27   1.0000      -7.964342      -216.7208 
  28   1.0000      -7.964257      -216.7185 
  29   1.0000      -4.570673      -124.3743 
  30   1.0000      -3.183025       -86.6145 
  31   1.0000      -3.182902       -86.6112 
  32   1.0000      -3.182282       -86.5943 
  33   1.0000      -1.352054       -36.7913 
  34   1.0000      -1.173583       -31.9348 
  35   1.0000      -1.093292       -29.7500 
  36   1.0000      -1.047200       -28.4958 
  37   1.0000      -1.041955       -28.3530 
  38   1.0000      -1.039226       -28.2788 
  39   1.0000      -1.035869       -28.1874 
  40   1.0000      -1.015851       -27.6427 
  41   1.0000      -0.964040       -26.2329 
  42   1.0000      -0.933634       -25.4055 
  43   1.0000      -0.902160       -24.5490 
  44   1.0000      -0.900002       -24.4903 
  45   1.0000      -0.899500       -24.4766 
  46   1.0000      -0.891894       -24.2697 
  47   1.0000      -0.891351       -24.2549 
  48   1.0000      -0.801793       -21.8179 
  49   1.0000      -0.758314       -20.6348 
  50   1.0000      -0.700508       -19.0618 
  51   1.0000      -0.688808       -18.7434 
  52   1.0000      -0.670990       -18.2586 
  53   1.0000      -0.635539       -17.2939 
  54   1.0000      -0.633873       -17.2486 
  55   1.0000      -0.620597       -16.8873 
  56   1.0000      -0.603685       -16.4271 
  57   1.0000      -0.595638       -16.2081 
  58   1.0000      -0.593786       -16.1577 
  59   1.0000      -0.582686       -15.8557 
  60   1.0000      -0.575078       -15.6487 
  61   1.0000      -0.558868       -15.2076 
  62   1.0000      -0.544467       -14.8157 
  63   1.0000      -0.536914       -14.6102 
  64   1.0000      -0.527736       -14.3604 
  65   1.0000      -0.518332       -14.1045 
  66   1.0000      -0.504089       -13.7170 
  67   1.0000      -0.473856       -12.8943 
  68   1.0000      -0.466502       -12.6942 
  69   1.0000      -0.451199       -12.2778 
  70   1.0000      -0.440521       -11.9872 
  71   1.0000      -0.426944       -11.6177 
  72   1.0000      -0.422486       -11.4964 
  73   1.0000      -0.417666       -11.3653 
  74   1.0000      -0.414379       -11.2758 
  75   1.0000      -0.412973       -11.2376 
  76   1.0000      -0.411474       -11.1968 
  77   0.0000       0.006531         0.1777 
  78   0.0000       0.019282         0.5247 
  79   0.0000       0.021663         0.5895 
  80   0.0000       0.030469         0.8291 
  81   0.0000       0.036131         0.9832 
  82   0.0000       0.038574         1.0497 
  83   0.0000       0.042309         1.1513 
  84   0.0000       0.043234         1.1765 
  85   0.0000       0.044250         1.2041 
  86   0.0000       0.047186         1.2840 
  87   0.0000       0.056775         1.5449 
  88   0.0000       0.060296         1.6407 
  89   0.0000       0.060885         1.6568 
  90   0.0000       0.064569         1.7570 
  91   0.0000       0.066068         1.7978 
  92   0.0000       0.070499         1.9184 
  93   0.0000       0.072355         1.9689 
  94   0.0000       0.081909         2.2289 
  95   0.0000       0.086643         2.3577 
  96   0.0000       0.089539         2.4365 
  97   0.0000       0.090632         2.4662 
  98   0.0000       0.093168         2.5352 
  99   0.0000       0.100356         2.7308 
 100   0.0000       0.102096         2.7782 
 101   0.0000       0.110621         3.0101 
 102   0.0000       0.116117         3.1597 
 103   0.0000       0.117949         3.2095 
 104   0.0000       0.121976         3.3191 
 105   0.0000       0.124210         3.3799 
 106   0.0000       0.128502         3.4967 
 107   0.0000       0.129068         3.5121 
 108   0.0000       0.130996         3.5646 
 109   0.0000       0.132201         3.5974 
 110   0.0000       0.136325         3.7096 
 111   0.0000       0.137341         3.7372 
 112   0.0000       0.146697         3.9918 
 113   0.0000       0.147699         4.0191 
 114   0.0000       0.150340         4.0909 
 115   0.0000       0.153217         4.1693 
 116   0.0000       0.157369         4.2822 
 117   0.0000       0.159150         4.3307 
 118   0.0000       0.163213         4.4412 
 119   0.0000       0.166240         4.5236 
 120   0.0000       0.170838         4.6487 
 121   0.0000       0.173980         4.7342 
 122   0.0000       0.177355         4.8261 
 123   0.0000       0.182591         4.9686 
 124   0.0000       0.185007         5.0343 
 125   0.0000       0.188517         5.1298 
 126   0.0000       0.194385         5.2895 
 127   0.0000       0.194686         5.2977 
 128   0.0000       0.196926         5.3586 
 129   0.0000       0.200428         5.4539 
 130   0.0000       0.202229         5.5029 
 131   0.0000       0.204700         5.5702 
 132   0.0000       0.207050         5.6341 
 133   0.0000       0.211791         5.7631 
 134   0.0000       0.214193         5.8285 
 135   0.0000       0.219991         5.9863 
 136   0.0000       0.222070         6.0428 
 137   0.0000       0.228046         6.2054 
 138   0.0000       0.229392         6.2421 
 139   0.0000       0.232443         6.3251 
 140   0.0000       0.240352         6.5403 
 141   0.0000       0.241772         6.5790 
 142   0.0000       0.244189         6.6447 
 143   0.0000       0.248977         6.7750 
 144   0.0000       0.251313         6.8386 
 145   0.0000       0.252063         6.8590 
 146   0.0000       0.254361         6.9215 
 147   0.0000       0.257507         7.0071 
 148   0.0000       0.259947         7.0735 
 149   0.0000       0.263366         7.1666 
 150   0.0000       0.269239         7.3264 
 151   0.0000       0.274765         7.4767 
 152   0.0000       0.275083         7.4854 
 153   0.0000       0.280186         7.6243 
 154   0.0000       0.283683         7.7194 
 155   0.0000       0.286373         7.7926 
 156   0.0000       0.290504         7.9050 
 157   0.0000       0.296825         8.0770 
 158   0.0000       0.301715         8.2101 
 159   0.0000       0.303334         8.2541 
 160   0.0000       0.306725         8.3464 
 161   0.0000       0.308215         8.3870 
 162   0.0000       0.312558         8.5051 
 163   0.0000       0.321190         8.7400 
 164   0.0000       0.324927         8.8417 
 165   0.0000       0.329488         8.9658 
 166   0.0000       0.330222         8.9858 
 167   0.0000       0.338256         9.2044 
 168   0.0000       0.344882         9.3847 
 169   0.0000       0.347590         9.4584 
 170   0.0000       0.351018         9.5517 
 171   0.0000       0.353397         9.6164 
 172   0.0000       0.359403         9.7798 
 173   0.0000       0.360533         9.8106 
 174   0.0000       0.362536         9.8651 
 175   0.0000       0.365058         9.9337 
 176   0.0000       0.368747        10.0341 
 177   0.0000       0.372646        10.1402 
 178   0.0000       0.376442        10.2435 
 179   0.0000       0.378285        10.2936 
 180   0.0000       0.382822        10.4171 
 181   0.0000       0.384843        10.4721 
 182   0.0000       0.387809        10.5528 
 183   0.0000       0.393331        10.7031 
 184   0.0000       0.396984        10.8025 
 185   0.0000       0.397381        10.8133 
 186   0.0000       0.402613        10.9556 
 187   0.0000       0.403485        10.9794 
 188   0.0000       0.406283        11.0555 
 189   0.0000       0.408066        11.1040 
 190   0.0000       0.411536        11.1985 
 191   0.0000       0.420600        11.4451 
 192   0.0000       0.421933        11.4814 
 193   0.0000       0.423436        11.5223 
 194   0.0000       0.428549        11.6614 
 195   0.0000       0.431303        11.7364 
 196   0.0000       0.433972        11.8090 
 197   0.0000       0.436257        11.8712 
 198   0.0000       0.442415        12.0387 
 199   0.0000       0.445699        12.1281 
 200   0.0000       0.453604        12.3432 
 201   0.0000       0.458020        12.4633 
 202   0.0000       0.461390        12.5551 
 203   0.0000       0.464179        12.6310 
 204   0.0000       0.466366        12.6905 
 205   0.0000       0.467061        12.7094 
 206   0.0000       0.469667        12.7803 
 207   0.0000       0.472875        12.8676 
 208   0.0000       0.474470        12.9110 
 209   0.0000       0.476160        12.9570 
 210   0.0000       0.481251        13.0955 
 211   0.0000       0.485026        13.1982 
 212   0.0000       0.487541        13.2667 
 213   0.0000       0.489878        13.3303 
 214   0.0000       0.490964        13.3598 
 215   0.0000       0.498575        13.5669 
 216   0.0000       0.499391        13.5891 
 217   0.0000       0.502615        13.6768 
 218   0.0000       0.507067        13.7980 
 219   0.0000       0.508665        13.8415 
 220   0.0000       0.513154        13.9636 
 221   0.0000       0.518633        14.1127 
 222   0.0000       0.523939        14.2571 
 223   0.0000       0.525639        14.3034 
 224   0.0000       0.528493        14.3810 
 225   0.0000       0.529291        14.4028 
 226   0.0000       0.532899        14.5009 
 227   0.0000       0.536596        14.6015 
 228   0.0000       0.543244        14.7824 
 229   0.0000       0.544487        14.8162 
 230   0.0000       0.545932        14.8556 
 231   0.0000       0.554236        15.0815 
 232   0.0000       0.558890        15.2082 
 233   0.0000       0.563322        15.3288 
 234   0.0000       0.568090        15.4585 
 235   0.0000       0.572329        15.5739 
 236   0.0000       0.576642        15.6912 
 237   0.0000       0.577631        15.7181 
 238   0.0000       0.580300        15.7908 
 239   0.0000       0.582093        15.8396 
 240   0.0000       0.585365        15.9286 
 241   0.0000       0.590709        16.0740 
 242   0.0000       0.592918        16.1341 
 243   0.0000       0.595003        16.1909 
 244   0.0000       0.600468        16.3396 
 245   0.0000       0.603246        16.4152 
 246   0.0000       0.605056        16.4644 
 247   0.0000       0.609404        16.5827 
 248   0.0000       0.611352        16.6357 
 249   0.0000       0.619941        16.8695 
 250   0.0000       0.622700        16.9445 
 251   0.0000       0.626201        17.0398 
 252   0.0000       0.629838        17.1388 
 253   0.0000       0.636486        17.3197 
 254   0.0000       0.636879        17.3303 
 255   0.0000       0.641152        17.4466 
 256   0.0000       0.646445        17.5907 
 257   0.0000       0.650794        17.7090 
 258   0.0000       0.655611        17.8401 
 259   0.0000       0.662349        18.0234 
 260   0.0000       0.663596        18.0574 
 261   0.0000       0.665993        18.1226 
 262   0.0000       0.667152        18.1541 
 263   0.0000       0.676751        18.4153 
 264   0.0000       0.681664        18.5490 
 265   0.0000       0.686458        18.6795 
 266   0.0000       0.689486        18.7619 
 267   0.0000       0.692911        18.8551 
 268   0.0000       0.694087        18.8871 
 269   0.0000       0.697748        18.9867 
 270   0.0000       0.703519        19.1437 
 271   0.0000       0.709926        19.3181 
 272   0.0000       0.713518        19.4158 
 273   0.0000       0.719532        19.5795 
 274   0.0000       0.720296        19.6002 
 275   0.0000       0.727824        19.8051 
 276   0.0000       0.728708        19.8292 
 277   0.0000       0.735772        20.0214 
 278   0.0000       0.741912        20.1884 
 279   0.0000       0.749115        20.3845 
 280   0.0000       0.750924        20.4337 
 281   0.0000       0.758984        20.6530 
 282   0.0000       0.766605        20.8604 
 283   0.0000       0.772072        21.0092 
 284   0.0000       0.777241        21.1498 
 285   0.0000       0.779520        21.2118 
 286   0.0000       0.787077        21.4175 
 287   0.0000       0.792002        21.5515 
 288   0.0000       0.798950        21.7405 
 289   0.0000       0.803265        21.8579 
 290   0.0000       0.804511        21.8919 
 291   0.0000       0.813002        22.1229 
 292   0.0000       0.821375        22.3507 
 293   0.0000       0.825138        22.4531 
 294   0.0000       0.830452        22.5978 
 295   0.0000       0.830636        22.6027 
 296   0.0000       0.835341        22.7308 
 297   0.0000       0.848308        23.0836 
 298   0.0000       0.851666        23.1750 
 299   0.0000       0.857723        23.3398 
 300   0.0000       0.864159        23.5150 
 301   0.0000       0.868210        23.6252 
 302   0.0000       0.872779        23.7495 
 303   0.0000       0.876302        23.8454 
 304   0.0000       0.878652        23.9093 
 305   0.0000       0.884408        24.0660 
 306   0.0000       0.886970        24.1357 
 307   0.0000       0.892794        24.2942 
 308   0.0000       0.898917        24.4608 
 309   0.0000       0.903847        24.5949 
 310   0.0000       0.911395        24.8003 
 311   0.0000       0.913117        24.8472 
 312   0.0000       0.917611        24.9695 
 313   0.0000       0.920623        25.0514 
 314   0.0000       0.922787        25.1103 
 315   0.0000       0.928983        25.2789 
 316   0.0000       0.931871        25.3575 
 317   0.0000       0.934945        25.4411 
 318   0.0000       0.939069        25.5534 
 319   0.0000       0.941195        25.6112 
 320   0.0000       0.947274        25.7766 
 321   0.0000       0.950918        25.8758 
 322   0.0000       0.952955        25.9312 
 323   0.0000       0.956766        26.0349 
 324   0.0000       0.962880        26.2013 
 325   0.0000       0.966928        26.3115 
 326   0.0000       0.969243        26.3744 
 327   0.0000       0.974030        26.5047 
 328   0.0000       0.977078        26.5876 
 329   0.0000       0.977533        26.6000 
 330   0.0000       0.982666        26.7397 
 331   0.0000       0.987499        26.8712 
 332   0.0000       0.990627        26.9563 
 333   0.0000       0.997647        27.1473 
 334   0.0000       0.998699        27.1760 
 335   0.0000       1.002583        27.2817 
 336   0.0000       1.005257        27.3544 
 337   0.0000       1.010121        27.4868 
 338   0.0000       1.013735        27.5851 
 339   0.0000       1.019110        27.7314 
 340   0.0000       1.019682        27.7469 
 341   0.0000       1.024492        27.8778 
 342   0.0000       1.031601        28.0713 
 343   0.0000       1.033709        28.1286 
 344   0.0000       1.037197        28.2236 
 345   0.0000       1.038753        28.2659 
 346   0.0000       1.042228        28.3605 
 347   0.0000       1.046108        28.4661 
 348   0.0000       1.052134        28.6300 
 349   0.0000       1.056212        28.7410 
 350   0.0000       1.057348        28.7719 
 351   0.0000       1.062148        28.9025 
 352   0.0000       1.063934        28.9511 
 353   0.0000       1.067489        29.0479 
 354   0.0000       1.069377        29.0992 
 355   0.0000       1.074865        29.2486 
 356   0.0000       1.078051        29.3352 
 357   0.0000       1.082682        29.4613 
 358   0.0000       1.088867        29.6296 
 359   0.0000       1.092583        29.7307 
 360   0.0000       1.098521        29.8923 
 361   0.0000       1.101863        29.9832 
 362   0.0000       1.106437        30.1077 
 363   0.0000       1.107729        30.1428 
 364   0.0000       1.117457        30.4076 
 365   0.0000       1.120974        30.5033 
 366   0.0000       1.125484        30.6260 
 367   0.0000       1.134588        30.8737 
 368   0.0000       1.136720        30.9317 
 369   0.0000       1.140455        31.0334 
 370   0.0000       1.142804        31.0973 
 371   0.0000       1.145375        31.1673 
 372   0.0000       1.149005        31.2660 
 373   0.0000       1.152952        31.3734 
 374   0.0000       1.157965        31.5098 
 375   0.0000       1.158756        31.5314 
 376   0.0000       1.163900        31.6713 
 377   0.0000       1.169265        31.8173 
 378   0.0000       1.172194        31.8970 
 379   0.0000       1.182198        32.1692 
 380   0.0000       1.187430        32.3116 
 381   0.0000       1.191512        32.4227 
 382   0.0000       1.193349        32.4727 
 383   0.0000       1.201907        32.7055 
 384   0.0000       1.206207        32.8226 
 385   0.0000       1.206649        32.8346 
 386   0.0000       1.210792        32.9473 
 387   0.0000       1.212751        33.0006 
 388   0.0000       1.218409        33.1546 
 389   0.0000       1.219494        33.1841 
 390   0.0000       1.225506        33.3477 
 391   0.0000       1.232997        33.5516 
 392   0.0000       1.237944        33.6862 
 393   0.0000       1.240343        33.7515 
 394   0.0000       1.244241        33.8575 
 395   0.0000       1.250894        34.0386 
 396   0.0000       1.255554        34.1654 
 397   0.0000       1.256970        34.2039 
 398   0.0000       1.262943        34.3664 
 399   0.0000       1.266568        34.4651 
 400   0.0000       1.272540        34.6276 
 401   0.0000       1.284966        34.9657 
 402   0.0000       1.290410        35.1138 
 403   0.0000       1.291712        35.1493 
 404   0.0000       1.296070        35.2679 
 405   0.0000       1.305501        35.5245 
 406   0.0000       1.313423        35.7401 
 407   0.0000       1.315645        35.8005 
 408   0.0000       1.322226        35.9796 
 409   0.0000       1.325181        36.0600 
 410   0.0000       1.330381        36.2015 
 411   0.0000       1.334140        36.3038 
 412   0.0000       1.339834        36.4587 
 413   0.0000       1.346413        36.6377 
 414   0.0000       1.352378        36.8001 
 415   0.0000       1.356849        36.9217 
 416   0.0000       1.360767        37.0284 
 417   0.0000       1.371288        37.3146 
 418   0.0000       1.378729        37.5171 
 419   0.0000       1.386985        37.7418 
 420   0.0000       1.388695        37.7883 
 421   0.0000       1.391807        37.8730 
 422   0.0000       1.396058        37.9887 
 423   0.0000       1.401595        38.1393 
 424   0.0000       1.406058        38.2608 
 425   0.0000       1.416709        38.5506 
 426   0.0000       1.417778        38.5797 
 427   0.0000       1.424472        38.7619 
 428   0.0000       1.430513        38.9262 
 429   0.0000       1.436399        39.0864 
 430   0.0000       1.446460        39.3602 
 431   0.0000       1.450198        39.4619 
 432   0.0000       1.454732        39.5853 
 433   0.0000       1.458464        39.6868 
 434   0.0000       1.463104        39.8131 
 435   0.0000       1.464185        39.8425 
 436   0.0000       1.473284        40.0901 
 437   0.0000       1.477917        40.2162 
 438   0.0000       1.480840        40.2957 
 439   0.0000       1.485695        40.4278 
 440   0.0000       1.490234        40.5513 
 441   0.0000       1.497020        40.7360 
 442   0.0000       1.502647        40.8891 
 443   0.0000       1.505570        40.9686 
 444   0.0000       1.516604        41.2689 
 445   0.0000       1.521211        41.3943 
 446   0.0000       1.525694        41.5162 
 447   0.0000       1.525784        41.5187 
 448   0.0000       1.529339        41.6154 
 449   0.0000       1.536500        41.8103 
 450   0.0000       1.541608        41.9493 
 451   0.0000       1.548103        42.1260 
 452   0.0000       1.555778        42.3349 
 453   0.0000       1.563164        42.5359 
 454   0.0000       1.565996        42.6129 
 455   0.0000       1.566850        42.6362 
 456   0.0000       1.571378        42.7594 
 457   0.0000       1.576851        42.9083 
 458   0.0000       1.581511        43.0351 
 459   0.0000       1.584692        43.1217 
 460   0.0000       1.591438        43.3052 
 461   0.0000       1.596318        43.4380 
 462   0.0000       1.606164        43.7059 
 463   0.0000       1.611698        43.8565 
 464   0.0000       1.616370        43.9837 
 465   0.0000       1.628133        44.3038 
 466   0.0000       1.629731        44.3472 
 467   0.0000       1.636911        44.5426 
 468   0.0000       1.639092        44.6020 
 469   0.0000       1.645811        44.7848 
 470   0.0000       1.650705        44.9180 
 471   0.0000       1.658455        45.1288 
 472   0.0000       1.662425        45.2369 
 473   0.0000       1.669017        45.4163 
 474   0.0000       1.675146        45.5830 
 475   0.0000       1.679461        45.7005 
 476   0.0000       1.685091        45.8537 
 477   0.0000       1.694315        46.1047 
 478   0.0000       1.696777        46.1716 
 479   0.0000       1.702125        46.3172 
 480   0.0000       1.707712        46.4692 
 481   0.0000       1.710430        46.5432 
 482   0.0000       1.718637        46.7665 
 483   0.0000       1.723427        46.8968 
 484   0.0000       1.729142        47.0523 
 485   0.0000       1.730493        47.0891 
 486   0.0000       1.740841        47.3707 
 487   0.0000       1.743599        47.4457 
 488   0.0000       1.747174        47.5430 
 489   0.0000       1.750867        47.6435 
 490   0.0000       1.751975        47.6737 
 491   0.0000       1.758392        47.8483 
 492   0.0000       1.768625        48.1267 
 493   0.0000       1.770189        48.1693 
 494   0.0000       1.773949        48.2716 
 495   0.0000       1.776641        48.3449 
 496   0.0000       1.782015        48.4911 
 497   0.0000       1.786298        48.6076 
 498   0.0000       1.794719        48.8368 
 499   0.0000       1.799135        48.9569 
 500   0.0000       1.804125        49.0927 
 501   0.0000       1.810437        49.2645 
 502   0.0000       1.813597        49.3505 
 503   0.0000       1.815457        49.4011 
 504   0.0000       1.823489        49.6197 
 505   0.0000       1.831335        49.8332 
 506   0.0000       1.835085        49.9352 
 507   0.0000       1.841453        50.1085 
 508   0.0000       1.845995        50.2321 
 509   0.0000       1.853272        50.4301 
 510   0.0000       1.853933        50.4481 
 511   0.0000       1.861410        50.6515 
 512   0.0000       1.870527        50.8996 
 513   0.0000       1.873315        50.9755 
 514   0.0000       1.877964        51.1020 
 515   0.0000       1.882535        51.2264 
 516   0.0000       1.889521        51.4165 
 517   0.0000       1.892674        51.5023 
 518   0.0000       1.899334        51.6835 
 519   0.0000       1.901780        51.7501 
 520   0.0000       1.908556        51.9344 
 521   0.0000       1.914604        52.0990 
 522   0.0000       1.918746        52.2117 
 523   0.0000       1.926394        52.4199 
 524   0.0000       1.931828        52.5677 
 525   0.0000       1.934893        52.6511 
 526   0.0000       1.942874        52.8683 
 527   0.0000       1.948357        53.0175 
 528   0.0000       1.951074        53.0914 
 529   0.0000       1.956811        53.2475 
 530   0.0000       1.961685        53.3802 
 531   0.0000       1.969412        53.5904 
 532   0.0000       1.975277        53.7500 
 533   0.0000       1.984219        53.9933 
 534   0.0000       1.987422        54.0805 
 535   0.0000       1.996024        54.3146 
 536   0.0000       2.003320        54.5131 
 537   0.0000       2.008082        54.6427 
 538   0.0000       2.013856        54.7998 
 539   0.0000       2.016918        54.8831 
 540   0.0000       2.027474        55.1704 
 541   0.0000       2.033976        55.3473 
 542   0.0000       2.040018        55.5117 
 543   0.0000       2.043051        55.5943 
 544   0.0000       2.049585        55.7720 
 545   0.0000       2.056811        55.9687 
 546   0.0000       2.062267        56.1171 
 547   0.0000       2.071908        56.3795 
 548   0.0000       2.075042        56.4648 
 549   0.0000       2.078167        56.5498 
 550   0.0000       2.092920        56.9513 
 551   0.0000       2.100361        57.1537 
 552   0.0000       2.106727        57.3269 
 553   0.0000       2.115523        57.5663 
 554   0.0000       2.126330        57.8604 
 555   0.0000       2.134111        58.0721 
 556   0.0000       2.136524        58.1378 
 557   0.0000       2.146250        58.4024 
 558   0.0000       2.151141        58.5355 
 559   0.0000       2.162844        58.8540 
 560   0.0000       2.167892        58.9913 
 561   0.0000       2.174830        59.1801 
 562   0.0000       2.182077        59.3773 
 563   0.0000       2.186815        59.5063 
 564   0.0000       2.196919        59.7812 
 565   0.0000       2.205786        60.0225 
 566   0.0000       2.208395        60.0935 
 567   0.0000       2.213567        60.2342 
 568   0.0000       2.219541        60.3968 
 569   0.0000       2.226455        60.5849 
 570   0.0000       2.234573        60.8058 
 571   0.0000       2.236135        60.8483 
 572   0.0000       2.248751        61.1916 
 573   0.0000       2.251081        61.2550 
 574   0.0000       2.254848        61.3575 
 575   0.0000       2.262011        61.5525 
 576   0.0000       2.270742        61.7900 
 577   0.0000       2.279662        62.0327 
 578   0.0000       2.287832        62.2551 
 579   0.0000       2.300183        62.5911 
 580   0.0000       2.309278        62.8387 
 581   0.0000       2.311073        62.8875 
 582   0.0000       2.315240        63.0009 
 583   0.0000       2.320290        63.1383 
 584   0.0000       2.332319        63.4656 
 585   0.0000       2.339633        63.6646 
 586   0.0000       2.353301        64.0366 
 587   0.0000       2.355209        64.0885 
 588   0.0000       2.362618        64.2901 
 589   0.0000       2.372547        64.5603 
 590   0.0000       2.376407        64.6653 
 591   0.0000       2.377996        64.7086 
 592   0.0000       2.382973        64.8440 
 593   0.0000       2.392582        65.1055 
 594   0.0000       2.394155        65.1483 
 595   0.0000       2.407993        65.5248 
 596   0.0000       2.417368        65.7799 
 597   0.0000       2.435409        66.2708 
 598   0.0000       2.436897        66.3113 
 599   0.0000       2.442594        66.4664 
 600   0.0000       2.458580        66.9014 
 601   0.0000       2.463040        67.0227 
 602   0.0000       2.470601        67.2285 
 603   0.0000       2.478754        67.4503 
 604   0.0000       2.488169        67.7065 
 605   0.0000       2.498857        67.9974 
 606   0.0000       2.507416        68.2303 
 607   0.0000       2.523590        68.6704 
 608   0.0000       2.529560        68.8328 
 609   0.0000       2.540043        69.1181 
 610   0.0000       2.552633        69.4607 
 611   0.0000       2.570566        69.9487 
 612   0.0000       2.580904        70.2300 
 613   0.0000       2.601439        70.7887 
 614   0.0000       2.619505        71.2804 
 615   0.0000       2.621448        71.3332 
 616   0.0000       2.637645        71.7740 
 617   0.0000       2.646353        72.0109 
 618   0.0000       2.658245        72.3345 
 619   0.0000       2.662204        72.4423 
 620   0.0000       2.670953        72.6803 
 621   0.0000       2.681917        72.9787 
 622   0.0000       2.687552        73.1320 
 623   0.0000       2.702749        73.5455 
 624   0.0000       2.704152        73.5837 
 625   0.0000       2.720544        74.0298 
 626   0.0000       2.724066        74.1256 
 627   0.0000       2.727396        74.2162 
 628   0.0000       2.738384        74.5152 
 629   0.0000       2.740732        74.5791 
 630   0.0000       2.753252        74.9198 
 631   0.0000       2.765511        75.2534 
 632   0.0000       2.772877        75.4538 
 633   0.0000       2.790017        75.9202 
 634   0.0000       2.796002        76.0831 
 635   0.0000       2.804572        76.3163 
 636   0.0000       2.825668        76.8903 
 637   0.0000       2.836511        77.1854 
 638   0.0000       2.842598        77.3510 
 639   0.0000       2.852116        77.6100 
 640   0.0000       2.871065        78.1256 
 641   0.0000       2.879215        78.3474 
 642   0.0000       2.897368        78.8414 
 643   0.0000       2.908008        79.1309 
 644   0.0000       2.915052        79.3226 
 645   0.0000       2.935122        79.8687 
 646   0.0000       2.939898        79.9987 
 647   0.0000       2.960688        80.5644 
 648   0.0000       2.968428        80.7750 
 649   0.0000       2.974314        80.9352 
 650   0.0000       2.980798        81.1116 
 651   0.0000       3.011716        81.9530 
 652   0.0000       3.020126        82.1818 
 653   0.0000       3.044141        82.8353 
 654   0.0000       3.048056        82.9418 
 655   0.0000       3.056790        83.1795 
 656   0.0000       3.090268        84.0905 
 657   0.0000       3.094761        84.2127 
 658   0.0000       3.113784        84.7304 
 659   0.0000       3.125082        85.0378 
 660   0.0000       3.136553        85.3499 
 661   0.0000       3.158783        85.9548 
 662   0.0000       3.160728        86.0078 
 663   0.0000       3.177690        86.4693 
 664   0.0000       3.186802        86.7173 
 665   0.0000       3.194706        86.9324 
 666   0.0000       3.204492        87.1987 
 667   0.0000       3.213710        87.4495 
 668   0.0000       3.217926        87.5642 
 669   0.0000       3.226970        87.8103 
 670   0.0000       3.246512        88.3421 
 671   0.0000       3.250528        88.4514 
 672   0.0000       3.263456        88.8032 
 673   0.0000       3.276120        89.1478 
 674   0.0000       3.284310        89.3706 
 675   0.0000       3.288889        89.4952 
 676   0.0000       3.306848        89.9839 
 677   0.0000       3.312431        90.1358 
 678   0.0000       3.320637        90.3591 
 679   0.0000       3.323026        90.4241 
 680   0.0000       3.336299        90.7853 
 681   0.0000       3.345496        91.0356 
 682   0.0000       3.351304        91.1936 
 683   0.0000       3.370740        91.7225 
 684   0.0000       3.374627        91.8283 
 685   0.0000       3.381283        92.0094 
 686   0.0000       3.393603        92.3446 
 687   0.0000       3.399557        92.5067 
 688   0.0000       3.404110        92.6305 
 689   0.0000       3.422704        93.1365 
 690   0.0000       3.428461        93.2932 
 691   0.0000       3.439358        93.5897 
 692   0.0000       3.451610        93.9231 
 693   0.0000       3.463524        94.2473 
 694   0.0000       3.471628        94.4678 
 695   0.0000       3.478178        94.6460 
 696   0.0000       3.481506        94.7366 
 697   0.0000       3.494714        95.0960 
 698   0.0000       3.505469        95.3886 
 699   0.0000       3.522216        95.8444 
 700   0.0000       3.529232        96.0353 
 701   0.0000       3.532798        96.1323 
 702   0.0000       3.538463        96.2865 
 703   0.0000       3.544985        96.4639 
 704   0.0000       3.550541        96.6151 
 705   0.0000       3.564499        96.9950 
 706   0.0000       3.571892        97.1961 
 707   0.0000       3.579081        97.3918 
 708   0.0000       3.581373        97.4541 
 709   0.0000       3.593111        97.7735 
 710   0.0000       3.596478        97.8651 
 711   0.0000       3.612411        98.2987 
 712   0.0000       3.615009        98.3694 
 713   0.0000       3.623683        98.6054 
 714   0.0000       3.637886        98.9919 
 715   0.0000       3.644777        99.1794 
 716   0.0000       3.657929        99.5373 
 717   0.0000       3.660263        99.6008 
 718   0.0000       3.673379        99.9577 
 719   0.0000       3.680912       100.1627 
 720   0.0000       3.687073       100.3303 
 721   0.0000       3.695346       100.5555 
 722   0.0000       3.704845       100.8140 
 723   0.0000       3.712207       101.0143 
 724   0.0000       3.719298       101.2072 
 725   0.0000       3.725077       101.3645 
 726   0.0000       3.733518       101.5942 
 727   0.0000       3.742999       101.8522 
 728   0.0000       3.749605       102.0319 
 729   0.0000       3.763662       102.4144 
 730   0.0000       3.768711       102.5518 
 731   0.0000       3.771798       102.6358 
 732   0.0000       3.782365       102.9234 
 733   0.0000       3.794038       103.2410 
 734   0.0000       3.802368       103.4677 
 735   0.0000       3.811455       103.7150 
 736   0.0000       3.817657       103.8837 
 737   0.0000       3.821871       103.9984 
 738   0.0000       3.828577       104.1809 
 739   0.0000       3.832348       104.2835 
 740   0.0000       3.833330       104.3102 
 741   0.0000       3.843552       104.5884 
 742   0.0000       3.850187       104.7689 
 743   0.0000       3.857711       104.9737 
 744   0.0000       3.868318       105.2623 
 745   0.0000       3.873562       105.4050 
 746   0.0000       3.880366       105.5901 
 747   0.0000       3.888383       105.8083 
 748   0.0000       3.892932       105.9321 
 749   0.0000       3.898778       106.0911 
 750   0.0000       3.911232       106.4300 
 751   0.0000       3.914678       106.5238 
 752   0.0000       3.920971       106.6951 
 753   0.0000       3.931400       106.9788 
 754   0.0000       3.943972       107.3209 
 755   0.0000       3.947337       107.4125 
 756   0.0000       3.948410       107.4417 
 757   0.0000       3.959736       107.7499 
 758   0.0000       3.966253       107.9272 
 759   0.0000       3.980384       108.3118 
 760   0.0000       3.982644       108.3733 
 761   0.0000       3.987817       108.5140 
 762   0.0000       3.990464       108.5861 
 763   0.0000       3.994420       108.6937 
 764   0.0000       4.011807       109.1668 
 765   0.0000       4.016108       109.2838 
 766   0.0000       4.024107       109.5015 
 767   0.0000       4.036235       109.8316 
 768   0.0000       4.042921       110.0135 
 769   0.0000       4.050929       110.2314 
 770   0.0000       4.055129       110.3457 
 771   0.0000       4.060240       110.4847 
 772   0.0000       4.065045       110.6155 
 773   0.0000       4.072430       110.8165 
 774   0.0000       4.085620       111.1754 
 775   0.0000       4.088602       111.2565 
 776   0.0000       4.096114       111.4609 
 777   0.0000       4.103432       111.6600 
 778   0.0000       4.115057       111.9764 
 779   0.0000       4.121964       112.1643 
 780   0.0000       4.125576       112.2626 
 781   0.0000       4.131702       112.4293 
 782   0.0000       4.146315       112.8270 
 783   0.0000       4.147816       112.8678 
 784   0.0000       4.161044       113.2278 
 785   0.0000       4.163632       113.2982 
 786   0.0000       4.170661       113.4895 
 787   0.0000       4.181170       113.7754 
 788   0.0000       4.192811       114.0922 
 789   0.0000       4.197503       114.2199 
 790   0.0000       4.205995       114.4509 
 791   0.0000       4.208369       114.5155 
 792   0.0000       4.212770       114.6353 
 793   0.0000       4.229766       115.0978 
 794   0.0000       4.242314       115.4392 
 795   0.0000       4.245538       115.5270 
 796   0.0000       4.262685       115.9935 
 797   0.0000       4.265701       116.0756 
 798   0.0000       4.272176       116.2518 
 799   0.0000       4.291592       116.7801 
 800   0.0000       4.293951       116.8444 
 801   0.0000       4.295721       116.8925 
 802   0.0000       4.305205       117.1506 
 803   0.0000       4.314002       117.3900 
 804   0.0000       4.319027       117.5267 
 805   0.0000       4.324551       117.6770 
 806   0.0000       4.332322       117.8885 
 807   0.0000       4.335601       117.9777 
 808   0.0000       4.347937       118.3134 
 809   0.0000       4.358007       118.5874 
 810   0.0000       4.375291       119.0577 
 811   0.0000       4.386723       119.3688 
 812   0.0000       4.402564       119.7999 
 813   0.0000       4.408043       119.9489 
 814   0.0000       4.417093       120.1952 
 815   0.0000       4.427781       120.4860 
 816   0.0000       4.438506       120.7779 
 817   0.0000       4.441974       120.8723 
 818   0.0000       4.448582       121.0521 
 819   0.0000       4.456835       121.2766 
 820   0.0000       4.461674       121.4083 
 821   0.0000       4.465216       121.5047 
 822   0.0000       4.486685       122.0889 
 823   0.0000       4.507382       122.6521 
 824   0.0000       4.508278       122.6765 
 825   0.0000       4.512601       122.7941 
 826   0.0000       4.528035       123.2141 
 827   0.0000       4.528410       123.2243 
 828   0.0000       4.552683       123.8848 
 829   0.0000       4.556795       123.9967 
 830   0.0000       4.567935       124.2998 
 831   0.0000       4.585311       124.7727 
 832   0.0000       4.596156       125.0678 
 833   0.0000       4.603367       125.2640 
 834   0.0000       4.627346       125.9165 
 835   0.0000       4.634436       126.1094 
 836   0.0000       4.644981       126.3964 
 837   0.0000       4.653202       126.6201 
 838   0.0000       4.670391       127.0878 
 839   0.0000       4.673773       127.1798 
 840   0.0000       4.676180       127.2453 
 841   0.0000       4.699208       127.8720 
 842   0.0000       4.707871       128.1077 
 843   0.0000       4.718372       128.3934 
 844   0.0000       4.738027       128.9283 
 845   0.0000       4.747679       129.1909 
 846   0.0000       4.756484       129.4305 
 847   0.0000       4.765908       129.6869 
 848   0.0000       4.785666       130.2246 
 849   0.0000       4.793081       130.4264 
 850   0.0000       4.806367       130.7879 
 851   0.0000       4.810876       130.9106 
 852   0.0000       4.828312       131.3851 
 853   0.0000       4.843388       131.7953 
 854   0.0000       4.844056       131.8135 
 855   0.0000       4.862555       132.3168 
 856   0.0000       4.875286       132.6633 
 857   0.0000       4.880335       132.8007 
 858   0.0000       4.888699       133.0283 
 859   0.0000       4.911671       133.6534 
 860   0.0000       4.915395       133.7547 
 861   0.0000       4.935178       134.2930 
 862   0.0000       4.941765       134.4723 
 863   0.0000       4.947092       134.6172 
 864   0.0000       4.961307       135.0040 
 865   0.0000       4.965686       135.1232 
 866   0.0000       4.975035       135.3776 
 867   0.0000       4.979158       135.4898 
 868   0.0000       4.999910       136.0545 
 869   0.0000       5.001897       136.1085 
 870   0.0000       5.017791       136.5410 
 871   0.0000       5.025194       136.7425 
 872   0.0000       5.032861       136.9511 
 873   0.0000       5.043817       137.2492 
 874   0.0000       5.058357       137.6449 
 875   0.0000       5.072528       138.0305 
 876   0.0000       5.078537       138.1940 
 877   0.0000       5.096862       138.6927 
 878   0.0000       5.104627       138.9040 
 879   0.0000       5.122583       139.3926 
 880   0.0000       5.134408       139.7144 
 881   0.0000       5.145698       140.0216 
 882   0.0000       5.166053       140.5754 
 883   0.0000       5.173500       140.7781 
 884   0.0000       5.193385       141.3192 
 885   0.0000       5.206381       141.6728 
 886   0.0000       5.209399       141.7550 
 887   0.0000       5.232771       142.3909 
 888   0.0000       5.249638       142.8499 
 889   0.0000       5.257930       143.0755 
 890   0.0000       5.274149       143.5169 
 891   0.0000       5.283661       143.7757 
 892   0.0000       5.294571       144.0726 
 893   0.0000       5.305526       144.3707 
 894   0.0000       5.317323       144.6917 
 895   0.0000       5.322002       144.8190 
 896   0.0000       5.344405       145.4286 
 897   0.0000       5.355095       145.7195 
 898   0.0000       5.381383       146.4349 
 899   0.0000       5.391923       146.7217 
 900   0.0000       5.399091       146.9167 
 901   0.0000       5.407770       147.1529 
 902   0.0000       5.412872       147.2917 
 903   0.0000       5.430265       147.7650 
 904   0.0000       5.440815       148.0521 
 905   0.0000       5.460144       148.5781 
 906   0.0000       5.463090       148.6582 
 907   0.0000       5.472640       148.9181 
 908   0.0000       5.483436       149.2119 
 909   0.0000       5.494908       149.5241 
 910   0.0000       5.518710       150.1717 
 911   0.0000       5.528585       150.4405 
 912   0.0000       5.537815       150.6916 
 913   0.0000       5.540683       150.7697 
 914   0.0000       5.564469       151.4169 
 915   0.0000       5.579237       151.8187 
 916   0.0000       5.590225       152.1178 
 917   0.0000       5.594679       152.2390 
 918   0.0000       5.605199       152.5252 
 919   0.0000       5.613725       152.7572 
 920   0.0000       5.629830       153.1955 
 921   0.0000       5.642252       153.5335 
 922   0.0000       5.652179       153.8036 
 923   0.0000       5.660112       154.0195 
 924   0.0000       5.672727       154.3627 
 925   0.0000       5.676001       154.4519 
 926   0.0000       5.696281       155.0037 
 927   0.0000       5.698600       155.0668 
 928   0.0000       5.713570       155.4741 
 929   0.0000       5.716468       155.5530 
 930   0.0000       5.729997       155.9212 
 931   0.0000       5.744139       156.3060 
 932   0.0000       5.751026       156.4934 
 933   0.0000       5.762342       156.8013 
 934   0.0000       5.778244       157.2340 
 935   0.0000       5.802539       157.8951 
 936   0.0000       5.811202       158.1308 
 937   0.0000       5.820294       158.3783 
 938   0.0000       5.833080       158.7262 
 939   0.0000       5.852520       159.2552 
 940   0.0000       5.858236       159.4107 
 941   0.0000       5.874873       159.8634 
 942   0.0000       5.894597       160.4001 
 943   0.0000       5.901138       160.5781 
 944   0.0000       5.915745       160.9756 
 945   0.0000       5.932796       161.4396 
 946   0.0000       6.014446       163.6614 
 947   0.0000       6.041628       164.4011 
 948   0.0000       6.099404       165.9732 
 949   0.0000       6.123697       166.6343 
 950   0.0000       6.133771       166.9084 
 951   0.0000       6.166813       167.8075 
 952   0.0000       6.170063       167.8959 
 953   0.0000       6.183839       168.2708 
 954   0.0000       6.200733       168.7305 
 955   0.0000       6.216672       169.1642 
 956   0.0000       6.230531       169.5414 
 957   0.0000       6.241345       169.8356 
 958   0.0000       6.242860       169.8769 
 959   0.0000       6.281344       170.9241 
 960   0.0000       6.290823       171.1820 
 961   0.0000       6.321248       172.0099 
 962   0.0000       6.327468       172.1792 
 963   0.0000       6.348133       172.7415 
 964   0.0000       6.362862       173.1423 
 965   0.0000       6.379088       173.5838 
 966   0.0000       6.408788       174.3920 
 967   0.0000       6.427368       174.8976 
 968   0.0000       6.489200       176.5801 
 969   0.0000       6.537498       177.8944 
 970   0.0000       6.586423       179.2257 
 971   0.0000       6.638043       180.6303 
 972   0.0000       6.838237       186.0779 
 973   0.0000       6.849740       186.3909 
 974   0.0000       6.908110       187.9792 
 975   0.0000       6.918650       188.2660 
 976   0.0000       6.936583       188.7540 
 977   0.0000       6.951096       189.1489 
 978   0.0000       6.967334       189.5908 
 979   0.0000       6.992549       190.2769 
 980   0.0000       6.996440       190.3828 
 981   0.0000       7.025550       191.1749 
 982   0.0000       7.070166       192.3890 
 983   0.0000       7.093690       193.0291 
 984   0.0000       7.150178       194.5662 
 985   0.0000       7.188019       195.5959 
 986   0.0000       7.347648       199.9397 
 987   0.0000       7.435259       202.3237 
 988   0.0000       7.474591       203.3940 
 989   0.0000       7.562568       205.7879 
 990   0.0000       7.582316       206.3253 
 991   0.0000       7.603302       206.8964 
 992   0.0000       7.732262       210.4056 
 993   0.0000       7.766998       211.3508 
 994   0.0000       7.828707       213.0299 
 995   0.0000       7.862570       213.9514 
 996   0.0000       8.047058       218.9716 
 997   0.0000       8.155511       221.9227 
 998   0.0000       8.335946       226.8326 
 999   0.0000       9.439902       256.8728 
 1000   0.0000       9.453281       257.2369 
 1001   0.0000       9.470592       257.7079 
 1002   0.0000       9.492033       258.2913 
 1003   0.0000       9.493306       258.3260 
 1004   0.0000       9.518388       259.0085 
 1005   0.0000       9.745953       265.2009 
 1006   0.0000      10.106487       275.0115 
 1007   0.0000      10.134233       275.7665 
 1008   0.0000      10.150183       276.2005 
 1009   0.0000      10.221749       278.1479 
 1010   0.0000      10.231133       278.4033 
 1011   0.0000      10.261736       279.2360 
 1012   0.0000      10.401009       283.0258 
 1013   0.0000      10.428203       283.7658 
 1014   0.0000      10.552373       287.1447 
 1015   0.0000      16.225481       441.5178 
 1016   0.0000      17.737743       482.6685 
 1017   0.0000      18.327225       498.7092 
 1018   0.0000      18.608223       506.3555 
 1019   0.0000      18.765258       510.6286 
 1020   0.0000      19.026751       517.7442 
 1021   0.0000      19.117763       520.2208 
 1022   0.0000      20.029573       545.0324 
 1023   0.0000      20.386229       554.7375 
 1024   0.0000      21.711194       590.7916 

                 SPIN DOWN ORBITALS
  NO   OCC          E(Eh)            E(eV) 
   0   1.0000    -261.543812     -7116.9689 
   1   1.0000    -104.774729     -2851.0653 
   2   1.0000    -104.773043     -2851.0194 
   3   1.0000    -104.770138     -2850.9404 
   4   1.0000     -32.053284      -872.2142 
   5   1.0000     -27.531367      -749.1666 
   6   1.0000     -27.531157      -749.1609 
   7   1.0000     -27.530709      -749.1487 
   8   1.0000     -20.550711      -559.2133 
   9   1.0000     -11.408562      -310.4428 
  10   1.0000     -11.334467      -308.4265 
  11   1.0000     -11.293886      -307.3223 
  12   1.0000     -11.280871      -306.9681 
  13   1.0000     -11.280152      -306.9486 
  14   1.0000     -11.265699      -306.5552 
  15   1.0000     -11.235696      -305.7388 
  16   1.0000     -11.234489      -305.7060 
  17   1.0000     -10.501227      -285.7529 
  18   1.0000     -10.499642      -285.7098 
  19   1.0000     -10.496660      -285.6286 
  20   1.0000      -7.967174      -216.7978 
  21   1.0000      -7.966580      -216.7817 
  22   1.0000      -7.966506      -216.7796 
  23   1.0000      -7.965533      -216.7532 
  24   1.0000      -7.964971      -216.7379 
  25   1.0000      -7.964917      -216.7364 
  26   1.0000      -7.962642      -216.6745 
  27   1.0000      -7.961863      -216.6533 
  28   1.0000      -7.961806      -216.6517 
  29   1.0000      -4.128589      -112.3446 
  30   1.0000      -2.650501       -72.1238 
  31   1.0000      -2.650470       -72.1230 
  32   1.0000      -2.649374       -72.0931 
  33   1.0000      -1.337289       -36.3895 
  34   1.0000      -1.171838       -31.8873 
  35   1.0000      -1.090821       -29.6828 
  36   1.0000      -1.034334       -28.1457 
  37   1.0000      -1.032872       -28.1059 
  38   1.0000      -1.022640       -27.8275 
  39   1.0000      -1.018931       -27.7265 
  40   1.0000      -1.014942       -27.6180 
  41   1.0000      -0.963290       -26.2125 
  42   1.0000      -0.929061       -25.2810 
  43   1.0000      -0.804126       -21.8814 
  44   1.0000      -0.762531       -20.7495 
  45   1.0000      -0.700606       -19.0645 
  46   1.0000      -0.688502       -18.7351 
  47   1.0000      -0.672105       -18.2889 
  48   1.0000      -0.636688       -17.3252 
  49   1.0000      -0.633861       -17.2482 
  50   1.0000      -0.619075       -16.8459 
  51   1.0000      -0.603770       -16.4294 
  52   1.0000      -0.594485       -16.1768 
  53   1.0000      -0.593677       -16.1548 
  54   1.0000      -0.581553       -15.8249 
  55   1.0000      -0.574371       -15.6294 
  56   1.0000      -0.558353       -15.1935 
  57   1.0000      -0.540636       -14.7114 
  58   1.0000      -0.536363       -14.5952 
  59   1.0000      -0.525414       -14.2972 
  60   1.0000      -0.513647       -13.9771 
  61   1.0000      -0.501627       -13.6500 
  62   1.0000      -0.470867       -12.8130 
  63   1.0000      -0.466772       -12.7015 
  64   1.0000      -0.459546       -12.5049 
  65   1.0000      -0.445763       -12.1298 
  66   1.0000      -0.437571       -11.9069 
  67   1.0000      -0.433221       -11.7885 
  68   1.0000      -0.432267       -11.7626 
  69   1.0000      -0.412570       -11.2266 
  70   1.0000      -0.405906       -11.0453 
  71   1.0000      -0.399271       -10.8647 
  72   0.0000       0.006503         0.1770 
  73   0.0000       0.019135         0.5207 
  74   0.0000       0.021643         0.5889 
  75   0.0000       0.030496         0.8298 
  76   0.0000       0.035544         0.9672 
  77   0.0000       0.038089         1.0365 
  78   0.0000       0.041654         1.1335 
  79   0.0000       0.043073         1.1721 
  80   0.0000       0.044030         1.1981 
  81   0.0000       0.047048         1.2803 
  82   0.0000       0.056742         1.5440 
  83   0.0000       0.060180         1.6376 
  84   0.0000       0.060859         1.6561 
  85   0.0000       0.064543         1.7563 
  86   0.0000       0.066067         1.7978 
  87   0.0000       0.070391         1.9154 
  88   0.0000       0.072245         1.9659 
  89   0.0000       0.081762         2.2249 
  90   0.0000       0.086447         2.3523 
  91   0.0000       0.089484         2.4350 
  92   0.0000       0.090416         2.4604 
  93   0.0000       0.093066         2.5324 
  94   0.0000       0.100263         2.7283 
  95   0.0000       0.102031         2.7764 
  96   0.0000       0.110086         2.9956 
  97   0.0000       0.115946         3.1550 
  98   0.0000       0.118038         3.2120 
  99   0.0000       0.121207         3.2982 
 100   0.0000       0.123490         3.3603 
 101   0.0000       0.125850         3.4245 
 102   0.0000       0.126568         3.4441 
 103   0.0000       0.127312         3.4643 
 104   0.0000       0.129032         3.5111 
 105   0.0000       0.131599         3.5810 
 106   0.0000       0.131970         3.5911 
 107   0.0000       0.134755         3.6669 
 108   0.0000       0.136550         3.7157 
 109   0.0000       0.137659         3.7459 
 110   0.0000       0.138694         3.7741 
 111   0.0000       0.144877         3.9423 
 112   0.0000       0.148643         4.0448 
 113   0.0000       0.151769         4.1299 
 114   0.0000       0.152580         4.1519 
 115   0.0000       0.154896         4.2149 
 116   0.0000       0.157625         4.2892 
 117   0.0000       0.159877         4.3505 
 118   0.0000       0.163980         4.4621 
 119   0.0000       0.167837         4.5671 
 120   0.0000       0.171529         4.6675 
 121   0.0000       0.174308         4.7432 
 122   0.0000       0.177632         4.8336 
 123   0.0000       0.183203         4.9852 
 124   0.0000       0.187410         5.0997 
 125   0.0000       0.190172         5.1749 
 126   0.0000       0.195017         5.3067 
 127   0.0000       0.198131         5.3914 
 128   0.0000       0.198752         5.4083 
 129   0.0000       0.202781         5.5180 
 130   0.0000       0.203330         5.5329 
 131   0.0000       0.207372         5.6429 
 132   0.0000       0.210697         5.7333 
 133   0.0000       0.214277         5.8308 
 134   0.0000       0.218189         5.9372 
 135   0.0000       0.223345         6.0775 
 136   0.0000       0.226652         6.1675 
 137   0.0000       0.231306         6.2942 
 138   0.0000       0.233340         6.3495 
 139   0.0000       0.238787         6.4977 
 140   0.0000       0.241566         6.5733 
 141   0.0000       0.246111         6.6970 
 142   0.0000       0.248759         6.7691 
 143   0.0000       0.249570         6.7911 
 144   0.0000       0.253275         6.8920 
 145   0.0000       0.254032         6.9126 
 146   0.0000       0.258981         7.0472 
 147   0.0000       0.261117         7.1053 
 148   0.0000       0.264191         7.1890 
 149   0.0000       0.266492         7.2516 
 150   0.0000       0.273502         7.4424 
 151   0.0000       0.278741         7.5849 
 152   0.0000       0.281973         7.6729 
 153   0.0000       0.286079         7.7846 
 154   0.0000       0.288862         7.8603 
 155   0.0000       0.291020         7.9190 
 156   0.0000       0.296084         8.0568 
 157   0.0000       0.300753         8.1839 
 158   0.0000       0.302824         8.2403 
 159   0.0000       0.308686         8.3998 
 160   0.0000       0.311981         8.4894 
 161   0.0000       0.316035         8.5998 
 162   0.0000       0.317122         8.6293 
 163   0.0000       0.325702         8.8628 
 164   0.0000       0.328621         8.9422 
 165   0.0000       0.333039         9.0625 
 166   0.0000       0.338480         9.2105 
 167   0.0000       0.344608         9.3772 
 168   0.0000       0.348114         9.4727 
 169   0.0000       0.350104         9.5268 
 170   0.0000       0.355930         9.6853 
 171   0.0000       0.357662         9.7325 
 172   0.0000       0.361093         9.8258 
 173   0.0000       0.364437         9.9168 
 174   0.0000       0.366103         9.9622 
 175   0.0000       0.371002        10.0955 
 176   0.0000       0.372926        10.1478 
 177   0.0000       0.374990        10.2040 
 178   0.0000       0.379344        10.3225 
 179   0.0000       0.382092        10.3973 
 180   0.0000       0.385571        10.4919 
 181   0.0000       0.389357        10.5950 
 182   0.0000       0.394422        10.7328 
 183   0.0000       0.398855        10.8534 
 184   0.0000       0.399843        10.8803 
 185   0.0000       0.402749        10.9594 
 186   0.0000       0.405391        11.0312 
 187   0.0000       0.409395        11.1402 
 188   0.0000       0.410236        11.1631 
 189   0.0000       0.411334        11.1930 
 190   0.0000       0.414034        11.2664 
 191   0.0000       0.422827        11.5057 
 192   0.0000       0.426916        11.6170 
 193   0.0000       0.429456        11.6861 
 194   0.0000       0.431530        11.7425 
 195   0.0000       0.435303        11.8452 
 196   0.0000       0.437845        11.9144 
 197   0.0000       0.440096        11.9756 
 198   0.0000       0.447672        12.1818 
 199   0.0000       0.451392        12.2830 
 200   0.0000       0.458434        12.4746 
 201   0.0000       0.460685        12.5359 
 202   0.0000       0.465078        12.6554 
 203   0.0000       0.467796        12.7294 
 204   0.0000       0.468177        12.7397 
 205   0.0000       0.470277        12.7969 
 206   0.0000       0.472882        12.8678 
 207   0.0000       0.478226        13.0132 
 208   0.0000       0.478988        13.0339 
 209   0.0000       0.479956        13.0603 
 210   0.0000       0.486185        13.2298 
 211   0.0000       0.488968        13.3055 
 212   0.0000       0.490441        13.3456 
 213   0.0000       0.493484        13.4284 
 214   0.0000       0.494158        13.4467 
 215   0.0000       0.499831        13.6011 
 216   0.0000       0.502237        13.6666 
 217   0.0000       0.506791        13.7905 
 218   0.0000       0.510855        13.9011 
 219   0.0000       0.512027        13.9330 
 220   0.0000       0.516138        14.0448 
 221   0.0000       0.523288        14.2394 
 222   0.0000       0.527450        14.3526 
 223   0.0000       0.530317        14.4307 
 224   0.0000       0.530696        14.4410 
 225   0.0000       0.534748        14.5512 
 226   0.0000       0.539427        14.6786 
 227   0.0000       0.540764        14.7149 
 228   0.0000       0.546491        14.8708 
 229   0.0000       0.546941        14.8830 
 230   0.0000       0.547948        14.9104 
 231   0.0000       0.556644        15.1470 
 232   0.0000       0.562240        15.2993 
 233   0.0000       0.566186        15.4067 
 234   0.0000       0.570318        15.5191 
 235   0.0000       0.573012        15.5924 
 236   0.0000       0.578565        15.7436 
 237   0.0000       0.580043        15.7838 
 238   0.0000       0.580987        15.8095 
 239   0.0000       0.584609        15.9080 
 240   0.0000       0.587581        15.9889 
 241   0.0000       0.592861        16.1326 
 242   0.0000       0.594648        16.1812 
 243   0.0000       0.598069        16.2743 
 244   0.0000       0.601454        16.3664 
 245   0.0000       0.604620        16.4525 
 246   0.0000       0.608711        16.5639 
 247   0.0000       0.611457        16.6386 
 248   0.0000       0.614506        16.7215 
 249   0.0000       0.620990        16.8980 
 250   0.0000       0.624104        16.9827 
 251   0.0000       0.629203        17.1215 
 252   0.0000       0.632774        17.2187 
 253   0.0000       0.638505        17.3746 
 254   0.0000       0.639860        17.4115 
 255   0.0000       0.642716        17.4892 
 256   0.0000       0.649823        17.6826 
 257   0.0000       0.651946        17.7404 
 258   0.0000       0.658870        17.9288 
 259   0.0000       0.664080        18.0705 
 260   0.0000       0.666096        18.1254 
 261   0.0000       0.668802        18.1990 
 262   0.0000       0.669530        18.2188 
 263   0.0000       0.678635        18.4666 
 264   0.0000       0.685111        18.6428 
 265   0.0000       0.688914        18.7463 
 266   0.0000       0.692388        18.8408 
 267   0.0000       0.695313        18.9204 
 268   0.0000       0.695902        18.9364 
 269   0.0000       0.701627        19.0923 
 270   0.0000       0.706793        19.2328 
 271   0.0000       0.713360        19.4115 
 272   0.0000       0.715866        19.4797 
 273   0.0000       0.722711        19.6660 
 274   0.0000       0.726211        19.7612 
 275   0.0000       0.731035        19.8925 
 276   0.0000       0.734992        20.0002 
 277   0.0000       0.739809        20.1312 
 278   0.0000       0.745469        20.2852 
 279   0.0000       0.753903        20.5148 
 280   0.0000       0.755268        20.5519 
 281   0.0000       0.762818        20.7573 
 282   0.0000       0.769344        20.9349 
 283   0.0000       0.776001        21.1161 
[...]
  | sigma^2 in % of trace(Dij) retained ...   8.41e+00
  | sigma^2 in % of trace(Dip) retained ...   1.77e+01
  | sigma^2 in % of trace(Dpq) retained ...   1.37e-01
  | Av. % of trace(Di) retained         ...  99.998526854968
  | Av. % of trace(Dp) retained         ...  99.999997451788
  | sigma^2 in % of trace(Di) retained  ...   7.63e-07
  | sigma^2 in % of trace(Dp) retained  ...   4.40e-12
 Distributions of % trace(Dij) recovered:
  |       >= 99.9  ...   105 ( 20.2 % of all IJ-pairs)
  |   [80.0, 90.0) ...    32 (  6.2 % of all IJ-pairs)
  |   [90.0, 99.0) ...   290 ( 55.9 % of all IJ-pairs)
  |   [99.0, 99.9) ...    92 ( 17.7 % of all IJ-pairs)
 Distributions of % trace(Dip) recovered:
  |   [80.0, 90.0) ...    12 ( 10.2 % of all IP-pairs)
  |   [90.0, 99.0) ...    63 ( 53.4 % of all IP-pairs)
  |   [99.0, 99.9) ...    43 ( 36.4 % of all IP-pairs)
 Distributions of % trace(Dpq) recovered:
  |       >= 99.9  ...     5 ( 33.3 % of all PQ-pairs)
  |   [99.0, 99.9) ...    10 ( 66.7 % of all PQ-pairs)
 Distributions of % trace(Di) recovered :
  |       >= 99.9  ...    43 (100.0 % of all I-pairs )
 Distributions of % trace(Dp) recovered :
  |       >= 99.9  ...     5 (100.0 % of all P-pairs )

                       ===========================
                       1138 OF 1744 PAIRS ARE KEPT
                       ===========================

 Initial PAO correlation energy (all pairs)    ...  -2.6896357651 Eh
 Energy constituents in PAO basis (Eh):
  | Vijab(+0) ...  -2.2588524270
  | Viab (-1) ...  -0.1760384707
  | Vab  (-2) ...  -0.0573620041
  | Va   (-1) ...  -0.0000424770
  | Vija (+1) ...  -0.0733267622
  | Vij  (+2) ...  -0.0155107520
  | Via  (+0) ...  -0.1083425654
  | Vi   (+1) ...  -0.0001603067
 Initial PNO correlation energy                ...  -2.6559038398 Eh
 Energy constituents in PNO basis (Eh):
  | Vijab(+0) ...  -2.2410090010 (err=  0.0178434260)
  | Viab (-1) ...  -0.1617300940 (err=  0.0143083767)
  | Vab  (-2) ...  -0.0568940215 (err=  0.0004679826)
  | Va   (-1) ...  -0.0000242248 (err=  0.0000182522)
  | Vija (+1) ...  -0.0724072678 (err=  0.0009194944)
  | Vij  (+2) ...  -0.0154661514 (err=  0.0000446006)
  | Via  (+0) ...  -0.1082133300 (err=  0.0001292354)
  | Vi   (+1) ...  -0.0001597493 (err=  0.0000005574)
 Sum of total truncation errors ...   0.0337319253 Eh
  | Pair screening ...   0.0108527586 Eh
  | PNO truncation ...   0.0228791667 Eh

 UMP2 correlation energy (PAO) ...  -2.6847154265
  | alpha-alpha ...  -0.3849368680 (NP_aa=  947)
  | alpha-beta  ...  -1.9943761777 (NP_ab= 1719)
  | beta -beta  ...  -0.3054023808 (NP_bb=  739)
 UMP2 correlation energy (PNO) ...  -2.6506317065
  | alpha-alpha ...  -0.3730294814 (err=  0.0119073866, NP_aa=  604)
  | alpha-beta  ...  -1.9760368792 (err=  0.0183392985, NP_ab= 1113)
  | beta -beta  ...  -0.3015653460 (err=  0.0038370348, NP_bb=  476)
 Sum of total UMP2 truncation errors ...   0.0340837200 Eh
  | Pair screening ...   0.0108512456 Eh
  | PNO truncation ...   0.0232324744 Eh
 Timing for NEV-PNO construction (sec.)
  | Intermediate construction  ..           50.831
  | Amplitude construction     ..           70.500
  | Total time                 ..          121.331
 Making pair pair interaction lists ...      ok
 Total size for 2-ext PNO integrals ...     10.9 MB
Checking the number of SOMO/SOMO doubles PNOs ... 
 #Truncate: (72, 72)[171] -> [84] .. 
 #Truncate: (73, 73)[169] -> [84] .. 
 #Truncate: (74, 74)[170] -> [84] .. 
 #Truncate: (75, 75)[173] -> [84] .. 
 #Truncate: (76, 76)[171] -> [84] .. 

--------------------------------
LOCAL RI TRANSFORMATION (VABPAO)
--------------------------------

Number of PAOs:    1030
Basis functions:   1025 (343 shells)
Aux. functions:    2424 (644 shells)

Processing maps (0.0 sec)
Average map sizes:
   Aux shells -> PAOs           1030.0
   PAOs       -> AO shells       343.0

Calculating integrals (188.0 sec, 37370.165 MB)
Finished
-----------------------------
LOCAL RI TRANSFORMATION (IJV)
-----------------------------

Orbital window:      29 to 76
Basis functions:   1025 (343 shells)
Aux. functions:    2424 (644 shells)

Processing maps (0.0 sec)
Average map sizes:
   Aux shells -> MOs(i)           46.5
   Aux shells -> MOs(j)           48.0
   MOs        -> AO shells       340.6

Calculating integrals (22.2 sec, 41.378 MB)
Sorting integrals (0.3 sec, 41.351 MB)
Total time for the integral transformation: 22.6 sec


-------------------------------------
Pair Pair Term precalculation with     
RI-(ij|mn) and (im|jn) transformation  
ON THE FLY                             
-------------------------------------

   IBatch   1 (of   2)              ... done ( 1076.519 sec)
   IBatch   2 (of   2)              ... done ( 1150.469 sec)
Total EXT                           ...        2226.988 sec

---------------------
RI-PNO TRANSFORMATION
---------------------

Total Number of PNOs                   ... 34846
Total Number of IJ-PNOs                ... 30662
Total Number of IP-PNOs                ...  3236
Total Number of PQ-PNOs                ...   948
Total Number of IJ-pairs               ...   995
Total Number of PI-pairs               ...   118
Total Number of PQ-pairs               ...    25
Average number of PNOs per pair        ...    30
Maximal number of PNOs per pair        ...    84
>> Statistics for ij-pairs..
   #pairs with  1 -  5 PNOs   :    0
   #pairs with  6 - 10 PNOs   :    0
   #pairs with 11 - 15 PNOs   :   72
   #pairs with 16 - 20 PNOs   :  226
   #pairs with 21 - 25 PNOs   :  206
   #pairs with 26 - 30 PNOs   :  120
   #pairs with 31 - 35 PNOs   :   74
   #pairs with 36 - 40 PNOs   :   70
   #pairs with 41 - 45 PNOs   :   46
   #pairs with 46 - 50 PNOs   :   13
   #pairs with 51 - 55 PNOs   :   37
   #pairs with 56 - 60 PNOs   :   53
   #pairs with 61 - 65 PNOs   :   76
   #pairs with 66 - 70 PNOs   :    2
>> Statistics for ip-pairs..
   #pairs with  1 -  5 PNOs   :    0
   #pairs with  6 - 10 PNOs   :    2
   #pairs with 11 - 15 PNOs   :   16
   #pairs with 16 - 20 PNOs   :    2
   #pairs with 21 - 25 PNOs   :   26
   #pairs with 26 - 30 PNOs   :   14
   #pairs with 31 - 35 PNOs   :   44
   #pairs with 36 - 40 PNOs   :   14
   #pairs with 41 - 45 PNOs   :    0
   #pairs with 46 - 50 PNOs   :    0
>> Statistics for pq-pairs..
   #pairs with  1 -  5 PNOs   :    0
   #pairs with  6 - 10 PNOs   :    0
   #pairs with 11 - 15 PNOs   :    0
   #pairs with 16 - 20 PNOs   :    0
   #pairs with 21 - 25 PNOs   :    8
   #pairs with 26 - 30 PNOs   :   12
   #pairs with 31 - 35 PNOs   :    0
   #pairs with 36 - 40 PNOs   :    0
   #pairs with 41 - 45 PNOs   :    0
   #pairs with 46 - 50 PNOs   :    0
   #pairs with 81 - 85 PNOs   :    5

Generation of (ij|ab)[P] integrals            ... on
Generation of (ia|bc)[P],(ja|bc)[P] integrals ... on
Storage of 3 and 4 external integrals         ... on
Generation of ALL (ka|bc)[P] integrals        ... on
Keep RI integrals in memory                   ... off

Ibatch:  1 (of  1)
Starting 2-4 index PNO integral generation ... done

Timings:
Total PNO integral transformation time     ...       2039.471 sec
Size of the 3-external file                ...       279 MB
Size of the 4-external file                ...      1861 MB
Size of the IKJL file                      ...        19 MB
Size of the all 3-external file            ...      6709 MB
Size of the 1-external file                ...        22 MB

Size of the PAO/PNO coefficient matrices   ...     227.6 MB

Making pair/pair overlap matrices          ... done (  325.205 sec)
Size of the pair overlap file              ...    2471.0 MB
Total # unrestricted pairs ...       2193
  # of alpha-alpha pairs   ...        604
  # of alpha-beta pairs    ...       1113
  # of beta-beta pairs     ...        476
Constructing the guess amplitudes          ... done (    0.603 sec)

-------------------------
FINAL STARTUP INFORMATION
-------------------------

E(0)                                       ...  -3028.440661955
E(SL-UMP2 in NEV-PNO space)                ...     -2.685627979
Initial E(tot)                             ...  -3031.126289934
<T|T>                                      ...      0.533546377
Number of unrestricted pairs included      ... 2193
Total number of pairs                      ... 4095
----------------------------------------------------------
                     OPEN-SHELL COUPLED CLUSTER ITERATIONS
----------------------------------------------------------

Number of PNO amplitudes to be optimized        ...          2093790
Number of canonical amplitudes for strong pairs ...       1980744355
Untruncated number of canonical amplitudes      ...       3698645738

Iter       E(tot)           E(Corr)          Delta-E          Residual     Time
  0  -3031.133439055     -2.657780828      0.027847151      0.024586655 1768.94
                           *** Turning on DIIS ***
  1  -3031.248428856     -2.772770629     -0.114989801      0.013708641 1770.71
  2  -3031.313212615     -2.837554388     -0.064783759      0.009014699 1714.44
  3  -3031.334476987     -2.858818760     -0.021264372      0.004519201 1990.67
  4  -3031.341728090     -2.866069863     -0.007251103      0.002838718 2048.13
  5  -3031.345392304     -2.869734077     -0.003664215      0.002015102 2086.03
  6  -3031.346730268     -2.871072041     -0.001337964      0.001052016 2072.37
  7  -3031.347521976     -2.871863749     -0.000791708      0.000482609 2094.35
  8  -3031.347702674     -2.872044447     -0.000180698      0.000238745 2081.75
  9  -3031.347743977     -2.872085750     -0.000041303      0.000130171 2092.22
 10  -3031.347743148     -2.872084921      0.000000829      0.000109551 2085.45
 11  -3031.347755383     -2.872097156     -0.000012235      0.000069779 2085.17
 12  -3031.347761915     -2.872103688     -0.000006532      0.000040247 2083.56
 13  -3031.347765259     -2.872107032     -0.000003344      0.000017516 2083.19
 14  -3031.347765586     -2.872107359     -0.000000327      0.000010667 2106.55
 15  -3031.347764591     -2.872106364      0.000000995      0.000004241 2057.14
               --- The CCSD iterations have converged ---

E(0)                                       ...  -3028.440661955
E(CORR)(strong-pairs)                      ...     -2.872106364
E(CORR)(weak-pairs)                        ...     -0.034996272
E(CORR)(corrected)                         ...     -2.907102636
E(TOT)                                     ...  -3031.347764591
Singles norm <S|S>**1/2                    ...      0.193050472 ( 0.066500218, 0.126550254)  
T1 diagnostic                              ...      0.020237188                              
<S**2>(linearized)                         ...      8.7507597 (ideal value:      8.7500000)

----------------------
LARGEST PNO AMPLITUDES
----------------------
  51b-> 75b  -1b-> -1b       0.059018
  43b-> 77b  -1b-> -1b       0.058616
  43a-> 77a  -1a-> -1a       0.057710
  44a-> 77a  44b-> 77b       0.050757
  49b-> 72b  -1b-> -1b       0.048309
  52b-> 72b  -1b-> -1b       0.044782
  43a-> 77a  43b-> 77b       0.044699
  49b-> 73b  -1b-> -1b       0.044562
  52b-> 75b  -1b-> -1b       0.044219
  53a-> 77a  53b-> 77b       0.044067
  66a-> 77a  66b-> 77b       0.043716
  59a-> 77a  59b-> 77b       0.043200
  63a-> 77a  63b-> 77b       0.043177
  67a-> 77a  67b-> 77b       0.043157
  39b-> 74b  -1b-> -1b       0.043084
  69a-> 77a  69b-> 77b       0.042959

Total # unrestricted pairs ...       1212
  # of alpha-alpha pairs   ...        343
  # of alpha-beta pairs    ...        606
  # of beta-beta pairs     ...        263

-------------------------------------------
DLPNO BASED TRIPLES CORRECTION
-------------------------------------------

Singles multiplier          ...  1.000000
Fragment selection                          .... not used
TCutTNO                     ... 1.000e-09
TCutMP2Pairs                ... 1.000e-05
TCutDOStrong                ... 2.000e-02
TCutMKNStrong               ... 1.000e-02
TCutDOWeak                  ... 4.000e-02
TCutMKNWeak                 ... 1.000e-01
NTCutTNO                    ... 1

Number of Triples that are to be computed         ...     36346

 . . . . . . . . .
10% done  
20% done  
30% done  
40% done  
50% done  
60% done  
70% done  
80% done  
90% done  
          Batch   1   done (  17652.506 sec)

Triples-Correction TCutTNO=   1.000e-09 (NWeakPairs = 0  1  2  3)  -0.116587379626   -0.001784450372    0.000000000000    0.000000000000
Triples-Correction  -0.118371829998

Triples timings:
Total time                      ... 18388.330 sec

Triples List generation         ...     0.000 sec
TNO generation                  ...   735.511 sec
Pair density generation         ...     0.096 sec
Look up tables                  ...     0.120 sec
Generating 3-index integrals    ... 11405.480 sec
Make 4-ind.int. from 3-ind.int  ...     3.891 sec
Projecting amplitudes (D + S)   ...  6006.717 sec
Sorting integrals for spin cases...    50.179 sec
Calculate W0/W1                 ...   150.816 sec
Energy contr. (sum over a,b,c)  ...    35.326 sec

Everything after 3-index        ...  6387.136 sec

Energy contribution AAA         ...    23.252 sec
Energy contribution AAB         ...   105.957 sec
Energy contribution ABB         ...    94.822 sec
Energy contribution BBB         ...    12.329 sec
prep                ...     3.200 sec
makeTTNO            ...  5946.899 sec
copyij              ...     0.127 sec
copyil              ...     4.166 sec
transposeij         ...     0.077 sec
newMatInDoubleProj  ...    57.029 sec
BlasInDoubleProj    ...  3189.745 sec
ProjSingles         ...    49.575 sec
ProjDoubles         ...  5957.141 sec
overall Doubles for projection      ... 3370824
used Doubles for projection         ... 3370824


Number of Triples   (0, 1, 2, 3 weak pairs; overall):  17560   12593       0       0  ( 30153)
Number of Atoms     (0, 1, 2, 3 weak pairs; overall):   20.5    14.5     0.0     0.0  (    29)
Number of PAOs      (0, 1, 2, 3 weak pairs; overall):  789.5   589.7     0.0     0.0  (  1025)
Number of AuxFcns   (0, 1, 2, 3 weak pairs; overall): 1002.8   582.6     0.0     0.0  (  2424)
Number of TNOs (0, 1, 2, 3 weak pairs         ):   77.9    55.1     0.0     0.0
Aver. Number of NTNO, Atoms, PAOs, AuxFcns / Triples:  30153    68.4    18.0   706.1   827.3

Triples Correction (T)                     ...     -0.118371830
    alpha-alpha-alpha ... -0.003867995 (  3.3%)
    alpha-alpha-beta  ... -0.055563745 ( 46.9%)
    alpha-beta -beta  ... -0.054842458 ( 46.3%)
    beta -beta -beta  ... -0.004097633 (  3.5%)
Final correlation energy                   ...     -3.025474466
E(CCSD)                                    ...  -3031.347764591
E(CCSD(T))                                 ...  -3031.466136421

----------------------------
STATISTICS FOR PAIR-ENERGIES
----------------------------
Minimum, maximum and average ratios of UMP and CCSD pair-energies ... 0.43, 1.43, 1.02


------------------------------------------------------------------------------- 
                                     TIMINGS                                   
------------------------------------------------------------------------------- 


Total execution time                   ...    59701.138 sec

Localization of occupied MO's          ...        9.843 sec (  0.0%)
Fock Matrix Formation                  ...     1429.291 sec (  2.4%)
Differential overlap integrals         ...        1.394 sec (  0.0%)
Organizing maps                        ...        1.701 sec (  0.0%)
RI 3-index integral generations        ...      272.785 sec (  0.5%)
RI-PNO integral transformation         ...     4740.363 sec (  7.9%)
Initial Guess                          ...     1995.139 sec (  3.3%)
DIIS Solver                            ...       18.215 sec (  0.0%)
State Vector Update                    ...        0.829 sec (  0.0%)
Sigma-vector construction              ...    32220.678 sec ( 54.0%)
  <0|H|D>                              ...        0.033 sec (  0.0% of sigma)
  <D|H|D>(0-ext)                       ...     6043.857 sec ( 18.8% of sigma)
  <D|H|D>(2-ext Fock)                  ...        1.684 sec (  0.0% of sigma)
  <D|H|D>(2-ext)                       ...     4816.545 sec ( 14.9% of sigma)
  <D|H|D>(4-ext)                       ...      151.463 sec (  0.5% of sigma)
  <D|H|D>(4-ext-corr)                  ...      954.625 sec (  3.0% of sigma)
  CCSD doubles correction              ...      587.202 sec (  1.8% of sigma)
  <S|H|S>                              ...      677.016 sec (  2.1% of sigma)
  <S|H|D>(1-ext)                       ...      296.995 sec (  0.9% of sigma)
  <D|H|S>(1-ext)                       ...        1.032 sec (  0.0% of sigma)
  <S|H|D>(3-ext)                       ...       23.276 sec (  0.1% of sigma)
  CCSD singles correction              ...        0.005 sec (  0.0% of sigma)
  Fock-dressing                        ...     9556.727 sec ( 29.7% of sigma)
  Singles amplitudes                   ...      124.099 sec (  0.4% of sigma)
  (ik|jl)-dressing                     ...     6960.539 sec ( 21.6% of sigma)
  (ij|ab),(ia|jb)-dressing             ...     1768.269 sec (  5.5% of sigma)
  Pair energies                        ...        0.142 sec (  0.0% of sigma)
Total Time for computing (T)           ...    19390.381 sec ( 32.5% of ALL)


-------------------------   --------------------
FINAL SINGLE POINT ENERGY     -3031.466136421077
-------------------------   --------------------


                            ***************************************
                            *     ORCA property calculations      *
                            ***************************************

                                    ---------------------
                                    Active property flags
                                    ---------------------
   (+) Dipole Moment


------------------------------------------------------------------------------
                       ORCA ELECTRIC PROPERTIES CALCULATION
------------------------------------------------------------------------------

Dipole Moment Calculation                       ... on
Quadrupole Moment Calculation                   ... off
Polarizability Calculation                      ... off
GBWName                                         ... simple-grid-165-210-b3lyp_d3bj-631gd-gas-singlepoint-DLPNO_CCSD_T1-NormalPNO-augtz-gas.gbw
Electron density file                           ... simple-grid-165-210-b3lyp_d3bj-631gd-gas-singlepoint-DLPNO_CCSD_T1-NormalPNO-augtz-gas.scfp.tmp
The origin for moment calculation is the CENTER OF MASS  = ( 0.302765,  0.020742  0.012474)

-------------
DIPOLE MOMENT
-------------
                                X             Y             Z
Electronic contribution:     40.34943       3.71753       1.52962
Nuclear contribution   :    -45.11192      -3.09046      -1.85858
                        -----------------------------------------
Total Dipole Moment    :     -4.76249       0.62707      -0.32896
                        -----------------------------------------
Magnitude (a.u.)       :      4.81485
Magnitude (Debye)      :     12.23836



--------------------
Rotational spectrum 
--------------------
 
Rotational constants in cm-1:     0.019034     0.012000     0.010688 
Rotational constants in MHz :   570.628582   359.750254   320.415233 

 Dipole components along the rotational axes: 
x,y,z [a.u.] :     4.766913     0.596874    -0.320969 
x,y,z [Debye]:    12.116529     1.517134    -0.815838 

 

Timings for individual modules:

Sum of individual times         ...    76422.156 sec (=1273.703 min)
GTO integral calculation        ...       11.917 sec (=   0.199 min)   0.0 %
SCF iterations                  ...    16692.150 sec (= 278.203 min)  21.8 %
MDCI module                     ...    59718.089 sec (= 995.301 min)  78.1 %
                             ****ORCA TERMINATED NORMALLY****
TOTAL RUN TIME: 0 days 21 hours 13 minutes 45 seconds 10 msec
