
                                 *****************
                                 * O   R   C   A *
                                 *****************

           --- An Ab Initio, DFT and Semiempirical electronic structure package ---

                  #######################################################
                  #                        -***-                        #
                  #          Department of theory and spectroscopy      #
                  #               Directorship: Frank Neese             #
                  #        Max Planck Institute fuer Kohlenforschung    #
                  #                Kaiser Wilhelm Platz 1               #
                  #                 D-45470 Muelheim/Ruhr               #
                  #                      Germany                        #
                  #                                                     #
                  #                  All rights reserved                #
                  #                        -***-                        #
                  #######################################################


                         Program Version 4.1.2  - RELEASE  -


 With contributions from (in alphabetic order):
   Daniel Aravena         : Magnetic Properties
   Michael Atanasov       : Ab Initio Ligand Field Theory
   Alexander A. Auer      : GIAO ZORA
   Ute Becker             : Parallelization
   Giovanni Bistoni       : ED, Open-shell LED
   Martin Brehm           : Molecular dynamics
   Dmytro Bykov           : SCF Hessian
   Vijay G. Chilkuri      : MRCI spin determinant printing
   Dipayan Datta          : RHF DLPNO-CCSD density
   Achintya Kumar Dutta   : EOM-CC, STEOM-CC
   Dmitry Ganyushin       : Spin-Orbit,Spin-Spin,Magnetic field MRCI
   Miquel Garcia          : C-PCM Hessian
   Yang Guo               : DLPNO-NEVPT2, CIM, IAO-localization
   Andreas Hansen         : Spin unrestricted coupled pair/coupled cluster methods
   Benjamin Helmich-Paris : CASSCF linear response (MC-RPA)
   Lee Huntington         : MR-EOM, pCC
   Robert Izsak           : Overlap fitted RIJCOSX, COSX-SCS-MP3, EOM
   Christian Kollmar      : KDIIS, OOCD, Brueckner-CCSD(T), CCSD density
   Simone Kossmann        : Meta GGA functionals, TD-DFT gradient, OOMP2, MP2 Hessian
   Martin Krupicka        : AUTO-CI
   Lucas Lang             : DCDCAS
   Dagmar Lenk            : GEPOL surface, SMD
   Dimitrios Liakos       : Extrapolation schemes; parallel MDCI
   Dimitrios Manganas     : ROCIS; embedding schemes
   Dimitrios Pantazis     : SARC Basis sets
   Taras Petrenko         : DFT Hessian,TD-DFT gradient, ASA, ECA, R-Raman, ABS, FL, XAS/XES, NRVS
   Peter Pinski           : DLPNO-MP2, DLPNO-MP2 Gradient
   Christoph Reimann      : Effective Core Potentials
   Marius Retegan         : Local ZFS, SOC
   Christoph Riplinger    : Optimizer, TS searches, QM/MM, DLPNO-CCSD(T), (RO)-DLPNO pert. Triples
   Tobias Risthaus        : Range-separated hybrids, TD-DFT gradient, RPA, STAB
   Michael Roemelt        : Restricted open shell CIS
   Masaaki Saitow         : Open-shell DLPNO
   Barbara Sandhoefer     : DKH picture change effects
   Avijit Sen             : IP-ROCIS
   Kantharuban Sivalingam : CASSCF convergence, NEVPT2, FIC-MRCI
   Bernardo de Souza      : ESD, SOC TD-DFT
   Georgi Stoychev        : AutoAux, RI-MP2 NMR
   Willem Van den Heuvel  : Paramagnetic NMR
   Boris Wezisla          : Elementary symmetry handling
   Frank Wennmohs         : Technical directorship


 We gratefully acknowledge several colleagues who have allowed us to
 interface, adapt or use parts of their codes:
   Stefan Grimme, W. Hujo, H. Kruse,             : VdW corrections, initial TS optimization,
                  C. Bannwarth                     DFT functionals, gCP, sTDA/sTD-DF
   Ed Valeev                                     : LibInt (2-el integral package), F12 methods
   Garnet Chan, S. Sharma, J. Yang, R. Olivares  : DMRG
   Ulf Ekstrom                                   : XCFun DFT Library
   Mihaly Kallay                                 : mrcc  (arbitrary order and MRCC methods)
   Andreas Klamt, Michael Diedenhofen            : otool_cosmo (COSMO solvation model)
   Jiri Pittner, Ondrej Demel                    : Mk-CCSD
   Frank Weinhold                                : gennbo (NPA and NBO analysis)
   Christopher J. Cramer and Donald G. Truhlar   : smd solvation model
   Lars Goerigk                                  : TD-DFT with DH, B97 family of functionals
   V. Asgeirsson, H. Jonsson                     : NEB implementation
   FAccTs GmbH                                   : IRC, NEB, NEB-TS, Multilevel


 Your calculation uses the libint2 library for the computation of 2-el integrals
 For citations please refer to: http://libint.valeyev.net

 This ORCA versions uses:
   CBLAS   interface :  Fast vector & matrix operations
   LAPACKE interface :  Fast linear algebra routines
   SCALAPACK package :  Parallel linear algebra routines


----- Orbital basis set information -----
Your calculation utilizes the basis: aug-cc-pVTZ 
    H, B-Ne : Obtained from the ccRepo (grant-hill.group.shef.ac.uk/ccrepo) Feb. 2017
              R. A. Kendall, T. H. Dunning, Jr., R. J. Harrison, J. Chem. Phys. 96, 6796 (1992)
         He : Obtained from the ccRepo (grant-hill.group.shef.ac.uk/ccrepo) Feb. 2017
              D. E. Woon, T. H. Dunning, Jr., J. Chem. Phys. 100, 2975 (1994)
  Li-Be, Na : Obtained from the ccRepo (grant-hill.group.shef.ac.uk/ccrepo) Feb. 2017
              B. P. Prascher, D. E. Woon, K. A. Peterson, T. H. Dunning, Jr., A. K. Wilson, Theor. Chem. Acc. 128, 69 (2011)
         Mg : Obtained from the Peterson Research Group Website (tyr0.chem.wsu.edu/~kipeters) Feb. 2017
              B. P. Prascher, D. E. Woon, K. A. Peterson, T. H. Dunning, Jr., A. K. Wilson, Theor. Chem. Acc. 128, 69 (2011)
      Al-Ar : Obtained from the ccRepo (grant-hill.group.shef.ac.uk/ccrepo) Feb. 2017
              D. E. Woon, T. H. Dunning, Jr., J. Chem. Phys. 98, 1358 (1993)
      Sc-Zn : Obtained from the ccRepo (grant-hill.group.shef.ac.uk/ccrepo) Feb. 2017
              N. B. Balabanov, K. A. Peterson, J. Chem. Phys. 123, 064107 (2005)
              N. B. Balabanov, K. A. Peterson, J. Chem. Phys. 125, 074110 (2006)
      Ga-Kr : Obtained from the ccRepo (grant-hill.group.shef.ac.uk/ccrepo) Feb. 2017
              A. K. Wilson, D. E. Woon, K. A. Peterson, T. H. Dunning, Jr., J. Chem. Phys. 110, 7667 (1999)
     Ag, Au : Obtained from the Peterson Research Group Website (tyr0.chem.wsu.edu/~kipeters) Feb. 2017
              K. A. Peterson, C. Puzzarini, Theor. Chem. Acc. 114, 283 (2005)

----- AuxJ basis set information -----
Your calculation utilizes the AutoAux generation procedure.
  G. L. Stoychev, A. A. Auer, F. Neese, J. Chem. Theory Comput. 13, 554 (2017)

----- AuxC basis set information -----
Your calculation utilizes the auxiliary basis: aug-cc-pVTZ/C 
  H-He, B-F, Al-Ar, Ga-Kr : Obtained from the EMSL Basis Set Exchange (bse.pnl.gov) Feb. 2017
                            F. Weigend, A. Kohn, C. Hattig, J. Chem. Phys. 116, 3175 (2002)
                   Be, Mg : Obtained from the TURBOMOLE 7.0 basis set library
                            C. Haettig, Phys. Chem. Chem. Phys. 7, 59 (2005)
                       Ne : Obtained from the EMSL Basis Set Exchange (bse.pnl.gov) Feb. 2017
                            C. Haettig, Phys. Chem. Chem. Phys. 7, 59 (2005)
                            F. Weigend, A. Kohn, C. Hattig, J. Chem. Phys. 116, 3175 (2002)
                    Sc-Zn : Obtained from the EMSL Basis Set Exchange (bse.pnl.gov) Feb. 2017
                            J. G. Hill, J. A. Platts, J. Chem. Phys. 128, 044104 (2008)

----- AuxJK basis set information -----
Your calculation utilizes the AutoAux generation procedure.
  G. L. Stoychev, A. A. Auer, F. Neese, J. Chem. Theory Comput. 13, 554 (2017)

================================================================================
                                        WARNINGS
                       Please study these warnings very carefully!
================================================================================


WARNING: your system is open-shell and RHF/RKS was chosen
  ===> : WILL SWITCH to UHF/UKS


WARNING: MDCI localization with Augmented Hessian Foster-Boys
  ===> : Switching off randomization!

WARNING: Post HF methods need fully converged wavefunctions
  ===> : Setting SCFConvForced true
         You can overwrite this default with %scf ConvForced false 


INFO   : the flag for use of LIBINT has been found!

================================================================================
                                       INPUT FILE
================================================================================
NAME = simple-grid-205-295-b3lyp_d3bj-631gd-gas-singlepoint-DLPNO_CCSD_T1-NormalPNO-augtz-gas.inp
|  1> ! aug-cc-pVTZ aug-cc-pVTZ/C DLPNO-CCSD(T1) TightSCF NormalPNO UNO MiniPrint AutoAux
|  2> %pal nproc 10 end
|  3> %maxcore 20000
|  4> %mdci
|  5>      density none
|  6> end
|  7> 
|  8> * xyz 0 6
|  9>  O     -0.29715400     -0.17478900     -0.45589400
| 10>  C     -1.15329800     -1.11186200     -0.19987200
| 11>  C     -2.63853800     -0.21232500      0.88980400
| 12>  C     -3.10212500      0.65777100     -0.07982000
| 13>  C     -4.22564700      0.30064200     -0.99600700
| 14> Fe      1.54737400      0.17292000     -0.10432700
| 15> Cl      1.88425300      2.09995100     -1.08743600
| 16>  C     -2.41786100      1.95792900     -0.30424800
| 17> Cl      2.53880200     -1.57153200     -0.99996000
| 18> Cl      1.84687200      0.26610200      2.07646600
| 19>  H     -3.24798600     -1.10140100      1.04911800
| 20>  H     -2.91492300      2.57460900     -1.05600200
| 21>  H     -2.30193900      2.52951700      0.62270200
| 22>  H     -1.39175500      1.73120200     -0.64783800
| 23>  H     -5.05964400      0.99043900     -0.80255700
| 24>  H     -3.94769700      0.44860800     -2.04703100
| 25>  H     -4.58629900     -0.72004900     -0.85283900
| 26>  C     -1.89791800      0.31298900      2.10598100
| 27>  H     -2.49188000      1.09129900      2.59892700
| 28>  H     -1.72695900     -0.47981500      2.83559600
| 29>  H     -0.92823900      0.74428400      1.84831500
| 30>  C     -0.74802700     -2.14379800      0.84146000
| 31>  H     -1.58055000     -2.77976800      1.15005100
| 32>  H      0.00680500     -2.77249500      0.35021400
| 33>  H     -0.27344200     -1.68618200      1.70863300
| 34>  C     -1.83278100     -1.69589600     -1.42339500
| 35>  H     -1.10124700     -2.36644000     -1.89132700
| 36>  H     -2.72177800     -2.28019200     -1.17398900
| 37>  H     -2.07853400     -0.92078700     -2.14992300
| 38> *
| 39> 
| 40> 
| 41>                          ****END OF INPUT****
================================================================================

                       ****************************
                       * Single Point Calculation *
                       ****************************

---------------------------------
CARTESIAN COORDINATES (ANGSTROEM)
---------------------------------
  O     -0.297154   -0.174789   -0.455894
  C     -1.153298   -1.111862   -0.199872
  C     -2.638538   -0.212325    0.889804
  C     -3.102125    0.657771   -0.079820
  C     -4.225647    0.300642   -0.996007
  Fe     1.547374    0.172920   -0.104327
  Cl     1.884253    2.099951   -1.087436
  C     -2.417861    1.957929   -0.304248
  Cl     2.538802   -1.571532   -0.999960
  Cl     1.846872    0.266102    2.076466
  H     -3.247986   -1.101401    1.049118
  H     -2.914923    2.574609   -1.056002
  H     -2.301939    2.529517    0.622702
  H     -1.391755    1.731202   -0.647838
  H     -5.059644    0.990439   -0.802557
  H     -3.947697    0.448608   -2.047031
  H     -4.586299   -0.720049   -0.852839
  C     -1.897918    0.312989    2.105981
  H     -2.491880    1.091299    2.598927
  H     -1.726959   -0.479815    2.835596
  H     -0.928239    0.744284    1.848315
  C     -0.748027   -2.143798    0.841460
  H     -1.580550   -2.779768    1.150051
  H      0.006805   -2.772495    0.350214
  H     -0.273442   -1.686182    1.708633
  C     -1.832781   -1.695896   -1.423395
  H     -1.101247   -2.366440   -1.891327
  H     -2.721778   -2.280192   -1.173989
  H     -2.078534   -0.920787   -2.149923

----------------------------
CARTESIAN COORDINATES (A.U.)
----------------------------
  NO LB      ZA    FRAG     MASS         X           Y           Z
   0 O     8.0000    0    15.999   -0.561540   -0.330303   -0.861515
   1 C     6.0000    0    12.011   -2.179417   -2.101115   -0.377703
   2 C     6.0000    0    12.011   -4.986114   -0.401236    1.681486
   3 C     6.0000    0    12.011   -5.862167    1.243007   -0.150838
   4 C     6.0000    0    12.011   -7.985316    0.568131   -1.882180
   5 Fe   26.0000    0    55.850    2.924113    0.326771   -0.197149
   6 Cl   17.0000    0    35.453    3.560722    3.968332   -2.054956
   7 C     6.0000    0    12.011   -4.569095    3.699950   -0.574945
   8 Cl   17.0000    0    35.453    4.797640   -2.969765   -1.889651
   9 Cl   17.0000    0    35.453    3.490082    0.502860    3.923952
  10 H     1.0000    0     1.008   -6.137804   -2.081346    1.982546
  11 H     1.0000    0     1.008   -5.508406    4.865306   -1.995555
  12 H     1.0000    0     1.008   -4.350034    4.780094    1.176736
  13 H     1.0000    0     1.008   -2.630036    3.271498   -1.224236
  14 H     1.0000    0     1.008   -9.561341    1.871658   -1.516613
  15 H     1.0000    0     1.008   -7.460066    0.847746   -3.868328
  16 H     1.0000    0     1.008   -8.666849   -1.360695   -1.611632
  17 C     6.0000    0    12.011   -3.586545    0.591463    3.979727
  18 H     1.0000    0     1.008   -4.708971    2.062256    4.911260
  19 H     1.0000    0     1.008   -3.263480   -0.906719    5.358500
  20 H     1.0000    0     1.008   -1.754117    1.406493    3.492809
  21 C     6.0000    0    12.011   -1.413566   -4.051191    1.590129
  22 H     1.0000    0     1.008   -2.986807   -5.253000    2.173281
  23 H     1.0000    0     1.008    0.012860   -5.239256    0.661809
  24 H     1.0000    0     1.008   -0.516730   -3.186422    3.228848
  25 C     6.0000    0    12.011   -3.463454   -3.204779   -2.689827
  26 H     1.0000    0     1.008   -2.081055   -4.471924   -3.574090
  27 H     1.0000    0     1.008   -5.143415   -4.308938   -2.218518
  28 H     1.0000    0     1.008   -3.927860   -1.740035   -4.062766



           ************************************************************
           *        Program running with 10 parallel MPI-processes    *
           *              working on a common directory               *
           ************************************************************


           ************************************************************
           *        Program running with 10 parallel MPI-processes    *
           *              working on a common directory               *
           ************************************************************

Diagonalization of the overlap matrix:
Smallest eigenvalue                        ... 7.029e-07
Time for diagonalization                   ...    0.346 sec
Threshold for overlap eigenvalues          ... 1.000e-08
Number of eigenvalues below threshold      ... 0
Time for construction of square roots      ...    0.284 sec
Total time needed                          ...    0.635 sec

-------------------
DFT GRID GENERATION
-------------------

General Integration Accuracy     IntAcc      ...  4.340
Radial Grid Type                 RadialGrid  ... Gauss-Chebyshev
Angular Grid (max. acc.)         AngularGrid ... Lebedev-110
Angular grid pruning method      GridPruning ... 3 (G Style)
Weight generation scheme         WeightScheme... Becke
Basis function cutoff            BFCut       ...    1.0000e-11
Integration weight cutoff        WCut        ...    1.0000e-14
Grids for H and He will be reduced by one unit

# of grid points (after initial pruning)     ...  36112 (   0.0 sec)
# of grid points (after weights+screening)   ...  32391 (   0.1 sec)
nearest neighbour list constructed           ...    0.0 sec
Grid point re-assignment to atoms done       ...    0.0 sec
Grid point division into batches done        ...    0.0 sec
Reduced shell lists constructed in    0.3 sec

Total number of grid points                  ...    32391
Total number of batches                      ...      521
Average number of points per batch           ...       62
Average number of grid points per atom       ...     1117
Average number of shells per batch           ...   291.57 (85.01%)
Average number of basis functions per batch  ...   865.35 (84.42%)
Average number of large shells per batch     ...   238.39 (81.76%)
Average number of large basis fcns per batch ...   707.69 (81.78%)
Maximum spatial batch extension              ...   3.41,  3.74,  5.79 au
Average spatial batch extension              ...   0.18,  0.18,  0.18 au

Time for grid setup =    0.377 sec

Loading Hartree-Fock densities                     ... done
Calculating cut-offs                               ... done
Setting up the integral package                    ... done
Initializing the effective Hamiltonian             ... done
Starting the Coulomb interaction                   ... done (   1.1 sec)
Reading the grid                                   ... done
Mapping shells                                     ... done
Starting the XC term evaluation                    ... done (   0.9 sec)
Transforming the Hamiltonian                       ... done (   0.2 sec)
Diagonalizing the Hamiltonian                      ... done (   0.4 sec)
Back transforming the eigenvectors                 ... done (   0.1 sec)
Now organizing SCF variables                       ... done
--------------
SCF ITERATIONS
--------------
ITER       Energy         Delta-E        Max-DP      RMS-DP      [F,P]     Damp
               ***  Starting incremental Fock matrix formation  ***
  0  -3027.5658501199   0.000000000000 0.27422482  0.00105011  0.2647524 0.7000
  1  -3027.8161780313  -0.250327911350 0.21370703  0.00082695  0.1595200 0.7000
                               ***Turning on DIIS***
  2  -3027.9844775549  -0.168299523570 0.15358771  0.00061078  0.1095982 0.7000
  3  -3029.5937556628  -1.609278107990 0.34464594  0.00152945  0.0820954 0.0000
  4  -3028.2899467168   1.303808946033 0.04783165  0.00021581  0.0209362 0.0000
  5  -3028.4034149838  -0.113468266944 0.03990569  0.00017090  0.0115579 0.0000
  6  -3028.4494687479  -0.046053764184 0.02130945  0.00007240  0.0056707 0.0000
  7  -3028.4662922869  -0.016823538918 0.00857864  0.00003327  0.0034612 0.0000
  8  -3028.4535693249   0.012722961910 0.00571674  0.00001886  0.0015766 0.0000
  9  -3028.4499187708   0.003650554106 0.00341822  0.00001119  0.0007255 0.0000
 10  -3028.4386210778   0.011297693015 0.00085290  0.00000307  0.0003425 0.0000
 11  -3028.4431416265  -0.004520548690 0.00037638  0.00000164  0.0000950 0.0000
 12  -3028.4408592129   0.002282413651 0.00037247  0.00000144  0.0000212 0.0000
 13  -3028.4410476340  -0.000188421182 0.00132939  0.00000278  0.0000114 0.0000
 14  -3028.4411245564  -0.000076922378 0.00038561  0.00000192  0.0000041 0.0000
 15  -3028.4410318270   0.000092729402 0.00115905  0.00000254  0.0000019 0.0000
 16  -3028.4410687876  -0.000036960624 0.00064518  0.00000222  0.0000018 0.0000
 17  -3028.4410833547  -0.000014567065 0.00092381  0.00000198  0.0000010 0.0000
                            ***DIIS convergence achieved***

               *****************************************************
               *                     SUCCESS                       *
               *           SCF CONVERGED AFTER  18 CYCLES          *
               *****************************************************

Total Energy       :        -3028.44106885 Eh          -82408.07103 eV
  Last Energy change         ...    1.4506e-05  Tolerance :   1.0000e-08
  Last MAX-Density change    ...    1.1727e-03  Tolerance :   1.0000e-07
             **** THE GBW FILE WAS UPDATED (simple-grid-205-295-b3lyp_d3bj-631gd-gas-singlepoint-DLPNO_CCSD_T1-NormalPNO-augtz-gas.gbw) ****
             **** DENSITY FILE WAS UPDATED (simple-grid-205-295-b3lyp_d3bj-631gd-gas-singlepoint-DLPNO_CCSD_T1-NormalPNO-augtz-gas.scfp.tmp) ****
             **** ENERGY FILE WAS UPDATED (simple-grid-205-295-b3lyp_d3bj-631gd-gas-singlepoint-DLPNO_CCSD_T1-NormalPNO-augtz-gas.en.tmp) ****
----------------------
UHF SPIN CONTAMINATION
----------------------

Expectation value of <S**2>     :     8.766147
Ideal value S*(S+1) for S=2.5   :     8.750000
Deviation                       :     0.016147

----------------
ORBITAL ENERGIES
----------------
                 SPIN UP ORBITALS
  NO   OCC          E(Eh)            E(eV) 
   0   1.0000    -261.556065     -7117.3024 
   1   1.0000    -104.778454     -2851.1667 
   2   1.0000    -104.775956     -2851.0987 
   3   1.0000    -104.775357     -2851.0824 
   4   1.0000     -32.223903      -876.8570 
   5   1.0000     -27.700123      -753.7587 
   6   1.0000     -27.699385      -753.7386 
   7   1.0000     -27.699246      -753.7348 
   8   1.0000     -20.575972      -559.9007 
   9   1.0000     -11.397436      -310.1400 
  10   1.0000     -11.336902      -308.4928 
  11   1.0000     -11.279514      -306.9312 
  12   1.0000     -11.272083      -306.7290 
  13   1.0000     -11.262259      -306.4616 
  14   1.0000     -11.259350      -306.3825 
  15   1.0000     -11.256383      -306.3017 
  16   1.0000     -11.246191      -306.0244 
  17   1.0000     -10.505113      -285.8587 
  18   1.0000     -10.502591      -285.7900 
  19   1.0000     -10.501955      -285.7727 
  20   1.0000      -7.971967      -216.9283 
  21   1.0000      -7.971170      -216.9066 
  22   1.0000      -7.971143      -216.9058 
  23   1.0000      -7.969460      -216.8600 
  24   1.0000      -7.968767      -216.8412 
  25   1.0000      -7.968688      -216.8390 
  26   1.0000      -7.968606      -216.8368 
  27   1.0000      -7.968084      -216.8226 
  28   1.0000      -7.967992      -216.8201 
  29   1.0000      -4.579135      -124.6046 
  30   1.0000      -3.192069       -86.8606 
  31   1.0000      -3.190860       -86.8277 
  32   1.0000      -3.190564       -86.8197 
  33   1.0000      -1.416391       -38.5420 
  34   1.0000      -1.169197       -31.8155 
  35   1.0000      -1.082822       -29.4651 
  36   1.0000      -1.050452       -28.5843 
  37   1.0000      -1.045286       -28.4437 
  38   1.0000      -1.042813       -28.3764 
  39   1.0000      -1.040006       -28.3000 
  40   1.0000      -0.995822       -27.0977 
  41   1.0000      -0.989303       -26.9203 
  42   1.0000      -0.925372       -25.1807 
  43   1.0000      -0.918116       -24.9832 
  44   1.0000      -0.908390       -24.7186 
  45   1.0000      -0.908352       -24.7175 
  46   1.0000      -0.898559       -24.4510 
  47   1.0000      -0.898164       -24.4403 
  48   1.0000      -0.793783       -21.5999 
  49   1.0000      -0.761500       -20.7215 
  50   1.0000      -0.690768       -18.7968 
  51   1.0000      -0.686555       -18.6821 
  52   1.0000      -0.677387       -18.4326 
  53   1.0000      -0.671834       -18.2815 
  54   1.0000      -0.650672       -17.7057 
  55   1.0000      -0.626099       -17.0370 
  56   1.0000      -0.604167       -16.4402 
  57   1.0000      -0.595299       -16.1989 
  58   1.0000      -0.586519       -15.9600 
  59   1.0000      -0.578244       -15.7348 
  60   1.0000      -0.570081       -15.5127 
  61   1.0000      -0.566593       -15.4178 
  62   1.0000      -0.559686       -15.2298 
  63   1.0000      -0.544127       -14.8065 
  64   1.0000      -0.534540       -14.5456 
  65   1.0000      -0.523624       -14.2485 
  66   1.0000      -0.515645       -14.0314 
  67   1.0000      -0.480845       -13.0844 
  68   1.0000      -0.464225       -12.6322 
  69   1.0000      -0.456179       -12.4133 
  70   1.0000      -0.431766       -11.7490 
  71   1.0000      -0.427484       -11.6324 
  72   1.0000      -0.424814       -11.5598 
  73   1.0000      -0.416592       -11.3360 
  74   1.0000      -0.414869       -11.2892 
  75   1.0000      -0.414252       -11.2724 
  76   1.0000      -0.384894       -10.4735 
  77   0.0000       0.007765         0.2113 
  78   0.0000       0.019597         0.5333 
  79   0.0000       0.020382         0.5546 
  80   0.0000       0.024133         0.6567 
  81   0.0000       0.031162         0.8480 
  82   0.0000       0.039246         1.0679 
  83   0.0000       0.040135         1.0921 
  84   0.0000       0.041966         1.1420 
  85   0.0000       0.044401         1.2082 
  86   0.0000       0.046538         1.2664 
  87   0.0000       0.056926         1.5490 
  88   0.0000       0.057519         1.5652 
  89   0.0000       0.060489         1.6460 
  90   0.0000       0.063407         1.7254 
  91   0.0000       0.065293         1.7767 
  92   0.0000       0.073496         1.9999 
  93   0.0000       0.075085         2.0432 
  94   0.0000       0.083144         2.2625 
  95   0.0000       0.087043         2.3686 
  96   0.0000       0.090071         2.4510 
  97   0.0000       0.092729         2.5233 
  98   0.0000       0.095648         2.6027 
  99   0.0000       0.097914         2.6644 
 100   0.0000       0.104343         2.8393 
 101   0.0000       0.104406         2.8410 
 102   0.0000       0.116795         3.1782 
 103   0.0000       0.117376         3.1940 
 104   0.0000       0.121062         3.2943 
 105   0.0000       0.123988         3.3739 
 106   0.0000       0.126166         3.4332 
 107   0.0000       0.130943         3.5632 
 108   0.0000       0.131126         3.5681 
 109   0.0000       0.135827         3.6960 
 110   0.0000       0.139062         3.7841 
 111   0.0000       0.142526         3.8783 
 112   0.0000       0.145270         3.9530 
 113   0.0000       0.149011         4.0548 
 114   0.0000       0.150911         4.1065 
 115   0.0000       0.154811         4.2126 
 116   0.0000       0.157196         4.2775 
 117   0.0000       0.159175         4.3314 
 118   0.0000       0.160715         4.3733 
 119   0.0000       0.162270         4.4156 
 120   0.0000       0.165260         4.4970 
 121   0.0000       0.169920         4.6237 
 122   0.0000       0.173840         4.7304 
 123   0.0000       0.177141         4.8203 
 124   0.0000       0.179041         4.8719 
 125   0.0000       0.181657         4.9431 
 126   0.0000       0.188609         5.1323 
 127   0.0000       0.190084         5.1724 
 128   0.0000       0.193316         5.2604 
 129   0.0000       0.198079         5.3900 
 130   0.0000       0.200855         5.4656 
 131   0.0000       0.205204         5.5839 
 132   0.0000       0.207878         5.6566 
 133   0.0000       0.212064         5.7706 
 134   0.0000       0.214744         5.8435 
 135   0.0000       0.216215         5.8835 
 136   0.0000       0.219377         5.9695 
 137   0.0000       0.222988         6.0678 
 138   0.0000       0.223983         6.0949 
 139   0.0000       0.226853         6.1730 
 140   0.0000       0.228133         6.2078 
 141   0.0000       0.236549         6.4368 
 142   0.0000       0.237476         6.4621 
 143   0.0000       0.243400         6.6233 
 144   0.0000       0.246380         6.7043 
 145   0.0000       0.251238         6.8365 
 146   0.0000       0.253966         6.9108 
 147   0.0000       0.255762         6.9596 
 148   0.0000       0.260940         7.1005 
 149   0.0000       0.263091         7.1591 
 150   0.0000       0.266563         7.2536 
 151   0.0000       0.275343         7.4925 
 152   0.0000       0.278935         7.5902 
 153   0.0000       0.280076         7.6213 
 154   0.0000       0.287186         7.8147 
 155   0.0000       0.290537         7.9059 
 156   0.0000       0.294622         8.0171 
 157   0.0000       0.295563         8.0427 
 158   0.0000       0.301330         8.1996 
 159   0.0000       0.301630         8.2078 
 160   0.0000       0.304820         8.2946 
 161   0.0000       0.313323         8.5260 
 162   0.0000       0.314085         8.5467 
 163   0.0000       0.319625         8.6975 
 164   0.0000       0.323612         8.8059 
 165   0.0000       0.329334         8.9616 
 166   0.0000       0.331384         9.0174 
 167   0.0000       0.335420         9.1273 
 168   0.0000       0.336407         9.1541 
 169   0.0000       0.338765         9.2183 
 170   0.0000       0.343594         9.3497 
 171   0.0000       0.348169         9.4742 
 172   0.0000       0.352480         9.5915 
 173   0.0000       0.354933         9.6582 
 174   0.0000       0.357143         9.7184 
 175   0.0000       0.360295         9.8041 
 176   0.0000       0.366925         9.9845 
 177   0.0000       0.369125        10.0444 
 178   0.0000       0.371123        10.0988 
 179   0.0000       0.375642        10.2218 
 180   0.0000       0.378251        10.2927 
 181   0.0000       0.379693        10.3320 
 182   0.0000       0.384909        10.4739 
 183   0.0000       0.388119        10.5613 
 184   0.0000       0.389191        10.5904 
 185   0.0000       0.392717        10.6864 
 186   0.0000       0.395417        10.7598 
 187   0.0000       0.402347        10.9484 
 188   0.0000       0.403734        10.9862 
 189   0.0000       0.406106        11.0507 
 190   0.0000       0.410556        11.1718 
 191   0.0000       0.411284        11.1916 
 192   0.0000       0.417516        11.3612 
 193   0.0000       0.421040        11.4571 
 194   0.0000       0.426780        11.6133 
 195   0.0000       0.431740        11.7482 
 196   0.0000       0.432944        11.7810 
 197   0.0000       0.433571        11.7981 
 198   0.0000       0.439699        11.9648 
 199   0.0000       0.446120        12.1395 
 200   0.0000       0.447404        12.1745 
 201   0.0000       0.451025        12.2730 
 202   0.0000       0.454626        12.3710 
 203   0.0000       0.456326        12.4173 
 204   0.0000       0.463210        12.6046 
 205   0.0000       0.464762        12.6468 
 206   0.0000       0.468708        12.7542 
 207   0.0000       0.470778        12.8105 
 208   0.0000       0.475038        12.9264 
 209   0.0000       0.479797        13.0559 
 210   0.0000       0.483962        13.1693 
 211   0.0000       0.487496        13.2654 
 212   0.0000       0.490059        13.3352 
 213   0.0000       0.492254        13.3949 
 214   0.0000       0.494204        13.4480 
 215   0.0000       0.498948        13.5771 
 216   0.0000       0.501431        13.6446 
 217   0.0000       0.506073        13.7709 
 218   0.0000       0.508694        13.8423 
 219   0.0000       0.511393        13.9157 
 220   0.0000       0.513586        13.9754 
 221   0.0000       0.516829        14.0636 
 222   0.0000       0.521056        14.1786 
 223   0.0000       0.526032        14.3141 
 224   0.0000       0.527159        14.3447 
 225   0.0000       0.530563        14.4374 
 226   0.0000       0.530695        14.4410 
 227   0.0000       0.537240        14.6190 
 228   0.0000       0.538641        14.6572 
 229   0.0000       0.543582        14.7916 
 230   0.0000       0.545434        14.8420 
 231   0.0000       0.547485        14.8978 
 232   0.0000       0.552766        15.0415 
 233   0.0000       0.554769        15.0960 
 234   0.0000       0.559545        15.2260 
 235   0.0000       0.562879        15.3167 
 236   0.0000       0.570215        15.5163 
 237   0.0000       0.572232        15.5712 
 238   0.0000       0.576975        15.7003 
 239   0.0000       0.578052        15.7296 
 240   0.0000       0.581203        15.8153 
 241   0.0000       0.582524        15.8513 
 242   0.0000       0.588308        16.0087 
 243   0.0000       0.588862        16.0238 
 244   0.0000       0.596459        16.2305 
 245   0.0000       0.600509        16.3407 
 246   0.0000       0.608095        16.5471 
 247   0.0000       0.610190        16.6041 
 248   0.0000       0.613930        16.7059 
 249   0.0000       0.615093        16.7375 
 250   0.0000       0.617615        16.8061 
 251   0.0000       0.620055        16.8725 
 252   0.0000       0.624251        16.9867 
 253   0.0000       0.628840        17.1116 
 254   0.0000       0.632489        17.2109 
 255   0.0000       0.635775        17.3003 
 256   0.0000       0.644945        17.5498 
 257   0.0000       0.651149        17.7187 
 258   0.0000       0.651986        17.7415 
 259   0.0000       0.656718        17.8702 
 260   0.0000       0.660039        17.9606 
 261   0.0000       0.667647        18.1676 
 262   0.0000       0.671900        18.2833 
 263   0.0000       0.674048        18.3418 
 264   0.0000       0.676387        18.4054 
 265   0.0000       0.678481        18.4624 
 266   0.0000       0.685534        18.6543 
 267   0.0000       0.690324        18.7847 
 268   0.0000       0.697205        18.9719 
 269   0.0000       0.697622        18.9833 
 270   0.0000       0.702470        19.1152 
 271   0.0000       0.707779        19.2597 
 272   0.0000       0.710092        19.3226 
 273   0.0000       0.716703        19.5025 
 274   0.0000       0.720467        19.6049 
 275   0.0000       0.722653        19.6644 
 276   0.0000       0.727331        19.7917 
 277   0.0000       0.732129        19.9222 
 278   0.0000       0.735283        20.0081 
 279   0.0000       0.736753        20.0481 
 280   0.0000       0.747045        20.3281 
 281   0.0000       0.751475        20.4487 
 282   0.0000       0.757638        20.6164 
 283   0.0000       0.760112        20.6837 
 284   0.0000       0.767737        20.8912 
 285   0.0000       0.779873        21.2214 
 286   0.0000       0.783119        21.3098 
 287   0.0000       0.790816        21.5192 
 288   0.0000       0.792094        21.5540 
 289   0.0000       0.797066        21.6893 
 290   0.0000       0.798449        21.7269 
 291   0.0000       0.814397        22.1609 
 292   0.0000       0.815473        22.1901 
 293   0.0000       0.825681        22.4679 
 294   0.0000       0.832200        22.6453 
 295   0.0000       0.836485        22.7619 
 296   0.0000       0.841436        22.8966 
 297   0.0000       0.847615        23.0648 
 298   0.0000       0.851611        23.1735 
 299   0.0000       0.856387        23.3035 
 300   0.0000       0.859750        23.3950 
 301   0.0000       0.864576        23.5263 
 302   0.0000       0.867164        23.5967 
 303   0.0000       0.869899        23.6712 
 304   0.0000       0.874851        23.8059 
 305   0.0000       0.878049        23.8929 
 306   0.0000       0.885686        24.1007 
 307   0.0000       0.887908        24.1612 
 308   0.0000       0.901303        24.5257 
 309   0.0000       0.903327        24.5808 
 310   0.0000       0.907721        24.7003 
 311   0.0000       0.910444        24.7744 
 312   0.0000       0.913986        24.8708 
 313   0.0000       0.916341        24.9349 
 314   0.0000       0.917106        24.9557 
 315   0.0000       0.924717        25.1628 
 316   0.0000       0.933338        25.3974 
 317   0.0000       0.935543        25.4574 
 318   0.0000       0.938652        25.5420 
 319   0.0000       0.943016        25.6608 
 320   0.0000       0.945857        25.7381 
 321   0.0000       0.951403        25.8890 
 322   0.0000       0.954557        25.9748 
 323   0.0000       0.957461        26.0538 
 324   0.0000       0.959735        26.1157 
 325   0.0000       0.962897        26.2017 
 326   0.0000       0.970056        26.3966 
 327   0.0000       0.974004        26.5040 
 328   0.0000       0.977495        26.5990 
 329   0.0000       0.982717        26.7411 
 330   0.0000       0.985515        26.8172 
 331   0.0000       0.987358        26.8674 
 332   0.0000       0.990476        26.9522 
 333   0.0000       0.992265        27.0009 
 334   0.0000       0.995335        27.0845 
 335   0.0000       1.000836        27.2341 
 336   0.0000       1.003492        27.3064 
 337   0.0000       1.005892        27.3717 
 338   0.0000       1.012346        27.5473 
 339   0.0000       1.016106        27.6497 
 340   0.0000       1.020055        27.7571 
 341   0.0000       1.021241        27.7894 
 342   0.0000       1.024552        27.8795 
 343   0.0000       1.028600        27.9896 
 344   0.0000       1.035470        28.1766 
 345   0.0000       1.037640        28.2356 
 346   0.0000       1.040718        28.3194 
 347   0.0000       1.043625        28.3985 
 348   0.0000       1.044263        28.4158 
 349   0.0000       1.049895        28.5691 
 350   0.0000       1.054530        28.6952 
 351   0.0000       1.060621        28.8610 
 352   0.0000       1.064068        28.9548 
 353   0.0000       1.066289        29.0152 
 354   0.0000       1.068632        29.0790 
 355   0.0000       1.076454        29.2918 
 356   0.0000       1.078158        29.3382 
 357   0.0000       1.081929        29.4408 
 358   0.0000       1.083285        29.4777 
 359   0.0000       1.087622        29.5957 
 360   0.0000       1.091719        29.7072 
 361   0.0000       1.093590        29.7581 
 362   0.0000       1.100091        29.9350 
 363   0.0000       1.103449        30.0264 
 364   0.0000       1.107464        30.1356 
 365   0.0000       1.110003        30.2047 
 366   0.0000       1.115715        30.3601 
 367   0.0000       1.123901        30.5829 
 368   0.0000       1.126752        30.6605 
 369   0.0000       1.129659        30.7396 
 370   0.0000       1.130604        30.7653 
 371   0.0000       1.138720        30.9861 
 372   0.0000       1.143428        31.1143 
 373   0.0000       1.148339        31.2479 
 374   0.0000       1.149672        31.2842 
 375   0.0000       1.154156        31.4062 
 376   0.0000       1.159905        31.5626 
 377   0.0000       1.167662        31.7737 
 378   0.0000       1.171606        31.8810 
 379   0.0000       1.174810        31.9682 
 380   0.0000       1.178801        32.0768 
 381   0.0000       1.181846        32.1597 
 382   0.0000       1.189995        32.3814 
 383   0.0000       1.191780        32.4300 
 384   0.0000       1.198768        32.6201 
 385   0.0000       1.202297        32.7162 
 386   0.0000       1.209325        32.9074 
 387   0.0000       1.211567        32.9684 
 388   0.0000       1.215689        33.0806 
 389   0.0000       1.216852        33.1122 
 390   0.0000       1.221422        33.2366 
 391   0.0000       1.227188        33.3935 
 392   0.0000       1.228736        33.4356 
 393   0.0000       1.239106        33.7178 
 394   0.0000       1.246580        33.9212 
 395   0.0000       1.255542        34.1650 
 396   0.0000       1.257680        34.2232 
 397   0.0000       1.258880        34.2559 
 398   0.0000       1.264888        34.4194 
 399   0.0000       1.265260        34.4295 
 400   0.0000       1.278229        34.7824 
 401   0.0000       1.279936        34.8288 
 402   0.0000       1.286496        35.0073 
 403   0.0000       1.290892        35.1270 
 404   0.0000       1.295168        35.2433 
 405   0.0000       1.296899        35.2904 
 406   0.0000       1.306140        35.5419 
 407   0.0000       1.307896        35.5896 
 408   0.0000       1.309143        35.6236 
 409   0.0000       1.315229        35.7892 
 410   0.0000       1.317883        35.8614 
 411   0.0000       1.321581        35.9620 
 412   0.0000       1.328580        36.1525 
 413   0.0000       1.337906        36.4063 
 414   0.0000       1.346763        36.6473 
 415   0.0000       1.351759        36.7832 
 416   0.0000       1.358218        36.9590 
 417   0.0000       1.362744        37.0822 
 418   0.0000       1.365531        37.1580 
 419   0.0000       1.368905        37.2498 
 420   0.0000       1.376475        37.4558 
 421   0.0000       1.379211        37.5302 
 422   0.0000       1.384916        37.6855 
 423   0.0000       1.389951        37.8225 
 424   0.0000       1.399278        38.0763 
 425   0.0000       1.404530        38.2192 
 426   0.0000       1.408800        38.3354 
 427   0.0000       1.418540        38.6004 
 428   0.0000       1.423762        38.7425 
 429   0.0000       1.429484        38.8982 
 430   0.0000       1.433335        39.0030 
 431   0.0000       1.436023        39.0762 
 432   0.0000       1.441628        39.2287 
 433   0.0000       1.448644        39.4196 
 434   0.0000       1.452363        39.5208 
 435   0.0000       1.456360        39.6296 
 436   0.0000       1.459814        39.7235 
 437   0.0000       1.467343        39.9284 
 438   0.0000       1.467795        39.9407 
 439   0.0000       1.473217        40.0883 
 440   0.0000       1.476583        40.1799 
 441   0.0000       1.482559        40.3425 
 442   0.0000       1.485541        40.4236 
 443   0.0000       1.496974        40.7347 
 444   0.0000       1.501658        40.8622 
 445   0.0000       1.508332        41.0438 
 446   0.0000       1.510814        41.1113 
 447   0.0000       1.513094        41.1734 
 448   0.0000       1.516639        41.2698 
 449   0.0000       1.529127        41.6097 
 450   0.0000       1.533166        41.7196 
 451   0.0000       1.541705        41.9519 
 452   0.0000       1.543562        42.0025 
 453   0.0000       1.546094        42.0714 
 454   0.0000       1.555679        42.3322 
 455   0.0000       1.560831        42.4724 
 456   0.0000       1.563958        42.5575 
 457   0.0000       1.567032        42.6411 
 458   0.0000       1.572543        42.7911 
 459   0.0000       1.577492        42.9257 
 460   0.0000       1.578025        42.9403 
 461   0.0000       1.590814        43.2883 
 462   0.0000       1.592444        43.3326 
 463   0.0000       1.599564        43.5263 
 464   0.0000       1.602787        43.6141 
 465   0.0000       1.609678        43.8016 
 466   0.0000       1.614029        43.9200 
 467   0.0000       1.621463        44.1223 
 468   0.0000       1.624650        44.2090 
 469   0.0000       1.632975        44.4355 
 470   0.0000       1.636882        44.5418 
 471   0.0000       1.638713        44.5917 
 472   0.0000       1.649561        44.8868 
 473   0.0000       1.653191        44.9856 
 474   0.0000       1.661787        45.2195 
 475   0.0000       1.665303        45.3152 
 476   0.0000       1.671732        45.4901 
 477   0.0000       1.678889        45.6849 
 478   0.0000       1.679947        45.7137 
 479   0.0000       1.685555        45.8663 
 480   0.0000       1.690803        46.0091 
 481   0.0000       1.693421        46.0803 
 482   0.0000       1.696513        46.1645 
 483   0.0000       1.697764        46.1985 
 484   0.0000       1.705703        46.4145 
 485   0.0000       1.716212        46.7005 
 486   0.0000       1.717029        46.7227 
 487   0.0000       1.722867        46.8816 
 488   0.0000       1.726824        46.9893 
 489   0.0000       1.735444        47.2238 
 490   0.0000       1.743122        47.4328 
 491   0.0000       1.750782        47.6412 
 492   0.0000       1.754029        47.7295 
 493   0.0000       1.755218        47.7619 
 494   0.0000       1.763435        47.9855 
 495   0.0000       1.766745        48.0756 
 496   0.0000       1.775634        48.3175 
 497   0.0000       1.784642        48.5626 
 498   0.0000       1.788993        48.6810 
 499   0.0000       1.794826        48.8397 
 500   0.0000       1.796517        48.8857 
 501   0.0000       1.804631        49.1065 
 502   0.0000       1.811998        49.3070 
 503   0.0000       1.812470        49.3198 
 504   0.0000       1.819939        49.5231 
 505   0.0000       1.825567        49.6762 
 506   0.0000       1.829106        49.7725 
 507   0.0000       1.832612        49.8679 
 508   0.0000       1.841105        50.0990 
 509   0.0000       1.844865        50.2013 
 510   0.0000       1.849853        50.3371 
 511   0.0000       1.855524        50.4914 
 512   0.0000       1.861603        50.6568 
 513   0.0000       1.865704        50.7684 
 514   0.0000       1.870930        50.9106 
 515   0.0000       1.873443        50.9790 
 516   0.0000       1.878147        51.1070 
 517   0.0000       1.885200        51.2989 
 518   0.0000       1.886407        51.3317 
 519   0.0000       1.897544        51.6348 
 520   0.0000       1.900116        51.7048 
 521   0.0000       1.908009        51.9196 
 522   0.0000       1.910001        51.9738 
 523   0.0000       1.915067        52.1116 
 524   0.0000       1.919492        52.2320 
 525   0.0000       1.928921        52.4886 
 526   0.0000       1.930805        52.5399 
 527   0.0000       1.935166        52.6586 
 528   0.0000       1.939619        52.7797 
 529   0.0000       1.950573        53.0778 
 530   0.0000       1.951321        53.0982 
 531   0.0000       1.958535        53.2945 
 532   0.0000       1.965778        53.4915 
 533   0.0000       1.972559        53.6761 
 534   0.0000       1.973997        53.7152 
 535   0.0000       1.977797        53.8186 
 536   0.0000       1.984441        53.9994 
 537   0.0000       1.993530        54.2467 
 538   0.0000       2.005003        54.5589 
 539   0.0000       2.009674        54.6860 
 540   0.0000       2.014812        54.8258 
 541   0.0000       2.019952        54.9657 
 542   0.0000       2.026002        55.1303 
 543   0.0000       2.039651        55.5017 
 544   0.0000       2.048698        55.7479 
 545   0.0000       2.051027        55.8113 
 546   0.0000       2.052338        55.8470 
 547   0.0000       2.057854        55.9971 
 548   0.0000       2.062427        56.1215 
 549   0.0000       2.070783        56.3489 
 550   0.0000       2.079332        56.5815 
 551   0.0000       2.088994        56.8444 
 552   0.0000       2.093597        56.9697 
 553   0.0000       2.097485        57.0755 
 554   0.0000       2.104120        57.2560 
 555   0.0000       2.118082        57.6359 
 556   0.0000       2.120404        57.6991 
 557   0.0000       2.133769        58.0628 
 558   0.0000       2.135354        58.1059 
 559   0.0000       2.144853        58.3644 
 560   0.0000       2.149343        58.4866 
 561   0.0000       2.156894        58.6921 
 562   0.0000       2.159764        58.7702 
 563   0.0000       2.163403        58.8692 
 564   0.0000       2.176621        59.2289 
 565   0.0000       2.184916        59.4546 
 566   0.0000       2.193529        59.6890 
 567   0.0000       2.200337        59.8742 
 568   0.0000       2.204232        59.9802 
 569   0.0000       2.214861        60.2694 
 570   0.0000       2.223697        60.5099 
 571   0.0000       2.228688        60.6457 
 572   0.0000       2.229791        60.6757 
 573   0.0000       2.234077        60.7923 
 574   0.0000       2.242418        61.0193 
 575   0.0000       2.251480        61.2659 
 576   0.0000       2.263523        61.5936 
 577   0.0000       2.266785        61.6823 
 578   0.0000       2.269340        61.7519 
 579   0.0000       2.285313        62.1865 
 580   0.0000       2.289943        62.3125 
 581   0.0000       2.297663        62.5226 
 582   0.0000       2.304959        62.7211 
 583   0.0000       2.309404        62.8421 
 584   0.0000       2.313397        62.9507 
 585   0.0000       2.315902        63.0189 
 586   0.0000       2.325904        63.2911 
 587   0.0000       2.334056        63.5129 
 588   0.0000       2.343784        63.7776 
 589   0.0000       2.355267        64.0901 
 590   0.0000       2.362980        64.2999 
 591   0.0000       2.372959        64.5715 
 592   0.0000       2.383933        64.8701 
 593   0.0000       2.386318        64.9350 
 594   0.0000       2.387362        64.9634 
 595   0.0000       2.395652        65.1890 
 596   0.0000       2.407036        65.4988 
 597   0.0000       2.417580        65.7857 
 598   0.0000       2.427077        66.0441 
 599   0.0000       2.436487        66.3002 
 600   0.0000       2.443502        66.4911 
 601   0.0000       2.453313        66.7580 
 602   0.0000       2.462662        67.0125 
 603   0.0000       2.474109        67.3239 
 604   0.0000       2.481290        67.5193 
 605   0.0000       2.496644        67.9371 
 606   0.0000       2.499312        68.0097 
 607   0.0000       2.515019        68.4372 
 608   0.0000       2.528728        68.8102 
 609   0.0000       2.535661        68.9989 
 610   0.0000       2.548154        69.3388 
 611   0.0000       2.565792        69.8187 
 612   0.0000       2.575802        70.0911 
 613   0.0000       2.595665        70.6316 
 614   0.0000       2.610260        71.0288 
 615   0.0000       2.619156        71.2709 
 616   0.0000       2.622505        71.3620 
 617   0.0000       2.641777        71.8864 
 618   0.0000       2.643065        71.9215 
 619   0.0000       2.653166        72.1963 
 620   0.0000       2.660608        72.3988 
 621   0.0000       2.667206        72.5784 
 622   0.0000       2.671818        72.7039 
 623   0.0000       2.686844        73.1127 
 624   0.0000       2.689811        73.1935 
 625   0.0000       2.703494        73.5658 
 626   0.0000       2.709677        73.7341 
 627   0.0000       2.715479        73.8919 
 628   0.0000       2.718864        73.9841 
 629   0.0000       2.728098        74.2353 
 630   0.0000       2.737628        74.4946 
 631   0.0000       2.740692        74.5780 
 632   0.0000       2.744324        74.6768 
 633   0.0000       2.758980        75.0757 
 634   0.0000       2.771358        75.4125 
 635   0.0000       2.777027        75.5668 
 636   0.0000       2.789074        75.8946 
 637   0.0000       2.807100        76.3851 
 638   0.0000       2.829887        77.0051 
 639   0.0000       2.835670        77.1625 
 640   0.0000       2.846248        77.4504 
 641   0.0000       2.871739        78.1440 
 642   0.0000       2.876743        78.2802 
 643   0.0000       2.886039        78.5331 
 644   0.0000       2.892731        78.7152 
 645   0.0000       2.919345        79.4394 
 646   0.0000       2.920826        79.4797 
 647   0.0000       2.933840        79.8339 
 648   0.0000       2.940605        80.0179 
 649   0.0000       2.955363        80.4195 
 650   0.0000       2.968601        80.7797 
 651   0.0000       2.971132        80.8486 
 652   0.0000       2.993591        81.4597 
 653   0.0000       3.017853        82.1200 
 654   0.0000       3.031822        82.5001 
 655   0.0000       3.044398        82.8423 
 656   0.0000       3.067357        83.4670 
 657   0.0000       3.078315        83.7652 
 658   0.0000       3.081270        83.8456 
 659   0.0000       3.096400        84.2573 
 660   0.0000       3.122450        84.9662 
 661   0.0000       3.133891        85.2775 
 662   0.0000       3.148636        85.6787 
 663   0.0000       3.153077        85.7996 
 664   0.0000       3.164951        86.1227 
 665   0.0000       3.181109        86.5624 
 666   0.0000       3.190785        86.8257 
 667   0.0000       3.208609        87.3107 
 668   0.0000       3.214231        87.4637 
 669   0.0000       3.224100        87.7322 
 670   0.0000       3.238303        88.1187 
 671   0.0000       3.241125        88.1955 
 672   0.0000       3.253172        88.5233 
 673   0.0000       3.254797        88.5675 
 674   0.0000       3.263321        88.7995 
 675   0.0000       3.272551        89.0506 
 676   0.0000       3.288066        89.4728 
 677   0.0000       3.300643        89.8151 
 678   0.0000       3.305448        89.9458 
 679   0.0000       3.311971        90.1233 
 680   0.0000       3.319864        90.3381 
 681   0.0000       3.335384        90.7604 
 682   0.0000       3.344282        91.0025 
 683   0.0000       3.348746        91.1240 
 684   0.0000       3.356718        91.3409 
 685   0.0000       3.362720        91.5043 
 686   0.0000       3.370422        91.7138 
 687   0.0000       3.382552        92.0439 
 688   0.0000       3.392510        92.3149 
 689   0.0000       3.406209        92.6877 
 690   0.0000       3.416250        92.9609 
 691   0.0000       3.427298        93.2615 
 692   0.0000       3.431128        93.3657 
 693   0.0000       3.433470        93.4295 
 694   0.0000       3.457750        94.0902 
 695   0.0000       3.473023        94.5058 
 696   0.0000       3.475660        94.5775 
 697   0.0000       3.479890        94.6926 
 698   0.0000       3.484574        94.8201 
 699   0.0000       3.492113        95.0252 
 700   0.0000       3.496631        95.1482 
 701   0.0000       3.509643        95.5022 
 702   0.0000       3.510986        95.5388 
 703   0.0000       3.518727        95.7494 
 704   0.0000       3.526311        95.9558 
 705   0.0000       3.535881        96.2162 
 706   0.0000       3.547614        96.5355 
 707   0.0000       3.549988        96.6001 
 708   0.0000       3.558241        96.8247 
 709   0.0000       3.568241        97.0968 
 710   0.0000       3.579524        97.4038 
 711   0.0000       3.588765        97.6552 
 712   0.0000       3.593391        97.7811 
 713   0.0000       3.602180        98.0203 
 714   0.0000       3.613190        98.3199 
 715   0.0000       3.624759        98.6347 
 716   0.0000       3.632318        98.8404 
 717   0.0000       3.646962        99.2389 
 718   0.0000       3.650109        99.3245 
 719   0.0000       3.668080        99.8135 
 720   0.0000       3.672568        99.9357 
 721   0.0000       3.675169       100.0064 
 722   0.0000       3.687631       100.3455 
 723   0.0000       3.694124       100.5222 
 724   0.0000       3.709251       100.9339 
 725   0.0000       3.715032       101.0912 
 726   0.0000       3.718882       101.1959 
 727   0.0000       3.729833       101.4939 
 728   0.0000       3.736807       101.6837 
 729   0.0000       3.742486       101.8382 
 730   0.0000       3.751724       102.0896 
 731   0.0000       3.759060       102.2892 
 732   0.0000       3.761739       102.3621 
 733   0.0000       3.770467       102.5996 
 734   0.0000       3.783842       102.9636 
 735   0.0000       3.787494       103.0629 
 736   0.0000       3.792277       103.1931 
 737   0.0000       3.796903       103.3190 
 738   0.0000       3.801857       103.4538 
 739   0.0000       3.808542       103.6357 
 740   0.0000       3.818827       103.9156 
 741   0.0000       3.822708       104.0212 
 742   0.0000       3.833034       104.3022 
 743   0.0000       3.841498       104.5325 
 744   0.0000       3.853871       104.8692 
 745   0.0000       3.861002       105.0632 
 746   0.0000       3.862501       105.1040 
 747   0.0000       3.867785       105.2478 
 748   0.0000       3.874044       105.4181 
 749   0.0000       3.885463       105.7288 
 750   0.0000       3.891565       105.8949 
 751   0.0000       3.905958       106.2865 
 752   0.0000       3.908387       106.3526 
 753   0.0000       3.914257       106.5124 
 754   0.0000       3.923028       106.7510 
 755   0.0000       3.930295       106.9488 
 756   0.0000       3.940215       107.2187 
 757   0.0000       3.946166       107.3806 
 758   0.0000       3.954039       107.5949 
 759   0.0000       3.955160       107.6254 
 760   0.0000       3.965286       107.9009 
 761   0.0000       3.969545       108.0168 
 762   0.0000       3.982081       108.3579 
 763   0.0000       3.991117       108.6038 
 764   0.0000       4.000740       108.8657 
 765   0.0000       4.005313       108.9901 
 766   0.0000       4.009119       109.0937 
 767   0.0000       4.013760       109.2200 
 768   0.0000       4.018833       109.3580 
 769   0.0000       4.025085       109.5281 
 770   0.0000       4.034867       109.7943 
 771   0.0000       4.044216       110.0487 
 772   0.0000       4.052684       110.2791 
 773   0.0000       4.055600       110.3585 
 774   0.0000       4.078088       110.9704 
 775   0.0000       4.080989       111.0493 
 776   0.0000       4.084777       111.1524 
 777   0.0000       4.093438       111.3881 
 778   0.0000       4.096563       111.4732 
 779   0.0000       4.099768       111.5604 
 780   0.0000       4.107154       111.7614 
 781   0.0000       4.116685       112.0207 
 782   0.0000       4.119983       112.1104 
 783   0.0000       4.138159       112.6050 
 784   0.0000       4.143564       112.7521 
 785   0.0000       4.158096       113.1475 
 786   0.0000       4.167853       113.4130 
 787   0.0000       4.170753       113.4920 
 788   0.0000       4.186094       113.9094 
 789   0.0000       4.187609       113.9506 
 790   0.0000       4.198059       114.2350 
 791   0.0000       4.200565       114.3032 
 792   0.0000       4.212054       114.6158 
 793   0.0000       4.219975       114.8314 
 794   0.0000       4.230069       115.1060 
 795   0.0000       4.233842       115.2087 
 796   0.0000       4.248662       115.6120 
 797   0.0000       4.255323       115.7932 
 798   0.0000       4.265561       116.0718 
 799   0.0000       4.276076       116.3580 
 800   0.0000       4.286986       116.6548 
 801   0.0000       4.291829       116.7866 
 802   0.0000       4.305658       117.1629 
 803   0.0000       4.310762       117.3018 
 804   0.0000       4.318614       117.5154 
 805   0.0000       4.321693       117.5992 
 806   0.0000       4.326887       117.7406 
 807   0.0000       4.337101       118.0185 
 808   0.0000       4.341269       118.1319 
 809   0.0000       4.356050       118.5341 
 810   0.0000       4.369786       118.9079 
 811   0.0000       4.378492       119.1448 
 812   0.0000       4.386407       119.3602 
 813   0.0000       4.393613       119.5563 
 814   0.0000       4.413125       120.0872 
 815   0.0000       4.424263       120.3903 
 816   0.0000       4.436385       120.7202 
 817   0.0000       4.443241       120.9067 
 818   0.0000       4.451694       121.1367 
 819   0.0000       4.452205       121.1506 
 820   0.0000       4.462943       121.4428 
 821   0.0000       4.477914       121.8502 
 822   0.0000       4.484069       122.0177 
 823   0.0000       4.491586       122.2223 
 824   0.0000       4.508686       122.6876 
 825   0.0000       4.518178       122.9459 
 826   0.0000       4.527957       123.2120 
 827   0.0000       4.535474       123.4165 
 828   0.0000       4.546667       123.7211 
 829   0.0000       4.551783       123.8603 
 830   0.0000       4.563103       124.1683 
 831   0.0000       4.579387       124.6115 
 832   0.0000       4.586489       124.8047 
 833   0.0000       4.596052       125.0649 
 834   0.0000       4.607181       125.3678 
 835   0.0000       4.610219       125.4504 
 836   0.0000       4.622938       125.7965 
 837   0.0000       4.633385       126.0808 
 838   0.0000       4.646999       126.4513 
 839   0.0000       4.658666       126.7687 
 840   0.0000       4.684774       127.4792 
 841   0.0000       4.695700       127.7765 
 842   0.0000       4.699646       127.8839 
 843   0.0000       4.706493       128.0702 
 844   0.0000       4.725066       128.5756 
 845   0.0000       4.735560       128.8611 
 846   0.0000       4.745072       129.1200 
 847   0.0000       4.748325       129.2085 
 848   0.0000       4.755874       129.4139 
 849   0.0000       4.777259       129.9958 
 850   0.0000       4.783871       130.1758 
 851   0.0000       4.790571       130.3581 
 852   0.0000       4.799366       130.5974 
 853   0.0000       4.807553       130.8202 
 854   0.0000       4.816522       131.0642 
 855   0.0000       4.836821       131.6166 
 856   0.0000       4.842402       131.7685 
 857   0.0000       4.846781       131.8876 
 858   0.0000       4.873097       132.6037 
 859   0.0000       4.881922       132.8439 
 860   0.0000       4.894096       133.1751 
 861   0.0000       4.896203       133.2325 
 862   0.0000       4.913076       133.6916 
 863   0.0000       4.930419       134.1635 
 864   0.0000       4.945250       134.5671 
 865   0.0000       4.955290       134.8403 
 866   0.0000       4.966455       135.1441 
 867   0.0000       4.969819       135.2356 
 868   0.0000       4.982272       135.5745 
 869   0.0000       4.986711       135.6953 
 870   0.0000       4.993463       135.8790 
 871   0.0000       5.018744       136.5670 
 872   0.0000       5.029392       136.8567 
 873   0.0000       5.034006       136.9823 
 874   0.0000       5.050474       137.4304 
 875   0.0000       5.056886       137.6049 
 876   0.0000       5.066906       137.8775 
 877   0.0000       5.076013       138.1253 
 878   0.0000       5.102858       138.8558 
 879   0.0000       5.106782       138.9626 
 880   0.0000       5.116394       139.2242 
 881   0.0000       5.119854       139.3183 
 882   0.0000       5.147806       140.0789 
 883   0.0000       5.160094       140.4133 
 884   0.0000       5.167256       140.6082 
 885   0.0000       5.177307       140.8817 
 886   0.0000       5.191028       141.2551 
 887   0.0000       5.202510       141.5675 
 888   0.0000       5.209949       141.7699 
 889   0.0000       5.228411       142.2723 
 890   0.0000       5.237975       142.5326 
 891   0.0000       5.253713       142.9608 
 892   0.0000       5.263358       143.2233 
 893   0.0000       5.273990       143.5126 
 894   0.0000       5.283947       143.7835 
 895   0.0000       5.288726       143.9136 
 896   0.0000       5.291988       144.0023 
 897   0.0000       5.335922       145.1978 
 898   0.0000       5.342530       145.3776 
 899   0.0000       5.362639       145.9248 
 900   0.0000       5.369773       146.1190 
 901   0.0000       5.378164       146.3473 
 902   0.0000       5.395499       146.8190 
 903   0.0000       5.399604       146.9307 
 904   0.0000       5.408154       147.1634 
 905   0.0000       5.419891       147.4827 
 906   0.0000       5.440656       148.0478 
 907   0.0000       5.450397       148.3129 
 908   0.0000       5.459826       148.5694 
 909   0.0000       5.475822       149.0047 
 910   0.0000       5.489935       149.3887 
 911   0.0000       5.492504       149.4586 
 912   0.0000       5.505744       149.8189 
 913   0.0000       5.525314       150.3514 
 914   0.0000       5.538444       150.7087 
 915   0.0000       5.543780       150.8539 
 916   0.0000       5.558084       151.2432 
 917   0.0000       5.571634       151.6119 
 918   0.0000       5.584648       151.9660 
 919   0.0000       5.590977       152.1382 
 920   0.0000       5.613994       152.7646 
 921   0.0000       5.619260       152.9078 
 922   0.0000       5.637970       153.4170 
 923   0.0000       5.643625       153.5708 
 924   0.0000       5.656500       153.9212 
 925   0.0000       5.666575       154.1953 
 926   0.0000       5.677401       154.4899 
 927   0.0000       5.681502       154.6015 
 928   0.0000       5.688951       154.8042 
 929   0.0000       5.704507       155.2275 
 930   0.0000       5.710067       155.3788 
 931   0.0000       5.731942       155.9741 
 932   0.0000       5.746674       156.3749 
 933   0.0000       5.749602       156.4546 
 934   0.0000       5.756564       156.6441 
 935   0.0000       5.776413       157.1842 
 936   0.0000       5.793797       157.6572 
 937   0.0000       5.803888       157.9318 
 938   0.0000       5.816991       158.2884 
 939   0.0000       5.834719       158.7708 
 940   0.0000       5.851711       159.2331 
 941   0.0000       5.877943       159.9469 
 942   0.0000       5.889589       160.2639 
 943   0.0000       5.908042       160.7660 
 944   0.0000       5.934598       161.4886 
 945   0.0000       5.964363       162.2986 
 946   0.0000       6.026777       163.9969 
 947   0.0000       6.061187       164.9333 
 948   0.0000       6.083249       165.5336 
 949   0.0000       6.125314       166.6783 
 950   0.0000       6.145975       167.2405 
 951   0.0000       6.156046       167.5145 
 952   0.0000       6.181374       168.2037 
 953   0.0000       6.191849       168.4888 
 954   0.0000       6.221797       169.3037 
 955   0.0000       6.228198       169.4779 
 956   0.0000       6.247172       169.9942 
 957   0.0000       6.255170       170.2118 
 958   0.0000       6.259325       170.3249 
 959   0.0000       6.295658       171.3136 
 960   0.0000       6.306468       171.6077 
 961   0.0000       6.316423       171.8786 
 962   0.0000       6.333287       172.3375 
 963   0.0000       6.353514       172.8879 
 964   0.0000       6.355836       172.9511 
 965   0.0000       6.366599       173.2440 
 966   0.0000       6.395622       174.0337 
 967   0.0000       6.418092       174.6452 
 968   0.0000       6.469939       176.0560 
 969   0.0000       6.515257       177.2891 
 970   0.0000       6.542078       178.0190 
 971   0.0000       6.667041       181.4194 
 972   0.0000       6.812402       185.3749 
 973   0.0000       6.852713       186.4718 
 974   0.0000       6.881512       187.2555 
 975   0.0000       6.901910       187.8105 
 976   0.0000       6.920152       188.3069 
 977   0.0000       6.937533       188.7799 
 978   0.0000       6.963488       189.4861 
 979   0.0000       6.982574       190.0055 
 980   0.0000       7.007122       190.6735 
 981   0.0000       7.029187       191.2739 
 982   0.0000       7.043945       191.6755 
 983   0.0000       7.059649       192.1028 
 984   0.0000       7.120863       193.7685 
 985   0.0000       7.168686       195.0699 
 986   0.0000       7.283435       198.1923 
 987   0.0000       7.353025       200.0860 
 988   0.0000       7.368098       200.4961 
 989   0.0000       7.462299       203.0595 
 990   0.0000       7.546235       205.3435 
 991   0.0000       7.597540       206.7396 
 992   0.0000       7.634319       207.7404 
 993   0.0000       7.736901       210.5318 
 994   0.0000       7.772350       211.4964 
 995   0.0000       7.906324       215.1420 
 996   0.0000       7.992278       217.4809 
 997   0.0000       8.107296       220.6108 
 998   0.0000       8.301369       225.8917 
 999   0.0000       9.431811       256.6526 
 1000   0.0000       9.443924       256.9822 
 1001   0.0000       9.452751       257.2224 
 1002   0.0000       9.463207       257.5070 
 1003   0.0000       9.472461       257.7588 
 1004   0.0000       9.501255       258.5423 
 1005   0.0000       9.717447       264.4252 
 1006   0.0000      10.100029       274.8358 
 1007   0.0000      10.110141       275.1109 
 1008   0.0000      10.134332       275.7692 
 1009   0.0000      10.218638       278.0633 
 1010   0.0000      10.223297       278.1901 
 1011   0.0000      10.255010       279.0530 
 1012   0.0000      10.381414       282.4926 
 1013   0.0000      10.411385       283.3082 
 1014   0.0000      10.525834       286.4225 
 1015   0.0000      15.235190       414.5706 
 1016   0.0000      17.275552       470.0917 
 1017   0.0000      18.125204       493.2119 
 1018   0.0000      18.431122       501.5363 
 1019   0.0000      18.568591       505.2771 
 1020   0.0000      18.957312       515.8547 
 1021   0.0000      19.059661       518.6397 
 1022   0.0000      19.807561       538.9911 
 1023   0.0000      20.531013       558.6773 
 1024   0.0000      21.803004       593.2899 

                 SPIN DOWN ORBITALS
  NO   OCC          E(Eh)            E(eV) 
   0   1.0000    -261.552503     -7117.2054 
   1   1.0000    -104.777011     -2851.1274 
   2   1.0000    -104.774484     -2851.0587 
   3   1.0000    -104.773896     -2851.0426 
   4   1.0000     -32.061830      -872.4467 
   5   1.0000     -27.539798      -749.3960 
   6   1.0000     -27.539729      -749.3941 
   7   1.0000     -27.539424      -749.3858 
   8   1.0000     -20.571810      -559.7874 
   9   1.0000     -11.397416      -310.1395 
  10   1.0000     -11.336099      -308.4709 
  11   1.0000     -11.279621      -306.9341 
  12   1.0000     -11.272441      -306.7387 
  13   1.0000     -11.262157      -306.4589 
  14   1.0000     -11.259448      -306.3852 
  15   1.0000     -11.256401      -306.3022 
  16   1.0000     -11.246173      -306.0239 
  17   1.0000     -10.503567      -285.8166 
  18   1.0000     -10.501015      -285.7471 
  19   1.0000     -10.500396      -285.7303 
  20   1.0000      -7.969468      -216.8602 
  21   1.0000      -7.968822      -216.8427 
  22   1.0000      -7.968761      -216.8410 
  23   1.0000      -7.966919      -216.7909 
  24   1.0000      -7.966373      -216.7760 
  25   1.0000      -7.966274      -216.7733 
  26   1.0000      -7.966179      -216.7707 
  27   1.0000      -7.965612      -216.7553 
  28   1.0000      -7.965514      -216.7527 
  29   1.0000      -4.136816      -112.5685 
  30   1.0000      -2.658503       -72.3416 
  31   1.0000      -2.658439       -72.3398 
  32   1.0000      -2.657832       -72.3233 
  33   1.0000      -1.405735       -38.2520 
  34   1.0000      -1.167545       -31.7705 
  35   1.0000      -1.080364       -29.3982 
  36   1.0000      -1.040923       -28.3250 
  37   1.0000      -1.035019       -28.1643 
  38   1.0000      -1.023352       -27.8468 
  39   1.0000      -1.021545       -27.7977 
  40   1.0000      -0.995754       -27.0958 
  41   1.0000      -0.988716       -26.9043 
  42   1.0000      -0.918991       -25.0070 
  43   1.0000      -0.808226       -21.9930 
  44   1.0000      -0.761869       -20.7315 
  45   1.0000      -0.692554       -18.8454 
  46   1.0000      -0.686350       -18.6765 
  47   1.0000      -0.678577       -18.4650 
  48   1.0000      -0.670664       -18.2497 
  49   1.0000      -0.650490       -17.7007 
  50   1.0000      -0.625323       -17.0159 
  51   1.0000      -0.603786       -16.4298 
  52   1.0000      -0.594847       -16.1866 
  53   1.0000      -0.586442       -15.9579 
  54   1.0000      -0.578213       -15.7340 
  55   1.0000      -0.569653       -15.5010 
  56   1.0000      -0.566455       -15.4140 
  57   1.0000      -0.559583       -15.2270 
  58   1.0000      -0.543396       -14.7866 
  59   1.0000      -0.532247       -14.4832 
  60   1.0000      -0.523280       -14.2392 
  61   1.0000      -0.506814       -13.7911 
  62   1.0000      -0.478692       -13.0259 
  63   1.0000      -0.468759       -12.7556 
  64   1.0000      -0.466795       -12.7021 
  65   1.0000      -0.439683       -11.9644 
  66   1.0000      -0.436643       -11.8817 
  67   1.0000      -0.434549       -11.8247 
  68   1.0000      -0.421743       -11.4762 
  69   1.0000      -0.414561       -11.2808 
  70   1.0000      -0.400024       -10.8852 
  71   1.0000      -0.382850       -10.4179 
  72   0.0000       0.007768         0.2114 
  73   0.0000       0.019659         0.5350 
  74   0.0000       0.020494         0.5577 
  75   0.0000       0.024118         0.6563 
  76   0.0000       0.030954         0.8423 
  77   0.0000       0.039185         1.0663 
  78   0.0000       0.040179         1.0933 
  79   0.0000       0.041723         1.1354 
  80   0.0000       0.044298         1.2054 
  81   0.0000       0.046627         1.2688 
  82   0.0000       0.056887         1.5480 
  83   0.0000       0.057442         1.5631 
  84   0.0000       0.060387         1.6432 
  85   0.0000       0.063363         1.7242 
  86   0.0000       0.065245         1.7754 
  87   0.0000       0.073427         1.9981 
  88   0.0000       0.075118         2.0441 
  89   0.0000       0.083135         2.2622 
  90   0.0000       0.086908         2.3649 
  91   0.0000       0.089714         2.4412 
  92   0.0000       0.092676         2.5218 
  93   0.0000       0.095574         2.6007 
  94   0.0000       0.097896         2.6639 
  95   0.0000       0.104027         2.8307 
  96   0.0000       0.104286         2.8378 
  97   0.0000       0.115518         3.1434 
  98   0.0000       0.116846         3.1795 
  99   0.0000       0.118090         3.2134 
 100   0.0000       0.120547         3.2803 
 101   0.0000       0.123193         3.3523 
 102   0.0000       0.123857         3.3703 
 103   0.0000       0.124354         3.3839 
 104   0.0000       0.128106         3.4860 
 105   0.0000       0.128736         3.5031 
 106   0.0000       0.130407         3.5486 
 107   0.0000       0.133368         3.6291 
 108   0.0000       0.135392         3.6842 
 109   0.0000       0.136613         3.7174 
 110   0.0000       0.141136         3.8405 
 111   0.0000       0.144719         3.9380 
 112   0.0000       0.146182         3.9778 
 113   0.0000       0.150334         4.0908 
 114   0.0000       0.152130         4.1397 
 115   0.0000       0.155401         4.2287 
 116   0.0000       0.158285         4.3071 
 117   0.0000       0.161107         4.3839 
 118   0.0000       0.161710         4.4003 
 119   0.0000       0.164664         4.4807 
 120   0.0000       0.165522         4.5041 
 121   0.0000       0.170698         4.6449 
 122   0.0000       0.174699         4.7538 
 123   0.0000       0.178378         4.8539 
 124   0.0000       0.179827         4.8933 
 125   0.0000       0.182744         4.9727 
 126   0.0000       0.190289         5.1780 
 127   0.0000       0.191878         5.2213 
 128   0.0000       0.193986         5.2786 
 129   0.0000       0.199306         5.4234 
 130   0.0000       0.202203         5.5022 
 131   0.0000       0.207182         5.6377 
 132   0.0000       0.211782         5.7629 
 133   0.0000       0.216390         5.8883 
 134   0.0000       0.217883         5.9289 
 135   0.0000       0.219593         5.9754 
 136   0.0000       0.224227         6.1015 
 137   0.0000       0.226102         6.1526 
 138   0.0000       0.229057         6.2330 
 139   0.0000       0.230504         6.2723 
 140   0.0000       0.232804         6.3349 
 141   0.0000       0.238520         6.4905 
 142   0.0000       0.241702         6.5771 
 143   0.0000       0.246389         6.7046 
 144   0.0000       0.249478         6.7887 
 145   0.0000       0.256499         6.9797 
 146   0.0000       0.257827         7.0158 
 147   0.0000       0.262566         7.1448 
 148   0.0000       0.263213         7.1624 
 149   0.0000       0.266380         7.2486 
 150   0.0000       0.273102         7.4315 
 151   0.0000       0.279261         7.5991 
 152   0.0000       0.282230         7.6799 
 153   0.0000       0.288455         7.8493 
 154   0.0000       0.291088         7.9209 
 155   0.0000       0.295620         8.0442 
 156   0.0000       0.297319         8.0905 
 157   0.0000       0.301087         8.1930 
 158   0.0000       0.302389         8.2284 
 159   0.0000       0.309452         8.4206 
 160   0.0000       0.313966         8.5435 
 161   0.0000       0.315248         8.5783 
 162   0.0000       0.318515         8.6672 
 163   0.0000       0.324327         8.8254 
 164   0.0000       0.326984         8.8977 
 165   0.0000       0.331431         9.0187 
 166   0.0000       0.335855         9.1391 
 167   0.0000       0.339107         9.2276 
 168   0.0000       0.339430         9.2364 
 169   0.0000       0.343703         9.3526 
 170   0.0000       0.346460         9.4276 
 171   0.0000       0.352175         9.5832 
 172   0.0000       0.354290         9.6407 
 173   0.0000       0.356571         9.7028 
 174   0.0000       0.362119         9.8538 
 175   0.0000       0.362745         9.8708 
 176   0.0000       0.369867        10.0646 
 177   0.0000       0.370458        10.0807 
 178   0.0000       0.373416        10.1612 
 179   0.0000       0.377154        10.2629 
 180   0.0000       0.381873        10.3913 
 181   0.0000       0.387805        10.5527 
 182   0.0000       0.388362        10.5679 
 183   0.0000       0.391302        10.6479 
 184   0.0000       0.395350        10.7580 
 185   0.0000       0.401912        10.9366 
 186   0.0000       0.402042        10.9401 
 187   0.0000       0.405156        11.0249 
 188   0.0000       0.406837        11.0706 
 189   0.0000       0.409360        11.1392 
 190   0.0000       0.413952        11.2642 
 191   0.0000       0.416180        11.3248 
 192   0.0000       0.419950        11.4274 
 193   0.0000       0.426172        11.5967 
 194   0.0000       0.430799        11.7226 
 195   0.0000       0.434636        11.8271 
 196   0.0000       0.435401        11.8479 
 197   0.0000       0.438924        11.9437 
 198   0.0000       0.444001        12.0819 
 199   0.0000       0.449251        12.2247 
 200   0.0000       0.452708        12.3188 
 201   0.0000       0.455460        12.3937 
 202   0.0000       0.456049        12.4097 
 203   0.0000       0.462587        12.5876 
 204   0.0000       0.465176        12.6581 
 205   0.0000       0.468552        12.7500 
 206   0.0000       0.471410        12.8277 
 207   0.0000       0.476975        12.9791 
 208   0.0000       0.478209        13.0127 
 209   0.0000       0.485033        13.1984 
 210   0.0000       0.487057        13.2535 
 211   0.0000       0.492245        13.3947 
 212   0.0000       0.494418        13.4538 
 213   0.0000       0.497304        13.5323 
 214   0.0000       0.501619        13.6497 
 215   0.0000       0.502978        13.6867 
 216   0.0000       0.505380        13.7521 
 217   0.0000       0.509050        13.8520 
 218   0.0000       0.511622        13.9219 
 219   0.0000       0.514116        13.9898 
 220   0.0000       0.516110        14.0441 
 221   0.0000       0.520703        14.1691 
 222   0.0000       0.527272        14.3478 
 223   0.0000       0.529503        14.4085 
 224   0.0000       0.531649        14.4669 
 225   0.0000       0.532708        14.4957 
 226   0.0000       0.535420        14.5695 
 227   0.0000       0.540686        14.7128 
 228   0.0000       0.541707        14.7406 
 229   0.0000       0.547122        14.8880 
 230   0.0000       0.547423        14.8961 
 231   0.0000       0.550985        14.9931 
 232   0.0000       0.555298        15.1104 
 233   0.0000       0.557772        15.1777 
 234   0.0000       0.561904        15.2902 
 235   0.0000       0.565120        15.3777 
 236   0.0000       0.572616        15.5817 
 237   0.0000       0.575647        15.6642 
 238   0.0000       0.578999        15.7554 
 239   0.0000       0.579783        15.7767 
 240   0.0000       0.583517        15.8783 
 241   0.0000       0.584286        15.8992 
 242   0.0000       0.589986        16.0543 
 243   0.0000       0.590264        16.0619 
 244   0.0000       0.598740        16.2926 
 245   0.0000       0.602210        16.3870 
 246   0.0000       0.609402        16.5827 
 247   0.0000       0.612080        16.6555 
 248   0.0000       0.614704        16.7269 
 249   0.0000       0.616520        16.7764 
 250   0.0000       0.619395        16.8546 
 251   0.0000       0.622123        16.9288 
 252   0.0000       0.626656        17.0522 
 253   0.0000       0.630967        17.1695 
 254   0.0000       0.634574        17.2676 
 255   0.0000       0.637939        17.3592 
 256   0.0000       0.647772        17.6268 
 257   0.0000       0.653601        17.7854 
 258   0.0000       0.654356        17.8059 
 259   0.0000       0.658139        17.9089 
 260   0.0000       0.664065        18.0701 
 261   0.0000       0.670493        18.2450 
 262   0.0000       0.675444        18.3798 
 263   0.0000       0.675866        18.3913 
 264   0.0000       0.679686        18.4952 
 265   0.0000       0.680602        18.5201 
 266   0.0000       0.689347        18.7581 
 267   0.0000       0.693080        18.8597 
 268   0.0000       0.699283        19.0285 
 269   0.0000       0.701996        19.1023 
 270   0.0000       0.705745        19.2043 
 271   0.0000       0.710169        19.3247 
 272   0.0000       0.716237        19.4898 
 273   0.0000       0.722580        19.6624 
 274   0.0000       0.723278        19.6814 
 275   0.0000       0.724289        19.7089 
 276   0.0000       0.730385        19.8748 
 277   0.0000       0.736803        20.0494 
 278   0.0000       0.738983        20.1087 
 279   0.0000       0.740631        20.1536 
 280   0.0000       0.749866        20.4049 
 281   0.0000       0.755659        20.5625 
 282   0.0000       0.762632        20.7523 
 283   0.0000       0.765602        20.8331 
 284   0.0000       0.771044        20.9812 
[...]
  | sigma^2 in % of trace(Dij) retained ...   9.07e+00
  | sigma^2 in % of trace(Dip) retained ...   1.66e+01
  | sigma^2 in % of trace(Dpq) retained ...   1.33e-01
  | Av. % of trace(Di) retained         ...  99.998527460858
  | Av. % of trace(Dp) retained         ...  99.999998719376
  | sigma^2 in % of trace(Di) retained  ...   7.30e-07
  | sigma^2 in % of trace(Dp) retained  ...   3.36e-12
 Distributions of % trace(Dij) recovered:
  |       >= 99.9  ...   104 ( 21.2 % of all IJ-pairs)
  |   [80.0, 90.0) ...    31 (  6.3 % of all IJ-pairs)
  |   [90.0, 99.0) ...   262 ( 53.5 % of all IJ-pairs)
  |   [99.0, 99.9) ...    93 ( 19.0 % of all IJ-pairs)
 Distributions of % trace(Dip) recovered:
  |   [80.0, 90.0) ...    14 ( 12.0 % of all IP-pairs)
  |   [90.0, 99.0) ...    61 ( 52.1 % of all IP-pairs)
  |   [99.0, 99.9) ...    42 ( 35.9 % of all IP-pairs)
 Distributions of % trace(Dpq) recovered:
  |       >= 99.9  ...     5 ( 33.3 % of all PQ-pairs)
  |   [99.0, 99.9) ...    10 ( 66.7 % of all PQ-pairs)
 Distributions of % trace(Di) recovered :
  |       >= 99.9  ...    43 (100.0 % of all I-pairs )
 Distributions of % trace(Dp) recovered :
  |       >= 99.9  ...     5 (100.0 % of all P-pairs )

                       ===========================
                       1079 OF 1649 PAIRS ARE KEPT
                       ===========================

 Initial PAO correlation energy (all pairs)    ...  -2.6979652476 Eh
 Energy constituents in PAO basis (Eh):
  | Vijab(+0) ...  -2.2697397238
  | Viab (-1) ...  -0.1747267664
  | Vab  (-2) ...  -0.0573587241
  | Va   (-1) ...  -0.0000455706
  | Vija (+1) ...  -0.0720801433
  | Vij  (+2) ...  -0.0155132093
  | Via  (+0) ...  -0.1083399492
  | Vi   (+1) ...  -0.0001611609
 Initial PNO correlation energy                ...  -2.6634880059 Eh
 Energy constituents in PNO basis (Eh):
  | Vijab(+0) ...  -2.2510812375 (err=  0.0186584863)
  | Viab (-1) ...  -0.1605365524 (err=  0.0141902140)
  | Vab  (-2) ...  -0.0569066121 (err=  0.0004521120)
  | Va   (-1) ...  -0.0000258044 (err=  0.0000197662)
  | Vija (+1) ...  -0.0710736280 (err=  0.0010065153)
  | Vij  (+2) ...  -0.0154573688 (err=  0.0000558405)
  | Via  (+0) ...  -0.1082460975 (err=  0.0000938517)
  | Vi   (+1) ...  -0.0001607052 (err=  0.0000004557)
 Sum of total truncation errors ...   0.0344772417 Eh
  | Pair screening ...   0.0115143181 Eh
  | PNO truncation ...   0.0229629236 Eh

 UMP2 correlation energy (PAO) ...  -2.6930481610
  | alpha-alpha ...  -0.3875122897 (NP_aa=  890)
  | alpha-beta  ...  -1.9976278862 (NP_ab= 1624)
  | beta -beta  ...  -0.3079079851 (NP_bb=  701)
 UMP2 correlation energy (PNO) ...  -2.6581848558
  | alpha-alpha ...  -0.3754660593 (err=  0.0120462304, NP_aa=  574)
  | alpha-beta  ...  -1.9788716150 (err=  0.0187562712, NP_ab= 1054)
  | beta -beta  ...  -0.3038471815 (err=  0.0040608036, NP_bb=  447)
 Sum of total UMP2 truncation errors ...   0.0348633052 Eh
  | Pair screening ...   0.0115325628 Eh
  | PNO truncation ...   0.0233307424 Eh
 Timing for NEV-PNO construction (sec.)
  | Intermediate construction  ..           49.026
  | Amplitude construction     ..           68.112
  | Total time                 ..          117.138
 Making pair pair interaction lists ...      ok
 Total size for 2-ext PNO integrals ...     10.9 MB
Checking the number of SOMO/SOMO doubles PNOs ... 
 #Truncate: (72, 72)[155] -> [87] .. 
 #Truncate: (73, 73)[158] -> [87] .. 
 #Truncate: (74, 74)[158] -> [87] .. 
 #Truncate: (75, 75)[159] -> [87] .. 
 #Truncate: (76, 76)[158] -> [87] .. 

--------------------------------
LOCAL RI TRANSFORMATION (VABPAO)
--------------------------------

Number of PAOs:    1030
Basis functions:   1025 (343 shells)
Aux. functions:    2424 (644 shells)

Processing maps (0.0 sec)
Average map sizes:
   Aux shells -> PAOs           1030.0
   PAOs       -> AO shells       343.0

Calculating integrals (187.8 sec, 37370.165 MB)
Finished
-----------------------------
LOCAL RI TRANSFORMATION (IJV)
-----------------------------

Orbital window:      29 to 76
Basis functions:   1025 (343 shells)
Aux. functions:    2424 (644 shells)

Processing maps (0.0 sec)
Average map sizes:
   Aux shells -> MOs(i)           45.7
   Aux shells -> MOs(j)           48.0
   MOs        -> AO shells       339.4

Calculating integrals (22.3 sec, 40.687 MB)
Sorting integrals (0.3 sec, 40.660 MB)
Total time for the integral transformation: 22.6 sec


-------------------------------------
Pair Pair Term precalculation with     
RI-(ij|mn) and (im|jn) transformation  
ON THE FLY                             
-------------------------------------

   IBatch   1 (of   2)              ... done ( 1056.951 sec)
   IBatch   2 (of   2)              ... done ( 1042.406 sec)
Total EXT                           ...        2099.357 sec

---------------------
RI-PNO TRANSFORMATION
---------------------

Total Number of PNOs                   ... 34359
Total Number of IJ-PNOs                ... 30184
Total Number of IP-PNOs                ...  3212
Total Number of PQ-PNOs                ...   963
Total Number of IJ-pairs               ...   937
Total Number of PI-pairs               ...   117
Total Number of PQ-pairs               ...    25
Average number of PNOs per pair        ...    31
Maximal number of PNOs per pair        ...    87
>> Statistics for ij-pairs..
   #pairs with  1 -  5 PNOs   :    0
   #pairs with  6 - 10 PNOs   :    0
   #pairs with 11 - 15 PNOs   :   40
   #pairs with 16 - 20 PNOs   :  214
   #pairs with 21 - 25 PNOs   :  152
   #pairs with 26 - 30 PNOs   :  168
   #pairs with 31 - 35 PNOs   :   64
   #pairs with 36 - 40 PNOs   :   50
   #pairs with 41 - 45 PNOs   :   44
   #pairs with 46 - 50 PNOs   :   32
   #pairs with 51 - 55 PNOs   :   33
   #pairs with 56 - 60 PNOs   :   59
   #pairs with 61 - 65 PNOs   :   70
   #pairs with 66 - 70 PNOs   :    8
   #pairs with 76 - 80 PNOs   :    3
>> Statistics for ip-pairs..
   #pairs with  1 -  5 PNOs   :    0
   #pairs with  6 - 10 PNOs   :    1
   #pairs with 11 - 15 PNOs   :   15
   #pairs with 16 - 20 PNOs   :    3
   #pairs with 21 - 25 PNOs   :   27
   #pairs with 26 - 30 PNOs   :   13
   #pairs with 31 - 35 PNOs   :   45
   #pairs with 36 - 40 PNOs   :   13
   #pairs with 41 - 45 PNOs   :    0
   #pairs with 46 - 50 PNOs   :    0
>> Statistics for pq-pairs..
   #pairs with  1 -  5 PNOs   :    0
   #pairs with  6 - 10 PNOs   :    0
   #pairs with 11 - 15 PNOs   :    0
   #pairs with 16 - 20 PNOs   :    0
   #pairs with 21 - 25 PNOs   :   10
   #pairs with 26 - 30 PNOs   :   10
   #pairs with 31 - 35 PNOs   :    0
   #pairs with 36 - 40 PNOs   :    0
   #pairs with 41 - 45 PNOs   :    0
   #pairs with 46 - 50 PNOs   :    0
   #pairs with 86 - 90 PNOs   :    5

Generation of (ij|ab)[P] integrals            ... on
Generation of (ia|bc)[P],(ja|bc)[P] integrals ... on
Storage of 3 and 4 external integrals         ... on
Generation of ALL (ka|bc)[P] integrals        ... on
Keep RI integrals in memory                   ... off

Ibatch:  1 (of  1)
Starting 2-4 index PNO integral generation ... done

Timings:
Total PNO integral transformation time     ...       1936.290 sec
Size of the 3-external file                ...       293 MB
Size of the 4-external file                ...      2015 MB
Size of the IKJL file                      ...        17 MB
Size of the all 3-external file            ...      7051 MB
Size of the 1-external file                ...        22 MB

Size of the PAO/PNO coefficient matrices   ...     219.2 MB

Making pair/pair overlap matrices          ... done (  293.168 sec)
Size of the pair overlap file              ...    2420.0 MB
Total # unrestricted pairs ...       2075
  # of alpha-alpha pairs   ...        574
  # of alpha-beta pairs    ...       1054
  # of beta-beta pairs     ...        447
Constructing the guess amplitudes          ... done (    0.582 sec)

-------------------------
FINAL STARTUP INFORMATION
-------------------------

E(0)                                       ...  -3028.433055246
E(SL-UMP2 in NEV-PNO space)                ...     -2.694059708
Initial E(tot)                             ...  -3031.127114953
<T|T>                                      ...      0.538317314
Number of unrestricted pairs included      ... 2075
Total number of pairs                      ... 4095
----------------------------------------------------------
                     OPEN-SHELL COUPLED CLUSTER ITERATIONS
----------------------------------------------------------

Number of PNO amplitudes to be optimized        ...          2146945
Number of canonical amplitudes for strong pairs ...       1874141978
Untruncated number of canonical amplitudes      ...       3698645738

Iter       E(tot)           E(Corr)          Delta-E          Residual     Time
  0  -3031.134282158     -2.665352061      0.028707647      0.020682930 1514.61
                           *** Turning on DIIS ***
  1  -3031.244126243     -2.775196145     -0.109844085      0.009949134 1507.13
  2  -3031.308699047     -2.839768950     -0.064572804      0.008239096 1599.72
  3  -3031.329874851     -2.860944754     -0.021175804      0.002948476 1613.31
  4  -3031.337066795     -2.868136697     -0.007191944      0.002634453 1652.31
  5  -3031.340934819     -2.872004721     -0.003868024      0.001621142 1636.47
  6  -3031.342350309     -2.873420211     -0.001415490      0.000843746 1743.01
  7  -3031.343090215     -2.874160118     -0.000739906      0.000552904 1861.11
  8  -3031.343258986     -2.874328888     -0.000168771      0.000229994 1900.13
  9  -3031.343312923     -2.874382825     -0.000053937      0.000193783 1866.77
 10  -3031.343306491     -2.874376394      0.000006432      0.000094906 1858.23
 11  -3031.343318865     -2.874388768     -0.000012374      0.000075264 1885.29
 12  -3031.343325277     -2.874395180     -0.000006412      0.000029353 1925.75
 13  -3031.343327801     -2.874397703     -0.000002524      0.000014128 1918.93
 14  -3031.343329235     -2.874399137     -0.000001434      0.000007113 1872.39
               --- The CCSD iterations have converged ---

E(0)                                       ...  -3028.433055246
E(CORR)(strong-pairs)                      ...     -2.874399137
E(CORR)(weak-pairs)                        ...     -0.035874852
E(CORR)(corrected)                         ...     -2.910273989
E(TOT)                                     ...  -3031.343329235
Singles norm <S|S>**1/2                    ...      0.195941743 ( 0.067634127, 0.128307616)  
T1 diagnostic                              ...      0.020540276                              
<S**2>(linearized)                         ...      8.7508104 (ideal value:      8.7500000)

----------------------
LARGEST PNO AMPLITUDES
----------------------
  71a-> 77a  71b-> 77b       0.070705
  50b-> 73b  -1b-> -1b       0.053921
  51b-> 73b  -1b-> -1b       0.053903
  48b-> 72b  -1b-> -1b       0.052144
  71a-> 78a  71b-> 78b       0.050028
  44a-> 77a  -1a-> -1a       0.049772
  44b-> 77b  -1b-> -1b       0.047137
  48b-> 75b  -1b-> -1b       0.046517
  48b-> 74b  -1b-> -1b       0.045704
  62a-> 77a  62b-> 77b       0.045480
  66a-> 77a  66b-> 77b       0.045258
  70a-> 77a  70b-> 77b       0.043276
  61a-> 77a  61b-> 77b       0.042658
  37b-> 76b  -1b-> -1b       0.042656
  57a-> 78a  57b-> 78b       0.042618
  58a-> 77a  58b-> 77b       0.042528

Total # unrestricted pairs ...       1138
  # of alpha-alpha pairs   ...        315
  # of alpha-beta pairs    ...        569
  # of beta-beta pairs     ...        254

-------------------------------------------
DLPNO BASED TRIPLES CORRECTION
-------------------------------------------

Singles multiplier          ...  1.000000
Fragment selection                          .... not used
TCutTNO                     ... 1.000e-09
TCutMP2Pairs                ... 1.000e-05
TCutDOStrong                ... 2.000e-02
TCutMKNStrong               ... 1.000e-02
TCutDOWeak                  ... 4.000e-02
TCutMKNWeak                 ... 1.000e-01
NTCutTNO                    ... 1

Number of Triples that are to be computed         ...     32216

 . . . . . . . . .
10% done  
20% done  
30% done  
40% done  
50% done  
60% done  
70% done  
80% done  
90% done  
          Batch   1   done (  15057.768 sec)

Triples-Correction TCutTNO=   1.000e-09 (NWeakPairs = 0  1  2  3)  -0.118579515723   -0.002044176210    0.000000000000    0.000000000000
Triples-Correction  -0.120623691933

Triples timings:
Total time                      ... 15652.185 sec

Triples List generation         ...     0.000 sec
TNO generation                  ...   594.098 sec
Pair density generation         ...     0.101 sec
Look up tables                  ...     0.109 sec
Generating 3-index integrals    ...  9519.186 sec
Make 4-ind.int. from 3-ind.int  ...     3.595 sec
Projecting amplitudes (D + S)   ...  5271.032 sec
Sorting integrals for spin cases...    55.273 sec
Calculate W0/W1                 ...   166.568 sec
Energy contr. (sum over a,b,c)  ...    41.986 sec

Everything after 3-index        ...  5677.653 sec

Energy contribution AAA         ...    25.968 sec
Energy contribution AAB         ...   117.502 sec
Energy contribution ABB         ...   106.424 sec
Energy contribution BBB         ...    13.972 sec
prep                ...     3.289 sec
makeTTNO            ...  5215.643 sec
copyij              ...     0.130 sec
copyil              ...     4.286 sec
transposeij         ...     0.080 sec
newMatInDoubleProj  ...    53.530 sec
BlasInDoubleProj    ...  2812.538 sec
ProjSingles         ...    45.065 sec
ProjDoubles         ...  5225.967 sec
overall Doubles for projection      ... 2846877
used Doubles for projection         ... 2846877


Number of Triples   (0, 1, 2, 3 weak pairs; overall):  15843   10826       0       0  ( 26669)
Number of Atoms     (0, 1, 2, 3 weak pairs; overall):   19.0    14.8     0.0     0.0  (    29)
Number of PAOs      (0, 1, 2, 3 weak pairs; overall):  743.4   598.8     0.0     0.0  (  1025)
Number of AuxFcns   (0, 1, 2, 3 weak pairs; overall):  916.6   571.8     0.0     0.0  (  2424)
Number of TNOs (0, 1, 2, 3 weak pairs         ):   80.6    58.6     0.0     0.0
Aver. Number of NTNO, Atoms, PAOs, AuxFcns / Triples:  26669    71.7    17.3   684.7   776.6

Triples Correction (T)                     ...     -0.120623692
    alpha-alpha-alpha ... -0.003934515 (  3.3%)
    alpha-alpha-beta  ... -0.056613161 ( 46.9%)
    alpha-beta -beta  ... -0.055906496 ( 46.3%)
    beta -beta -beta  ... -0.004169521 (  3.5%)
Final correlation energy                   ...     -3.030897681
E(CCSD)                                    ...  -3031.343329235
E(CCSD(T))                                 ...  -3031.463952927

----------------------------
STATISTICS FOR PAIR-ENERGIES
----------------------------
Minimum, maximum and average ratios of UMP and CCSD pair-energies ... 0.50, 1.43, 1.02


------------------------------------------------------------------------------- 
                                     TIMINGS                                   
------------------------------------------------------------------------------- 


Total execution time                   ...    50088.198 sec

Localization of occupied MO's          ...       10.708 sec (  0.0%)
Fock Matrix Formation                  ...     1360.816 sec (  2.7%)
Differential overlap integrals         ...        1.377 sec (  0.0%)
Organizing maps                        ...        1.663 sec (  0.0%)
RI 3-index integral generations        ...      274.583 sec (  0.5%)
RI-PNO integral transformation         ...     4458.841 sec (  8.9%)
Initial Guess                          ...     1738.649 sec (  3.5%)
DIIS Solver                            ...       14.502 sec (  0.0%)
State Vector Update                    ...        0.715 sec (  0.0%)
Sigma-vector construction              ...    26355.153 sec ( 52.6%)
  <0|H|D>                              ...        0.029 sec (  0.0% of sigma)
  <D|H|D>(0-ext)                       ...     4923.798 sec ( 18.7% of sigma)
  <D|H|D>(2-ext Fock)                  ...        1.589 sec (  0.0% of sigma)
  <D|H|D>(2-ext)                       ...     3651.894 sec ( 13.9% of sigma)
  <D|H|D>(4-ext)                       ...      149.650 sec (  0.6% of sigma)
  <D|H|D>(4-ext-corr)                  ...      935.740 sec (  3.6% of sigma)
  CCSD doubles correction              ...      488.723 sec (  1.9% of sigma)
  <S|H|S>                              ...      646.497 sec (  2.5% of sigma)
  <S|H|D>(1-ext)                       ...      261.849 sec (  1.0% of sigma)
  <D|H|S>(1-ext)                       ...        0.739 sec (  0.0% of sigma)
  <S|H|D>(3-ext)                       ...       19.787 sec (  0.1% of sigma)
  CCSD singles correction              ...        0.004 sec (  0.0% of sigma)
  Fock-dressing                        ...     7655.429 sec ( 29.0% of sigma)
  Singles amplitudes                   ...      101.035 sec (  0.4% of sigma)
  (ik|jl)-dressing                     ...     5921.592 sec ( 22.5% of sigma)
  (ij|ab),(ia|jb)-dressing             ...     1433.551 sec (  5.4% of sigma)
  Pair energies                        ...        0.149 sec (  0.0% of sigma)
Total Time for computing (T)           ...    16204.153 sec ( 32.4% of ALL)


-------------------------   --------------------
FINAL SINGLE POINT ENERGY     -3031.463952926719
-------------------------   --------------------


                            ***************************************
                            *     ORCA property calculations      *
                            ***************************************

                                    ---------------------
                                    Active property flags
                                    ---------------------
   (+) Dipole Moment


------------------------------------------------------------------------------
                       ORCA ELECTRIC PROPERTIES CALCULATION
------------------------------------------------------------------------------

Dipole Moment Calculation                       ... on
Quadrupole Moment Calculation                   ... off
Polarizability Calculation                      ... off
GBWName                                         ... simple-grid-205-295-b3lyp_d3bj-631gd-gas-singlepoint-DLPNO_CCSD_T1-NormalPNO-augtz-gas.gbw
Electron density file                           ... simple-grid-205-295-b3lyp_d3bj-631gd-gas-singlepoint-DLPNO_CCSD_T1-NormalPNO-augtz-gas.scfp.tmp
The origin for moment calculation is the CENTER OF MASS  = ( 0.331358,  0.043962 -0.012608)

-------------
DIPOLE MOMENT
-------------
                                X             Y             Z
Electronic contribution:     44.45100       5.79571      -1.92046
Nuclear contribution   :    -49.37235      -6.55028       1.87855
                        -----------------------------------------
Total Dipole Moment    :     -4.92135      -0.75457      -0.04191
                        -----------------------------------------
Magnitude (a.u.)       :      4.97903
Magnitude (Debye)      :     12.65570



--------------------
Rotational spectrum 
--------------------
 
Rotational constants in cm-1:     0.020008     0.009968     0.009551 
Rotational constants in MHz :   599.815113   298.841198   286.316831 

 Dipole components along the rotational axes: 
x,y,z [a.u.] :    -4.923265     0.735518    -0.106070 
x,y,z [Debye]:   -12.513944     1.869538    -0.269610 

 

Timings for individual modules:

Sum of individual times         ...    65770.387 sec (=1096.173 min)
GTO integral calculation        ...       12.152 sec (=   0.203 min)   0.0 %
SCF iterations                  ...    15652.644 sec (= 260.877 min)  23.8 %
MDCI module                     ...    50105.592 sec (= 835.093 min)  76.2 %
                             ****ORCA TERMINATED NORMALLY****
TOTAL RUN TIME: 0 days 18 hours 16 minutes 12 seconds 943 msec
