
                                 *****************
                                 * O   R   C   A *
                                 *****************

           --- An Ab Initio, DFT and Semiempirical electronic structure package ---

                  #######################################################
                  #                        -***-                        #
                  #          Department of theory and spectroscopy      #
                  #               Directorship: Frank Neese             #
                  #        Max Planck Institute fuer Kohlenforschung    #
                  #                Kaiser Wilhelm Platz 1               #
                  #                 D-45470 Muelheim/Ruhr               #
                  #                      Germany                        #
                  #                                                     #
                  #                  All rights reserved                #
                  #                        -***-                        #
                  #######################################################


                         Program Version 4.1.2  - RELEASE  -


 With contributions from (in alphabetic order):
   Daniel Aravena         : Magnetic Properties
   Michael Atanasov       : Ab Initio Ligand Field Theory
   Alexander A. Auer      : GIAO ZORA
   Ute Becker             : Parallelization
   Giovanni Bistoni       : ED, Open-shell LED
   Martin Brehm           : Molecular dynamics
   Dmytro Bykov           : SCF Hessian
   Vijay G. Chilkuri      : MRCI spin determinant printing
   Dipayan Datta          : RHF DLPNO-CCSD density
   Achintya Kumar Dutta   : EOM-CC, STEOM-CC
   Dmitry Ganyushin       : Spin-Orbit,Spin-Spin,Magnetic field MRCI
   Miquel Garcia          : C-PCM Hessian
   Yang Guo               : DLPNO-NEVPT2, CIM, IAO-localization
   Andreas Hansen         : Spin unrestricted coupled pair/coupled cluster methods
   Benjamin Helmich-Paris : CASSCF linear response (MC-RPA)
   Lee Huntington         : MR-EOM, pCC
   Robert Izsak           : Overlap fitted RIJCOSX, COSX-SCS-MP3, EOM
   Christian Kollmar      : KDIIS, OOCD, Brueckner-CCSD(T), CCSD density
   Simone Kossmann        : Meta GGA functionals, TD-DFT gradient, OOMP2, MP2 Hessian
   Martin Krupicka        : AUTO-CI
   Lucas Lang             : DCDCAS
   Dagmar Lenk            : GEPOL surface, SMD
   Dimitrios Liakos       : Extrapolation schemes; parallel MDCI
   Dimitrios Manganas     : ROCIS; embedding schemes
   Dimitrios Pantazis     : SARC Basis sets
   Taras Petrenko         : DFT Hessian,TD-DFT gradient, ASA, ECA, R-Raman, ABS, FL, XAS/XES, NRVS
   Peter Pinski           : DLPNO-MP2, DLPNO-MP2 Gradient
   Christoph Reimann      : Effective Core Potentials
   Marius Retegan         : Local ZFS, SOC
   Christoph Riplinger    : Optimizer, TS searches, QM/MM, DLPNO-CCSD(T), (RO)-DLPNO pert. Triples
   Tobias Risthaus        : Range-separated hybrids, TD-DFT gradient, RPA, STAB
   Michael Roemelt        : Restricted open shell CIS
   Masaaki Saitow         : Open-shell DLPNO
   Barbara Sandhoefer     : DKH picture change effects
   Avijit Sen             : IP-ROCIS
   Kantharuban Sivalingam : CASSCF convergence, NEVPT2, FIC-MRCI
   Bernardo de Souza      : ESD, SOC TD-DFT
   Georgi Stoychev        : AutoAux, RI-MP2 NMR
   Willem Van den Heuvel  : Paramagnetic NMR
   Boris Wezisla          : Elementary symmetry handling
   Frank Wennmohs         : Technical directorship


 We gratefully acknowledge several colleagues who have allowed us to
 interface, adapt or use parts of their codes:
   Stefan Grimme, W. Hujo, H. Kruse,             : VdW corrections, initial TS optimization,
                  C. Bannwarth                     DFT functionals, gCP, sTDA/sTD-DF
   Ed Valeev                                     : LibInt (2-el integral package), F12 methods
   Garnet Chan, S. Sharma, J. Yang, R. Olivares  : DMRG
   Ulf Ekstrom                                   : XCFun DFT Library
   Mihaly Kallay                                 : mrcc  (arbitrary order and MRCC methods)
   Andreas Klamt, Michael Diedenhofen            : otool_cosmo (COSMO solvation model)
   Jiri Pittner, Ondrej Demel                    : Mk-CCSD
   Frank Weinhold                                : gennbo (NPA and NBO analysis)
   Christopher J. Cramer and Donald G. Truhlar   : smd solvation model
   Lars Goerigk                                  : TD-DFT with DH, B97 family of functionals
   V. Asgeirsson, H. Jonsson                     : NEB implementation
   FAccTs GmbH                                   : IRC, NEB, NEB-TS, Multilevel


 Your calculation uses the libint2 library for the computation of 2-el integrals
 For citations please refer to: http://libint.valeyev.net

 This ORCA versions uses:
   CBLAS   interface :  Fast vector & matrix operations
   LAPACKE interface :  Fast linear algebra routines
   SCALAPACK package :  Parallel linear algebra routines


----- Orbital basis set information -----
Your calculation utilizes the basis: aug-cc-pVTZ 
    H, B-Ne : Obtained from the ccRepo (grant-hill.group.shef.ac.uk/ccrepo) Feb. 2017
              R. A. Kendall, T. H. Dunning, Jr., R. J. Harrison, J. Chem. Phys. 96, 6796 (1992)
         He : Obtained from the ccRepo (grant-hill.group.shef.ac.uk/ccrepo) Feb. 2017
              D. E. Woon, T. H. Dunning, Jr., J. Chem. Phys. 100, 2975 (1994)
  Li-Be, Na : Obtained from the ccRepo (grant-hill.group.shef.ac.uk/ccrepo) Feb. 2017
              B. P. Prascher, D. E. Woon, K. A. Peterson, T. H. Dunning, Jr., A. K. Wilson, Theor. Chem. Acc. 128, 69 (2011)
         Mg : Obtained from the Peterson Research Group Website (tyr0.chem.wsu.edu/~kipeters) Feb. 2017
              B. P. Prascher, D. E. Woon, K. A. Peterson, T. H. Dunning, Jr., A. K. Wilson, Theor. Chem. Acc. 128, 69 (2011)
      Al-Ar : Obtained from the ccRepo (grant-hill.group.shef.ac.uk/ccrepo) Feb. 2017
              D. E. Woon, T. H. Dunning, Jr., J. Chem. Phys. 98, 1358 (1993)
      Sc-Zn : Obtained from the ccRepo (grant-hill.group.shef.ac.uk/ccrepo) Feb. 2017
              N. B. Balabanov, K. A. Peterson, J. Chem. Phys. 123, 064107 (2005)
              N. B. Balabanov, K. A. Peterson, J. Chem. Phys. 125, 074110 (2006)
      Ga-Kr : Obtained from the ccRepo (grant-hill.group.shef.ac.uk/ccrepo) Feb. 2017
              A. K. Wilson, D. E. Woon, K. A. Peterson, T. H. Dunning, Jr., J. Chem. Phys. 110, 7667 (1999)
     Ag, Au : Obtained from the Peterson Research Group Website (tyr0.chem.wsu.edu/~kipeters) Feb. 2017
              K. A. Peterson, C. Puzzarini, Theor. Chem. Acc. 114, 283 (2005)

----- AuxJ basis set information -----
Your calculation utilizes the AutoAux generation procedure.
  G. L. Stoychev, A. A. Auer, F. Neese, J. Chem. Theory Comput. 13, 554 (2017)

----- AuxC basis set information -----
Your calculation utilizes the auxiliary basis: aug-cc-pVTZ/C 
  H-He, B-F, Al-Ar, Ga-Kr : Obtained from the EMSL Basis Set Exchange (bse.pnl.gov) Feb. 2017
                            F. Weigend, A. Kohn, C. Hattig, J. Chem. Phys. 116, 3175 (2002)
                   Be, Mg : Obtained from the TURBOMOLE 7.0 basis set library
                            C. Haettig, Phys. Chem. Chem. Phys. 7, 59 (2005)
                       Ne : Obtained from the EMSL Basis Set Exchange (bse.pnl.gov) Feb. 2017
                            C. Haettig, Phys. Chem. Chem. Phys. 7, 59 (2005)
                            F. Weigend, A. Kohn, C. Hattig, J. Chem. Phys. 116, 3175 (2002)
                    Sc-Zn : Obtained from the EMSL Basis Set Exchange (bse.pnl.gov) Feb. 2017
                            J. G. Hill, J. A. Platts, J. Chem. Phys. 128, 044104 (2008)

----- AuxJK basis set information -----
Your calculation utilizes the AutoAux generation procedure.
  G. L. Stoychev, A. A. Auer, F. Neese, J. Chem. Theory Comput. 13, 554 (2017)

================================================================================
                                        WARNINGS
                       Please study these warnings very carefully!
================================================================================


WARNING: your system is open-shell and RHF/RKS was chosen
  ===> : WILL SWITCH to UHF/UKS


WARNING: MDCI localization with Augmented Hessian Foster-Boys
  ===> : Switching off randomization!

WARNING: Post HF methods need fully converged wavefunctions
  ===> : Setting SCFConvForced true
         You can overwrite this default with %scf ConvForced false 


INFO   : the flag for use of LIBINT has been found!

================================================================================
                                       INPUT FILE
================================================================================
NAME = simple-grid-190-195-b3lyp_d3bj-631gd-gas-singlepoint-DLPNO_CCSD_T1-NormalPNO-augtz-gas.inp
|  1> ! aug-cc-pVTZ aug-cc-pVTZ/C DLPNO-CCSD(T1) TightSCF NormalPNO UNO MiniPrint AutoAux
|  2> %pal nproc 10 end
|  3> %maxcore 20000
|  4> %mdci
|  5>      density none
|  6> end
|  7> 
|  8> * xyz 0 6
|  9>  O      0.44343600      0.14934100     -0.46763300
| 10>  C      1.38124300      1.24254100     -0.35596500
| 11>  C      2.87073100      0.07468200     -0.19004600
| 12>  C      1.93258900     -1.09837600     -0.29998900
| 13>  C      1.83124900     -1.80067300     -1.61027300
| 14> Fe     -1.37161200     -0.05377900      0.05103800
| 15> Cl     -1.86946100     -2.00033000     -0.85867600
| 16>  C      1.55414000     -1.87773100      0.91214900
| 17> Cl     -2.39690100      1.71708700     -0.73647800
| 18> Cl     -1.38141700     -0.15512900      2.25673400
| 19>  H      3.46020500      0.19689400     -1.10024100
| 20>  H      2.40824200     -2.52774700      1.15668400
| 21>  H      1.35501900     -1.24241200      1.77536500
| 22>  H      0.68523400     -2.51083000      0.72057700
| 23>  H      2.63292800     -2.55546800     -1.63484400
| 24>  H      0.87137000     -2.31246900     -1.71163100
| 25>  H      1.98274500     -1.11896100     -2.44918300
| 26>  C      3.69286400      0.24998500      1.06765500
| 27>  H      4.45289000     -0.53629900      1.16351800
| 28>  H      4.21890500      1.20907300      1.03424100
| 29>  H      3.08278200      0.23667500      1.97422000
| 30>  C      1.17467000      2.07055900      0.88291800
| 31>  H      1.98542400      2.79584300      1.00344600
| 32>  H      0.23292900      2.62660800      0.78536200
| 33>  H      1.10053500      1.45285900      1.77971100
| 34>  C      1.44778800      2.01959100     -1.64422800
| 35>  H      0.47739300      2.50412400     -1.81218600
| 36>  H      2.22200700      2.79221900     -1.59633200
| 37>  H      1.64640700      1.36228400     -2.49482900
| 38> *
| 39> 
| 40> 
| 41>                          ****END OF INPUT****
================================================================================

                       ****************************
                       * Single Point Calculation *
                       ****************************

---------------------------------
CARTESIAN COORDINATES (ANGSTROEM)
---------------------------------
  O      0.443436    0.149341   -0.467633
  C      1.381243    1.242541   -0.355965
  C      2.870731    0.074682   -0.190046
  C      1.932589   -1.098376   -0.299989
  C      1.831249   -1.800673   -1.610273
  Fe    -1.371612   -0.053779    0.051038
  Cl    -1.869461   -2.000330   -0.858676
  C      1.554140   -1.877731    0.912149
  Cl    -2.396901    1.717087   -0.736478
  Cl    -1.381417   -0.155129    2.256734
  H      3.460205    0.196894   -1.100241
  H      2.408242   -2.527747    1.156684
  H      1.355019   -1.242412    1.775365
  H      0.685234   -2.510830    0.720577
  H      2.632928   -2.555468   -1.634844
  H      0.871370   -2.312469   -1.711631
  H      1.982745   -1.118961   -2.449183
  C      3.692864    0.249985    1.067655
  H      4.452890   -0.536299    1.163518
  H      4.218905    1.209073    1.034241
  H      3.082782    0.236675    1.974220
  C      1.174670    2.070559    0.882918
  H      1.985424    2.795843    1.003446
  H      0.232929    2.626608    0.785362
  H      1.100535    1.452859    1.779711
  C      1.447788    2.019591   -1.644228
  H      0.477393    2.504124   -1.812186
  H      2.222007    2.792219   -1.596332
  H      1.646407    1.362284   -2.494829

----------------------------
CARTESIAN COORDINATES (A.U.)
----------------------------
  NO LB      ZA    FRAG     MASS         X           Y           Z
   0 O     8.0000    0    15.999    0.837973    0.282214   -0.883698
   1 C     6.0000    0    12.011    2.610171    2.348062   -0.672676
   2 C     6.0000    0    12.011    5.424895    0.141129   -0.359135
   3 C     6.0000    0    12.011    3.652064   -2.075630   -0.566897
   4 C     6.0000    0    12.011    3.460559   -3.402779   -3.042975
   5 Fe   26.0000    0    55.850   -2.591971   -0.101628    0.096448
   6 Cl   17.0000    0    35.453   -3.532769   -3.780076   -1.622662
   7 C     6.0000    0    12.011    2.936899   -3.548397    1.723712
   8 Cl   17.0000    0    35.453   -4.529486    3.244824   -1.391742
   9 Cl   17.0000    0    35.453   -2.610500   -0.293151    4.264609
  10 H     1.0000    0     1.008    6.538840    0.372076   -2.079154
  11 H     1.0000    0     1.008    4.550918   -4.776750    2.185816
  12 H     1.0000    0     1.008    2.560615   -2.347818    3.354954
  13 H     1.0000    0     1.008    1.294905   -4.744781    1.361693
  14 H     1.0000    0     1.008    4.975513   -4.829135   -3.089407
  15 H     1.0000    0     1.008    1.646651   -4.369933   -3.234514
  16 H     1.0000    0     1.008    3.746845   -2.114530   -4.628285
  17 C     6.0000    0    12.011    6.978502    0.472403    2.017576
  18 H     1.0000    0     1.008    8.414743   -1.013458    2.198730
  19 H     1.0000    0     1.008    7.972575    2.284817    1.954432
  20 H     1.0000    0     1.008    5.825614    0.447251    3.730735
  21 C     6.0000    0    12.011    2.219805    3.912789    1.668473
  22 H     1.0000    0     1.008    3.751908    5.283378    1.896238
  23 H     1.0000    0     1.008    0.440172    4.963570    1.484119
  24 H     1.0000    0     1.008    2.079710    2.745506    3.363166
  25 C     6.0000    0    12.011    2.735923    3.816474   -3.107141
  26 H     1.0000    0     1.008    0.902142    4.732109   -3.424535
  27 H     1.0000    0     1.008    4.198985    5.276529   -3.016630
  28 H     1.0000    0     1.008    3.111258    2.574344   -4.714544



           ************************************************************
           *        Program running with 10 parallel MPI-processes    *
           *              working on a common directory               *
           ************************************************************


           ************************************************************
           *        Program running with 10 parallel MPI-processes    *
           *              working on a common directory               *
           ************************************************************

Diagonalization of the overlap matrix:
Smallest eigenvalue                        ... 7.925e-07
Time for diagonalization                   ...    0.383 sec
Threshold for overlap eigenvalues          ... 1.000e-08
Number of eigenvalues below threshold      ... 0
Time for construction of square roots      ...    0.335 sec
Total time needed                          ...    0.724 sec

-------------------
DFT GRID GENERATION
-------------------

General Integration Accuracy     IntAcc      ...  4.340
Radial Grid Type                 RadialGrid  ... Gauss-Chebyshev
Angular Grid (max. acc.)         AngularGrid ... Lebedev-110
Angular grid pruning method      GridPruning ... 3 (G Style)
Weight generation scheme         WeightScheme... Becke
Basis function cutoff            BFCut       ...    1.0000e-11
Integration weight cutoff        WCut        ...    1.0000e-14
Grids for H and He will be reduced by one unit

# of grid points (after initial pruning)     ...  36112 (   0.0 sec)
# of grid points (after weights+screening)   ...  32276 (   0.1 sec)
nearest neighbour list constructed           ...    0.0 sec
Grid point re-assignment to atoms done       ...    0.0 sec
Grid point division into batches done        ...    0.0 sec
Reduced shell lists constructed in    0.3 sec

Total number of grid points                  ...    32276
Total number of batches                      ...      519
Average number of points per batch           ...       62
Average number of grid points per atom       ...     1113
Average number of shells per batch           ...   294.49 (85.86%)
Average number of basis functions per batch  ...   877.21 (85.58%)
Average number of large shells per batch     ...   244.64 (83.07%)
Average number of large basis fcns per batch ...   727.32 (82.91%)
Maximum spatial batch extension              ...   2.61,  3.56,  3.40 au
Average spatial batch extension              ...   0.17,  0.18,  0.17 au

Time for grid setup =    0.430 sec

Loading Hartree-Fock densities                     ... done
Calculating cut-offs                               ... done
Setting up the integral package                    ... done
Initializing the effective Hamiltonian             ... done
Starting the Coulomb interaction                   ... done (   1.1 sec)
Reading the grid                                   ... done
Mapping shells                                     ... done
Starting the XC term evaluation                    ... done (   0.8 sec)
Transforming the Hamiltonian                       ... done (   0.2 sec)
Diagonalizing the Hamiltonian                      ... done (   0.4 sec)
Back transforming the eigenvectors                 ... done (   0.1 sec)
Now organizing SCF variables                       ... done
--------------
SCF ITERATIONS
--------------
ITER       Energy         Delta-E        Max-DP      RMS-DP      [F,P]     Damp
               ***  Starting incremental Fock matrix formation  ***
  0  -3027.5637491551   0.000000000000 0.26090305  0.00121383  0.2402014 0.7000
  1  -3027.8093482581  -0.245599102978 0.19193273  0.00093704  0.1538001 0.7000
                               ***Turning on DIIS***
  2  -3027.9758827121  -0.166534454048 0.13406848  0.00068243  0.1095195 0.7000
  3  -3029.6119353999  -1.636052687815 0.30637141  0.00168532  0.0815340 0.0000
  4  -3028.2877919707   1.324143429264 0.04550064  0.00022077  0.0194987 0.0000
  5  -3028.4099303438  -0.122138373104 0.03907279  0.00017105  0.0119452 0.0000
  6  -3028.4293506877  -0.019420343899 0.01965939  0.00006658  0.0055578 0.0000
  7  -3028.4472061292  -0.017855441578 0.00888696  0.00003093  0.0033800 0.0000
  8  -3028.4436327263   0.003573402977 0.00566110  0.00001740  0.0014505 0.0000
  9  -3028.4344800285   0.009152697719 0.00227893  0.00000996  0.0007400 0.0000
 10  -3028.4248138417   0.009666186868 0.00086556  0.00000297  0.0004072 0.0000
 11  -3028.4306277170  -0.005813875317 0.00025875  0.00000165  0.0000804 0.0000
 12  -3028.4281420268   0.002485690157 0.00024398  0.00000131  0.0000236 0.0000
 13  -3028.4282716541  -0.000129627237 0.00066372  0.00000191  0.0000098 0.0000
 14  -3028.4282600338   0.000011620249 0.00029828  0.00000210  0.0000057 0.0000
 15  -3028.4282135665   0.000046467279 0.00114548  0.00000267  0.0000035 0.0000
 16  -3028.4282476056  -0.000034039042 0.00064728  0.00000258  0.0000029 0.0000
 17  -3028.4282410510   0.000006554615 0.00101508  0.00000287  0.0000018 0.0000
 18  -3028.4282301232   0.000010927762 0.00120943  0.00000345  0.0000013 0.0000
                            ***DIIS convergence achieved***

               *****************************************************
               *                     SUCCESS                       *
               *           SCF CONVERGED AFTER  19 CYCLES          *
               *****************************************************

Total Energy       :        -3028.42823541 Eh          -82407.72181 eV
  Last Energy change         ...   -5.2820e-06  Tolerance :   1.0000e-08
  Last MAX-Density change    ...    1.3413e-03  Tolerance :   1.0000e-07
             **** THE GBW FILE WAS UPDATED (simple-grid-190-195-b3lyp_d3bj-631gd-gas-singlepoint-DLPNO_CCSD_T1-NormalPNO-augtz-gas.gbw) ****
             **** DENSITY FILE WAS UPDATED (simple-grid-190-195-b3lyp_d3bj-631gd-gas-singlepoint-DLPNO_CCSD_T1-NormalPNO-augtz-gas.scfp.tmp) ****
             **** ENERGY FILE WAS UPDATED (simple-grid-190-195-b3lyp_d3bj-631gd-gas-singlepoint-DLPNO_CCSD_T1-NormalPNO-augtz-gas.en.tmp) ****
----------------------
UHF SPIN CONTAMINATION
----------------------

Expectation value of <S**2>     :     8.764653
Ideal value S*(S+1) for S=2.5   :     8.750000
Deviation                       :     0.014653

----------------
ORBITAL ENERGIES
----------------
                 SPIN UP ORBITALS
  NO   OCC          E(Eh)            E(eV) 
   0   1.0000    -261.555491     -7117.2868 
   1   1.0000    -104.781450     -2851.2482 
   2   1.0000    -104.778877     -2851.1782 
   3   1.0000    -104.778826     -2851.1768 
   4   1.0000     -32.223394      -876.8431 
   5   1.0000     -27.699420      -753.7395 
   6   1.0000     -27.699006      -753.7283 
   7   1.0000     -27.698789      -753.7224 
   8   1.0000     -20.574467      -559.8597 
   9   1.0000     -11.393215      -310.0251 
  10   1.0000     -11.356126      -309.0159 
  11   1.0000     -11.288474      -307.1750 
  12   1.0000     -11.270697      -306.6912 
  13   1.0000     -11.268826      -306.6403 
  14   1.0000     -11.257974      -306.3450 
  15   1.0000     -11.242234      -305.9167 
  16   1.0000     -11.240314      -305.8645 
  17   1.0000     -10.508058      -285.9388 
  18   1.0000     -10.505531      -285.8700 
  19   1.0000     -10.505459      -285.8681 
  20   1.0000      -7.974871      -217.0073 
  21   1.0000      -7.974148      -216.9876 
  22   1.0000      -7.974088      -216.9860 
  23   1.0000      -7.972412      -216.9404 
  24   1.0000      -7.972259      -216.9362 
  25   1.0000      -7.971589      -216.9180 
  26   1.0000      -7.971568      -216.9174 
  27   1.0000      -7.971546      -216.9168 
  28   1.0000      -7.971510      -216.9158 
  29   1.0000      -4.578705      -124.5929 
  30   1.0000      -3.191217       -86.8374 
  31   1.0000      -3.190765       -86.8251 
  32   1.0000      -3.190208       -86.8100 
  33   1.0000      -1.369597       -37.2686 
  34   1.0000      -1.156893       -31.4807 
  35   1.0000      -1.082156       -29.4470 
  36   1.0000      -1.053320       -28.6623 
  37   1.0000      -1.047195       -28.4956 
  38   1.0000      -1.046243       -28.4697 
  39   1.0000      -1.037699       -28.2372 
  40   1.0000      -1.003265       -27.3002 
  41   1.0000      -0.970639       -26.4124 
  42   1.0000      -0.926417       -25.2091 
  43   1.0000      -0.908129       -24.7115 
  44   1.0000      -0.908091       -24.7104 
  45   1.0000      -0.903587       -24.5879 
  46   1.0000      -0.899299       -24.4712 
  47   1.0000      -0.898607       -24.4523 
  48   1.0000      -0.789982       -21.4965 
  49   1.0000      -0.757380       -20.6094 
  50   1.0000      -0.690399       -18.7867 
  51   1.0000      -0.683663       -18.6034 
  52   1.0000      -0.666828       -18.1453 
  53   1.0000      -0.641284       -17.4502 
  54   1.0000      -0.625815       -17.0293 
  55   1.0000      -0.622664       -16.9436 
  56   1.0000      -0.595725       -16.2105 
  57   1.0000      -0.593712       -16.1557 
  58   1.0000      -0.586427       -15.9575 
  59   1.0000      -0.580688       -15.8013 
  60   1.0000      -0.569016       -15.4837 
  61   1.0000      -0.560632       -15.2556 
  62   1.0000      -0.545155       -14.8344 
  63   1.0000      -0.537828       -14.6350 
  64   1.0000      -0.533190       -14.5088 
  65   1.0000      -0.525359       -14.2957 
  66   1.0000      -0.508826       -13.8459 
  67   1.0000      -0.486340       -13.2340 
  68   1.0000      -0.467583       -12.7236 
  69   1.0000      -0.457700       -12.4547 
  70   1.0000      -0.437071       -11.8933 
  71   1.0000      -0.430510       -11.7148 
  72   1.0000      -0.427376       -11.6295 
  73   1.0000      -0.421208       -11.4617 
  74   1.0000      -0.418415       -11.3857 
  75   1.0000      -0.417493       -11.3606 
  76   1.0000      -0.390726       -10.6322 
  77   0.0000       0.009989         0.2718 
  78   0.0000       0.021329         0.5804 
  79   0.0000       0.023560         0.6411 
  80   0.0000       0.031277         0.8511 
  81   0.0000       0.038105         1.0369 
  82   0.0000       0.041512         1.1296 
  83   0.0000       0.043078         1.1722 
  84   0.0000       0.043932         1.1955 
  85   0.0000       0.044947         1.2231 
  86   0.0000       0.056455         1.5362 
  87   0.0000       0.056940         1.5494 
  88   0.0000       0.060780         1.6539 
  89   0.0000       0.065295         1.7768 
  90   0.0000       0.065539         1.7834 
  91   0.0000       0.066079         1.7981 
  92   0.0000       0.071000         1.9320 
  93   0.0000       0.073160         1.9908 
  94   0.0000       0.083513         2.2725 
  95   0.0000       0.087731         2.3873 
  96   0.0000       0.089781         2.4431 
  97   0.0000       0.090494         2.4625 
  98   0.0000       0.095729         2.6049 
  99   0.0000       0.101535         2.7629 
 100   0.0000       0.103897         2.8272 
 101   0.0000       0.111163         3.0249 
 102   0.0000       0.116281         3.1642 
 103   0.0000       0.119888         3.2623 
 104   0.0000       0.123360         3.3568 
 105   0.0000       0.124980         3.4009 
 106   0.0000       0.127703         3.4750 
 107   0.0000       0.128635         3.5003 
 108   0.0000       0.131943         3.5904 
 109   0.0000       0.133008         3.6193 
 110   0.0000       0.136061         3.7024 
 111   0.0000       0.137708         3.7472 
 112   0.0000       0.145337         3.9548 
 113   0.0000       0.147277         4.0076 
 114   0.0000       0.149710         4.0738 
 115   0.0000       0.152548         4.1511 
 116   0.0000       0.157623         4.2891 
 117   0.0000       0.160002         4.3539 
 118   0.0000       0.165168         4.4944 
 119   0.0000       0.166362         4.5270 
 120   0.0000       0.172400         4.6912 
 121   0.0000       0.176240         4.7957 
 122   0.0000       0.179416         4.8822 
 123   0.0000       0.182982         4.9792 
 124   0.0000       0.184970         5.0333 
 125   0.0000       0.187975         5.1151 
 126   0.0000       0.193219         5.2578 
 127   0.0000       0.195098         5.3089 
 128   0.0000       0.196994         5.3605 
 129   0.0000       0.197965         5.3869 
 130   0.0000       0.201389         5.4801 
 131   0.0000       0.206604         5.6220 
 132   0.0000       0.208234         5.6663 
 133   0.0000       0.210922         5.7395 
 134   0.0000       0.213216         5.8019 
 135   0.0000       0.218775         5.9532 
 136   0.0000       0.221597         6.0300 
 137   0.0000       0.225659         6.1405 
 138   0.0000       0.227136         6.1807 
 139   0.0000       0.233483         6.3534 
 140   0.0000       0.239465         6.5162 
 141   0.0000       0.242960         6.6113 
 142   0.0000       0.244353         6.6492 
 143   0.0000       0.248522         6.7626 
 144   0.0000       0.251912         6.8549 
 145   0.0000       0.253066         6.8863 
 146   0.0000       0.254015         6.9121 
 147   0.0000       0.257574         7.0090 
 148   0.0000       0.259319         7.0564 
 149   0.0000       0.260845         7.0980 
 150   0.0000       0.269413         7.3311 
 151   0.0000       0.274151         7.4600 
 152   0.0000       0.276122         7.5137 
 153   0.0000       0.279037         7.5930 
 154   0.0000       0.281825         7.6688 
 155   0.0000       0.285798         7.7770 
 156   0.0000       0.290794         7.9129 
 157   0.0000       0.295410         8.0385 
 158   0.0000       0.295971         8.0538 
 159   0.0000       0.301778         8.2118 
 160   0.0000       0.306857         8.3500 
 161   0.0000       0.307479         8.3669 
 162   0.0000       0.311390         8.4734 
 163   0.0000       0.316820         8.6211 
 164   0.0000       0.321459         8.7473 
 165   0.0000       0.327156         8.9024 
 166   0.0000       0.329853         8.9757 
 167   0.0000       0.339705         9.2438 
 168   0.0000       0.342990         9.3332 
 169   0.0000       0.346349         9.4246 
 170   0.0000       0.350864         9.5475 
 171   0.0000       0.355468         9.6728 
 172   0.0000       0.360222         9.8021 
 173   0.0000       0.361994         9.8504 
 174   0.0000       0.364268         9.9122 
 175   0.0000       0.366694         9.9782 
 176   0.0000       0.369073        10.0430 
 177   0.0000       0.375895        10.2286 
 178   0.0000       0.376438        10.2434 
 179   0.0000       0.379420        10.3246 
 180   0.0000       0.381327        10.3764 
 181   0.0000       0.383280        10.4296 
 182   0.0000       0.387050        10.5322 
 183   0.0000       0.391146        10.6436 
 184   0.0000       0.392256        10.6738 
 185   0.0000       0.398568        10.8456 
 186   0.0000       0.399974        10.8839 
 187   0.0000       0.401155        10.9160 
 188   0.0000       0.403631        10.9834 
 189   0.0000       0.408516        11.1163 
 190   0.0000       0.413488        11.2516 
 191   0.0000       0.416335        11.3290 
 192   0.0000       0.419844        11.4245 
 193   0.0000       0.424687        11.5563 
 194   0.0000       0.427118        11.6225 
 195   0.0000       0.431599        11.7444 
 196   0.0000       0.435533        11.8515 
 197   0.0000       0.438804        11.9405 
 198   0.0000       0.444911        12.1066 
 199   0.0000       0.447054        12.1649 
 200   0.0000       0.454223        12.3600 
 201   0.0000       0.457684        12.4542 
 202   0.0000       0.460065        12.5190 
 203   0.0000       0.461471        12.5573 
 204   0.0000       0.467924        12.7329 
 205   0.0000       0.470673        12.8077 
 206   0.0000       0.471271        12.8239 
 207   0.0000       0.472307        12.8521 
 208   0.0000       0.476578        12.9684 
 209   0.0000       0.478091        13.0095 
 210   0.0000       0.481415        13.1000 
 211   0.0000       0.484890        13.1945 
 212   0.0000       0.489357        13.3161 
 213   0.0000       0.491425        13.3724 
 214   0.0000       0.493746        13.4355 
 215   0.0000       0.496611        13.5135 
 216   0.0000       0.496915        13.5217 
 217   0.0000       0.501032        13.6338 
 218   0.0000       0.503655        13.7052 
 219   0.0000       0.510520        13.8920 
 220   0.0000       0.512289        13.9401 
 221   0.0000       0.517545        14.0831 
 222   0.0000       0.519590        14.1388 
 223   0.0000       0.522971        14.2308 
 224   0.0000       0.526283        14.3209 
 225   0.0000       0.528278        14.3752 
 226   0.0000       0.534132        14.5345 
 227   0.0000       0.537533        14.6270 
 228   0.0000       0.540873        14.7179 
 229   0.0000       0.549239        14.9456 
 230   0.0000       0.551371        15.0036 
 231   0.0000       0.558305        15.1923 
 232   0.0000       0.560459        15.2509 
 233   0.0000       0.562242        15.2994 
 234   0.0000       0.567776        15.4500 
 235   0.0000       0.571737        15.5578 
 236   0.0000       0.574911        15.6441 
 237   0.0000       0.577206        15.7066 
 238   0.0000       0.578969        15.7546 
 239   0.0000       0.582892        15.8613 
 240   0.0000       0.583851        15.8874 
 241   0.0000       0.589480        16.0406 
 242   0.0000       0.593666        16.1545 
 243   0.0000       0.596987        16.2448 
 244   0.0000       0.603102        16.4113 
 245   0.0000       0.605701        16.4820 
 246   0.0000       0.608520        16.5587 
 247   0.0000       0.614229        16.7140 
 248   0.0000       0.616095        16.7648 
 249   0.0000       0.617666        16.8075 
 250   0.0000       0.619648        16.8615 
 251   0.0000       0.620864        16.8946 
 252   0.0000       0.631211        17.1761 
 253   0.0000       0.637001        17.3337 
 254   0.0000       0.641128        17.4460 
 255   0.0000       0.642869        17.4934 
 256   0.0000       0.646170        17.5832 
 257   0.0000       0.651693        17.7335 
 258   0.0000       0.656513        17.8646 
 259   0.0000       0.658807        17.9270 
 260   0.0000       0.663017        18.0416 
 261   0.0000       0.665649        18.1132 
 262   0.0000       0.668721        18.1968 
 263   0.0000       0.675187        18.3728 
 264   0.0000       0.679721        18.4962 
 265   0.0000       0.682905        18.5828 
 266   0.0000       0.685298        18.6479 
 267   0.0000       0.690747        18.7962 
 268   0.0000       0.695599        18.9282 
 269   0.0000       0.700115        19.0511 
 270   0.0000       0.702867        19.1260 
 271   0.0000       0.706077        19.2133 
 272   0.0000       0.714826        19.4514 
 273   0.0000       0.717027        19.5113 
 274   0.0000       0.725843        19.7512 
 275   0.0000       0.728993        19.8369 
 276   0.0000       0.731090        19.8940 
 277   0.0000       0.739026        20.1099 
 278   0.0000       0.742386        20.2014 
 279   0.0000       0.750491        20.4219 
 280   0.0000       0.756245        20.5785 
 281   0.0000       0.761195        20.7132 
 282   0.0000       0.766236        20.8504 
 283   0.0000       0.769272        20.9330 
 284   0.0000       0.773623        21.0514 
 285   0.0000       0.775966        21.1151 
 286   0.0000       0.785561        21.3762 
 287   0.0000       0.790795        21.5186 
 288   0.0000       0.800075        21.7711 
 289   0.0000       0.805565        21.9205 
 290   0.0000       0.808993        22.0138 
 291   0.0000       0.811060        22.0701 
 292   0.0000       0.823960        22.4211 
 293   0.0000       0.826828        22.4991 
 294   0.0000       0.832130        22.6434 
 295   0.0000       0.835136        22.7252 
 296   0.0000       0.842192        22.9172 
 297   0.0000       0.847217        23.0539 
 298   0.0000       0.849673        23.1208 
 299   0.0000       0.853020        23.2119 
 300   0.0000       0.857566        23.3355 
 301   0.0000       0.864782        23.5319 
 302   0.0000       0.869606        23.6632 
 303   0.0000       0.873758        23.7762 
 304   0.0000       0.877452        23.8767 
 305   0.0000       0.878485        23.9048 
 306   0.0000       0.881465        23.9859 
 307   0.0000       0.885782        24.1034 
 308   0.0000       0.894516        24.3410 
 309   0.0000       0.902997        24.5718 
 310   0.0000       0.908632        24.7251 
 311   0.0000       0.913948        24.8698 
 312   0.0000       0.919799        25.0290 
 313   0.0000       0.920452        25.0468 
 314   0.0000       0.921591        25.0778 
 315   0.0000       0.924876        25.1671 
 316   0.0000       0.933792        25.4098 
 317   0.0000       0.935735        25.4627 
 318   0.0000       0.937501        25.5107 
 319   0.0000       0.942046        25.6344 
 320   0.0000       0.946567        25.7574 
 321   0.0000       0.950258        25.8578 
 322   0.0000       0.951532        25.8925 
 323   0.0000       0.959963        26.1219 
 324   0.0000       0.964317        26.2404 
 325   0.0000       0.965352        26.2686 
 326   0.0000       0.967327        26.3223 
 327   0.0000       0.970082        26.3973 
 328   0.0000       0.974033        26.5048 
 329   0.0000       0.978127        26.6162 
 330   0.0000       0.982717        26.7411 
 331   0.0000       0.991523        26.9807 
 332   0.0000       0.994611        27.0647 
 333   0.0000       0.997223        27.1358 
 334   0.0000       0.997798        27.1515 
 335   0.0000       1.002965        27.2921 
 336   0.0000       1.007177        27.4067 
 337   0.0000       1.009041        27.4574 
 338   0.0000       1.014458        27.6048 
 339   0.0000       1.017826        27.6964 
 340   0.0000       1.020304        27.7639 
 341   0.0000       1.023675        27.8556 
 342   0.0000       1.029186        28.0056 
 343   0.0000       1.034502        28.1502 
 344   0.0000       1.036500        28.2046 
 345   0.0000       1.039010        28.2729 
 346   0.0000       1.041877        28.3509 
 347   0.0000       1.044442        28.4207 
 348   0.0000       1.048849        28.5406 
 349   0.0000       1.055157        28.7123 
 350   0.0000       1.057915        28.7873 
 351   0.0000       1.061303        28.8795 
 352   0.0000       1.066434        29.0191 
 353   0.0000       1.069169        29.0936 
 354   0.0000       1.070507        29.1300 
 355   0.0000       1.074342        29.2343 
 356   0.0000       1.080455        29.4007 
 357   0.0000       1.085529        29.5388 
 358   0.0000       1.087126        29.5822 
 359   0.0000       1.087990        29.6057 
 360   0.0000       1.091851        29.7108 
 361   0.0000       1.101460        29.9723 
 362   0.0000       1.105600        30.0849 
 363   0.0000       1.112189        30.2642 
 364   0.0000       1.117563        30.4104 
 365   0.0000       1.119121        30.4528 
 366   0.0000       1.124185        30.5906 
 367   0.0000       1.127538        30.6819 
 368   0.0000       1.129929        30.7469 
 369   0.0000       1.137555        30.9544 
 370   0.0000       1.144016        31.1302 
 371   0.0000       1.147480        31.2245 
 372   0.0000       1.150982        31.3198 
 373   0.0000       1.155773        31.4502 
 374   0.0000       1.158143        31.5147 
 375   0.0000       1.161176        31.5972 
 376   0.0000       1.164509        31.6879 
 377   0.0000       1.169897        31.8345 
 378   0.0000       1.176595        32.0168 
 379   0.0000       1.177874        32.0516 
 380   0.0000       1.184126        32.2217 
 381   0.0000       1.189968        32.3807 
 382   0.0000       1.194008        32.4906 
 383   0.0000       1.195790        32.5391 
 384   0.0000       1.197093        32.5746 
 385   0.0000       1.205561        32.8050 
 386   0.0000       1.208235        32.8777 
 387   0.0000       1.211962        32.9792 
 388   0.0000       1.214644        33.0521 
 389   0.0000       1.218581        33.1593 
 390   0.0000       1.222741        33.2725 
 391   0.0000       1.227216        33.3942 
 392   0.0000       1.228586        33.4315 
 393   0.0000       1.237698        33.6795 
 394   0.0000       1.243200        33.8292 
 395   0.0000       1.246515        33.9194 
 396   0.0000       1.251128        34.0449 
 397   0.0000       1.260142        34.2902 
 398   0.0000       1.265104        34.4252 
 399   0.0000       1.271509        34.5995 
 400   0.0000       1.273945        34.6658 
 401   0.0000       1.282446        34.8971 
 402   0.0000       1.284503        34.9531 
 403   0.0000       1.295064        35.2405 
 404   0.0000       1.299271        35.3550 
 405   0.0000       1.303657        35.4743 
 406   0.0000       1.307420        35.5767 
 407   0.0000       1.312157        35.7056 
 408   0.0000       1.317778        35.8586 
 409   0.0000       1.325264        36.0623 
 410   0.0000       1.326486        36.0955 
 411   0.0000       1.331966        36.2446 
 412   0.0000       1.335207        36.3328 
 413   0.0000       1.343429        36.5566 
 414   0.0000       1.345070        36.6012 
 415   0.0000       1.353644        36.8345 
 416   0.0000       1.357239        36.9324 
 417   0.0000       1.364410        37.1275 
 418   0.0000       1.371489        37.3201 
 419   0.0000       1.377238        37.4766 
 420   0.0000       1.381915        37.6038 
 421   0.0000       1.388381        37.7798 
 422   0.0000       1.395199        37.9653 
 423   0.0000       1.406278        38.2668 
 424   0.0000       1.412767        38.4433 
 425   0.0000       1.414247        38.4836 
 426   0.0000       1.424039        38.7501 
 427   0.0000       1.425866        38.7998 
 428   0.0000       1.431719        38.9590 
 429   0.0000       1.435118        39.0516 
 430   0.0000       1.437891        39.1270 
 431   0.0000       1.446456        39.3601 
 432   0.0000       1.449456        39.4417 
 433   0.0000       1.452368        39.5209 
 434   0.0000       1.460506        39.7424 
 435   0.0000       1.464231        39.8438 
 436   0.0000       1.469790        39.9950 
 437   0.0000       1.474102        40.1124 
 438   0.0000       1.479690        40.2644 
 439   0.0000       1.487293        40.4713 
 440   0.0000       1.490349        40.5544 
 441   0.0000       1.492458        40.6119 
 442   0.0000       1.499031        40.7907 
 443   0.0000       1.502811        40.8936 
 444   0.0000       1.508544        41.0496 
 445   0.0000       1.511936        41.1419 
 446   0.0000       1.519480        41.3472 
 447   0.0000       1.520616        41.3781 
 448   0.0000       1.523908        41.4677 
 449   0.0000       1.533453        41.7274 
 450   0.0000       1.536549        41.8116 
 451   0.0000       1.540133        41.9092 
 452   0.0000       1.547547        42.1109 
 453   0.0000       1.551790        42.2264 
 454   0.0000       1.559403        42.4335 
 455   0.0000       1.565299        42.5939 
 456   0.0000       1.568412        42.6787 
 457   0.0000       1.575980        42.8846 
 458   0.0000       1.580842        43.0169 
 459   0.0000       1.586066        43.1590 
 460   0.0000       1.590691        43.2849 
 461   0.0000       1.593281        43.3554 
 462   0.0000       1.597996        43.4837 
 463   0.0000       1.608745        43.7762 
 464   0.0000       1.618168        44.0326 
 465   0.0000       1.619932        44.0806 
 466   0.0000       1.629224        44.3334 
 467   0.0000       1.634679        44.4819 
 468   0.0000       1.639384        44.6099 
 469   0.0000       1.640484        44.6398 
 470   0.0000       1.644965        44.7618 
 471   0.0000       1.651000        44.9260 
 472   0.0000       1.656672        45.0803 
 473   0.0000       1.660889        45.1951 
 474   0.0000       1.667694        45.3803 
 475   0.0000       1.673475        45.5376 
 476   0.0000       1.678119        45.6640 
 477   0.0000       1.688479        45.9459 
 478   0.0000       1.693050        46.0702 
 479   0.0000       1.697696        46.1967 
 480   0.0000       1.705073        46.3974 
 481   0.0000       1.710101        46.5342 
 482   0.0000       1.716014        46.6951 
 483   0.0000       1.717250        46.7287 
 484   0.0000       1.723310        46.8936 
 485   0.0000       1.730944        47.1014 
 486   0.0000       1.735646        47.2293 
 487   0.0000       1.738148        47.2974 
 488   0.0000       1.740886        47.3719 
 489   0.0000       1.744094        47.4592 
 490   0.0000       1.749396        47.6035 
 491   0.0000       1.765161        48.0325 
 492   0.0000       1.766236        48.0617 
 493   0.0000       1.768711        48.1291 
 494   0.0000       1.778193        48.3871 
 495   0.0000       1.779602        48.4254 
 496   0.0000       1.785854        48.5955 
 497   0.0000       1.788984        48.6807 
 498   0.0000       1.791743        48.7558 
 499   0.0000       1.795195        48.8497 
 500   0.0000       1.804472        49.1022 
 501   0.0000       1.814134        49.3651 
 502   0.0000       1.816491        49.4292 
 503   0.0000       1.820970        49.5511 
 504   0.0000       1.826586        49.7039 
 505   0.0000       1.829938        49.7951 
 506   0.0000       1.835821        49.9552 
 507   0.0000       1.841650        50.1138 
 508   0.0000       1.850318        50.3497 
 509   0.0000       1.855723        50.4968 
 510   0.0000       1.857968        50.5579 
 511   0.0000       1.864440        50.7340 
 512   0.0000       1.865483        50.7624 
 513   0.0000       1.870686        50.9039 
 514   0.0000       1.874826        51.0166 
 515   0.0000       1.878280        51.1106 
 516   0.0000       1.882288        51.2197 
 517   0.0000       1.888041        51.3762 
 518   0.0000       1.891226        51.4629 
 519   0.0000       1.895871        51.5893 
 520   0.0000       1.901603        51.7453 
 521   0.0000       1.908308        51.9277 
 522   0.0000       1.909624        51.9635 
 523   0.0000       1.916556        52.1521 
 524   0.0000       1.918624        52.2084 
 525   0.0000       1.928526        52.4779 
 526   0.0000       1.932271        52.5798 
 527   0.0000       1.939113        52.7660 
 528   0.0000       1.943659        52.8896 
 529   0.0000       1.948517        53.0218 
 530   0.0000       1.958178        53.2847 
 531   0.0000       1.960324        53.3431 
 532   0.0000       1.970186        53.6115 
 533   0.0000       1.974417        53.7266 
 534   0.0000       1.980215        53.8844 
 535   0.0000       1.984416        53.9987 
 536   0.0000       1.992752        54.2255 
 537   0.0000       2.000862        54.4462 
 538   0.0000       2.005720        54.5784 
 539   0.0000       2.016026        54.8589 
 540   0.0000       2.024624        55.0928 
 541   0.0000       2.034320        55.3567 
 542   0.0000       2.039648        55.5016 
 543   0.0000       2.043361        55.6027 
 544   0.0000       2.050246        55.7900 
 545   0.0000       2.052938        55.8633 
 546   0.0000       2.055826        55.9419 
 547   0.0000       2.062918        56.1349 
 548   0.0000       2.073302        56.4174 
 549   0.0000       2.081153        56.6311 
 550   0.0000       2.086873        56.7867 
 551   0.0000       2.095877        57.0317 
 552   0.0000       2.099593        57.1328 
 553   0.0000       2.103500        57.2391 
 554   0.0000       2.116331        57.5883 
 555   0.0000       2.127393        57.8893 
 556   0.0000       2.132216        58.0205 
 557   0.0000       2.142662        58.3048 
 558   0.0000       2.147729        58.4427 
 559   0.0000       2.158872        58.7459 
 560   0.0000       2.171689        59.0947 
 561   0.0000       2.177812        59.2613 
 562   0.0000       2.178180        59.2713 
 563   0.0000       2.188836        59.5613 
 564   0.0000       2.190339        59.6022 
 565   0.0000       2.194325        59.7106 
 566   0.0000       2.199980        59.8645 
 567   0.0000       2.211585        60.1803 
 568   0.0000       2.219762        60.4028 
 569   0.0000       2.221805        60.4584 
 570   0.0000       2.225129        60.5488 
 571   0.0000       2.231537        60.7232 
 572   0.0000       2.233908        60.7877 
 573   0.0000       2.237854        60.8951 
 574   0.0000       2.248432        61.1830 
 575   0.0000       2.253711        61.3266 
 576   0.0000       2.266097        61.6636 
 577   0.0000       2.274388        61.8892 
 578   0.0000       2.285796        62.1997 
 579   0.0000       2.293368        62.4057 
 580   0.0000       2.296176        62.4821 
 581   0.0000       2.306167        62.7540 
 582   0.0000       2.311115        62.8886 
 583   0.0000       2.318240        63.0825 
 584   0.0000       2.327808        63.3429 
 585   0.0000       2.341437        63.7137 
 586   0.0000       2.345573        63.8263 
 587   0.0000       2.351038        63.9750 
 588   0.0000       2.360110        64.2219 
 589   0.0000       2.366392        64.3928 
 590   0.0000       2.367594        64.4255 
 591   0.0000       2.378891        64.7329 
 592   0.0000       2.384154        64.8761 
 593   0.0000       2.393031        65.1177 
 594   0.0000       2.402650        65.3794 
 595   0.0000       2.410403        65.5904 
 596   0.0000       2.411490        65.6200 
 597   0.0000       2.424071        65.9623 
 598   0.0000       2.427853        66.0652 
 599   0.0000       2.433599        66.2216 
 600   0.0000       2.446761        66.5798 
 601   0.0000       2.454371        66.7868 
 602   0.0000       2.462425        67.0060 
 603   0.0000       2.465772        67.0971 
 604   0.0000       2.482303        67.5469 
 605   0.0000       2.488869        67.7256 
 606   0.0000       2.501185        68.0607 
 607   0.0000       2.511726        68.3475 
 608   0.0000       2.523596        68.6705 
 609   0.0000       2.532106        68.9021 
 610   0.0000       2.537600        69.0516 
 611   0.0000       2.554612        69.5145 
 612   0.0000       2.566961        69.8506 
 613   0.0000       2.581350        70.2421 
 614   0.0000       2.601082        70.7790 
 615   0.0000       2.616204        71.1905 
 616   0.0000       2.631766        71.6140 
 617   0.0000       2.636843        71.7521 
 618   0.0000       2.653379        72.2021 
 619   0.0000       2.667492        72.5861 
 620   0.0000       2.674408        72.7743 
 621   0.0000       2.681955        72.9797 
 622   0.0000       2.684048        73.0367 
 623   0.0000       2.697883        73.4131 
 624   0.0000       2.711701        73.7891 
 625   0.0000       2.715362        73.8888 
 626   0.0000       2.723082        74.0988 
 627   0.0000       2.725085        74.1533 
 628   0.0000       2.735307        74.4315 
 629   0.0000       2.743484        74.6540 
 630   0.0000       2.744888        74.6922 
 631   0.0000       2.761910        75.1554 
 632   0.0000       2.778020        75.5938 
 633   0.0000       2.786599        75.8272 
 634   0.0000       2.791182        75.9519 
 635   0.0000       2.802242        76.2529 
 636   0.0000       2.809524        76.4510 
 637   0.0000       2.819684        76.7275 
 638   0.0000       2.842378        77.3450 
 639   0.0000       2.844795        77.4108 
 640   0.0000       2.851773        77.6007 
 641   0.0000       2.886395        78.5428 
 642   0.0000       2.889438        78.6256 
 643   0.0000       2.895951        78.8028 
 644   0.0000       2.905786        79.0704 
 645   0.0000       2.927607        79.6642 
 646   0.0000       2.940371        80.0116 
 647   0.0000       2.947460        80.2045 
 648   0.0000       2.963368        80.6373 
 649   0.0000       2.974345        80.9360 
 650   0.0000       2.982262        81.1515 
 651   0.0000       3.010472        81.9191 
 652   0.0000       3.022871        82.2565 
 653   0.0000       3.041929        82.7751 
 654   0.0000       3.050190        82.9999 
 655   0.0000       3.067945        83.4830 
 656   0.0000       3.081549        83.8532 
 657   0.0000       3.103101        84.4397 
 658   0.0000       3.107772        84.5668 
 659   0.0000       3.117921        84.8429 
 660   0.0000       3.136286        85.3427 
 661   0.0000       3.152251        85.7771 
 662   0.0000       3.154740        85.8448 
 663   0.0000       3.176834        86.4460 
 664   0.0000       3.178639        86.4952 
 665   0.0000       3.182859        86.6100 
 666   0.0000       3.193685        86.9046 
 667   0.0000       3.210105        87.3514 
 668   0.0000       3.217016        87.5395 
 669   0.0000       3.229924        87.8907 
 670   0.0000       3.237950        88.1091 
 671   0.0000       3.244613        88.2904 
 672   0.0000       3.263995        88.8178 
 673   0.0000       3.269481        88.9671 
 674   0.0000       3.282083        89.3100 
 675   0.0000       3.285564        89.4047 
 676   0.0000       3.295279        89.6691 
 677   0.0000       3.302225        89.8581 
 678   0.0000       3.310283        90.0774 
 679   0.0000       3.318636        90.3047 
 680   0.0000       3.327051        90.5336 
 681   0.0000       3.341247        90.9199 
 682   0.0000       3.351764        91.2061 
 683   0.0000       3.359601        91.4194 
 684   0.0000       3.363492        91.5253 
 685   0.0000       3.377928        91.9181 
 686   0.0000       3.385859        92.1339 
 687   0.0000       3.407512        92.7231 
 688   0.0000       3.412120        92.8485 
 689   0.0000       3.416494        92.9675 
 690   0.0000       3.426699        93.2452 
 691   0.0000       3.430622        93.3520 
 692   0.0000       3.440447        93.6193 
 693   0.0000       3.454901        94.0126 
 694   0.0000       3.465446        94.2996 
 695   0.0000       3.465757        94.3080 
 696   0.0000       3.476226        94.5929 
 697   0.0000       3.485716        94.8512 
 698   0.0000       3.504527        95.3630 
 699   0.0000       3.518131        95.7332 
 700   0.0000       3.524729        95.9128 
 701   0.0000       3.531494        96.0968 
 702   0.0000       3.537794        96.2683 
 703   0.0000       3.540944        96.3540 
 704   0.0000       3.545697        96.4833 
 705   0.0000       3.547876        96.5426 
 706   0.0000       3.556708        96.7830 
 707   0.0000       3.571289        97.1797 
 708   0.0000       3.580770        97.4377 
 709   0.0000       3.584957        97.5517 
 710   0.0000       3.596402        97.8631 
 711   0.0000       3.599144        97.9377 
 712   0.0000       3.610955        98.2591 
 713   0.0000       3.615290        98.3770 
 714   0.0000       3.627428        98.7073 
 715   0.0000       3.641311        99.0851 
 716   0.0000       3.648094        99.2697 
 717   0.0000       3.655963        99.4838 
 718   0.0000       3.667112        99.7872 
 719   0.0000       3.681604       100.1815 
 720   0.0000       3.685600       100.2903 
 721   0.0000       3.696896       100.5977 
 722   0.0000       3.701165       100.7138 
 723   0.0000       3.714896       101.0875 
 724   0.0000       3.719914       101.2240 
 725   0.0000       3.725517       101.3765 
 726   0.0000       3.732978       101.5795 
 727   0.0000       3.735790       101.6560 
 728   0.0000       3.745433       101.9184 
 729   0.0000       3.754656       102.1694 
 730   0.0000       3.762271       102.3766 
 731   0.0000       3.770031       102.5878 
 732   0.0000       3.781628       102.9033 
 733   0.0000       3.786110       103.0253 
 734   0.0000       3.789707       103.1232 
 735   0.0000       3.799388       103.3866 
 736   0.0000       3.813293       103.7650 
 737   0.0000       3.818668       103.9112 
 738   0.0000       3.821687       103.9934 
 739   0.0000       3.827390       104.1486 
 740   0.0000       3.835345       104.3651 
 741   0.0000       3.843824       104.5958 
 742   0.0000       3.855404       104.9109 
 743   0.0000       3.859408       105.0198 
 744   0.0000       3.863070       105.1195 
 745   0.0000       3.869828       105.3034 
 746   0.0000       3.882096       105.6372 
 747   0.0000       3.885845       105.7392 
 748   0.0000       3.886839       105.7663 
 749   0.0000       3.898392       106.0806 
 750   0.0000       3.907895       106.3392 
 751   0.0000       3.913840       106.5010 
 752   0.0000       3.924093       106.7800 
 753   0.0000       3.929256       106.9205 
 754   0.0000       3.936485       107.1172 
 755   0.0000       3.945111       107.3519 
 756   0.0000       3.951371       107.5223 
 757   0.0000       3.952155       107.5436 
 758   0.0000       3.964975       107.8924 
 759   0.0000       3.966078       107.9225 
 760   0.0000       3.971158       108.0607 
 761   0.0000       3.980240       108.3078 
 762   0.0000       3.983260       108.3900 
 763   0.0000       3.991327       108.6095 
 764   0.0000       3.997969       108.7903 
 765   0.0000       4.014159       109.2308 
 766   0.0000       4.024249       109.5054 
 767   0.0000       4.031105       109.6920 
 768   0.0000       4.038195       109.8849 
 769   0.0000       4.044229       110.0491 
 770   0.0000       4.046179       110.1021 
 771   0.0000       4.054914       110.3398 
 772   0.0000       4.059834       110.4737 
 773   0.0000       4.065419       110.6257 
 774   0.0000       4.072577       110.8205 
 775   0.0000       4.082575       111.0925 
 776   0.0000       4.094030       111.4042 
 777   0.0000       4.101362       111.6037 
 778   0.0000       4.108909       111.8091 
 779   0.0000       4.114961       111.9738 
 780   0.0000       4.120802       112.1327 
 781   0.0000       4.132227       112.4436 
 782   0.0000       4.147351       112.8552 
 783   0.0000       4.148558       112.8880 
 784   0.0000       4.149836       112.9228 
 785   0.0000       4.154255       113.0430 
 786   0.0000       4.167293       113.3978 
 787   0.0000       4.171524       113.5129 
 788   0.0000       4.181442       113.7828 
 789   0.0000       4.193997       114.1244 
 790   0.0000       4.211552       114.6022 
 791   0.0000       4.218204       114.7832 
 792   0.0000       4.233145       115.1897 
 793   0.0000       4.237590       115.3107 
 794   0.0000       4.244064       115.4869 
 795   0.0000       4.247420       115.5782 
 796   0.0000       4.256799       115.8334 
 797   0.0000       4.263335       116.0112 
 798   0.0000       4.271591       116.2359 
 799   0.0000       4.281937       116.5174 
 800   0.0000       4.290267       116.7441 
 801   0.0000       4.296948       116.9259 
 802   0.0000       4.311304       117.3165 
 803   0.0000       4.315487       117.4304 
 804   0.0000       4.318682       117.5173 
 805   0.0000       4.323915       117.6597 
 806   0.0000       4.328160       117.7752 
 807   0.0000       4.342755       118.1724 
 808   0.0000       4.349942       118.3679 
 809   0.0000       4.353150       118.4552 
 810   0.0000       4.368113       118.8624 
 811   0.0000       4.380719       119.2054 
 812   0.0000       4.389764       119.4515 
 813   0.0000       4.404741       119.8591 
 814   0.0000       4.423832       120.3786 
 815   0.0000       4.424376       120.3934 
 816   0.0000       4.430611       120.5631 
 817   0.0000       4.437537       120.7515 
 818   0.0000       4.449829       121.0860 
 819   0.0000       4.454730       121.2194 
 820   0.0000       4.460674       121.3811 
 821   0.0000       4.476222       121.8042 
 822   0.0000       4.486296       122.0783 
 823   0.0000       4.494110       122.2909 
 824   0.0000       4.500525       122.4655 
 825   0.0000       4.502408       122.5167 
 826   0.0000       4.518401       122.9519 
 827   0.0000       4.529482       123.2535 
 828   0.0000       4.530897       123.2920 
 829   0.0000       4.541557       123.5821 
 830   0.0000       4.553907       123.9181 
 831   0.0000       4.567004       124.2745 
 832   0.0000       4.574953       124.4908 
 833   0.0000       4.588138       124.8496 
 834   0.0000       4.590862       124.9237 
 835   0.0000       4.616316       125.6163 
 836   0.0000       4.622434       125.7828 
 837   0.0000       4.630127       125.9922 
 838   0.0000       4.637338       126.1884 
 839   0.0000       4.657646       126.7410 
 840   0.0000       4.669591       127.0660 
 841   0.0000       4.683107       127.4338 
 842   0.0000       4.688044       127.5682 
 843   0.0000       4.701224       127.9268 
 844   0.0000       4.714201       128.2799 
 845   0.0000       4.715963       128.3279 
 846   0.0000       4.739159       128.9591 
 847   0.0000       4.744149       129.0949 
 848   0.0000       4.756842       129.4402 
 849   0.0000       4.781353       130.1072 
 850   0.0000       4.797849       130.5561 
 851   0.0000       4.809647       130.8771 
 852   0.0000       4.821164       131.1905 
 853   0.0000       4.828008       131.3768 
 854   0.0000       4.841528       131.7447 
 855   0.0000       4.860701       132.2664 
 856   0.0000       4.867317       132.4464 
 857   0.0000       4.880860       132.8149 
 858   0.0000       4.890128       133.0672 
 859   0.0000       4.892067       133.1199 
 860   0.0000       4.907776       133.5474 
 861   0.0000       4.913728       133.7093 
 862   0.0000       4.924568       134.0043 
 863   0.0000       4.926636       134.0606 
 864   0.0000       4.932544       134.2214 
 865   0.0000       4.948442       134.6540 
 866   0.0000       4.960026       134.9692 
 867   0.0000       4.963533       135.0646 
 868   0.0000       4.969317       135.2220 
 869   0.0000       4.987613       135.7198 
 870   0.0000       5.008982       136.3013 
 871   0.0000       5.020319       136.6098 
 872   0.0000       5.029315       136.8546 
 873   0.0000       5.031893       136.9248 
 874   0.0000       5.047663       137.3539 
 875   0.0000       5.051184       137.4497 
 876   0.0000       5.065581       137.8415 
 877   0.0000       5.084546       138.3575 
 878   0.0000       5.099466       138.7635 
 879   0.0000       5.106264       138.9485 
 880   0.0000       5.125348       139.4678 
 881   0.0000       5.133406       139.6871 
 882   0.0000       5.153905       140.2449 
 883   0.0000       5.156209       140.3076 
 884   0.0000       5.173497       140.7780 
 885   0.0000       5.178843       140.9235 
 886   0.0000       5.194572       141.3515 
 887   0.0000       5.210330       141.7803 
 888   0.0000       5.228260       142.2682 
 889   0.0000       5.246758       142.7715 
 890   0.0000       5.251457       142.8994 
 891   0.0000       5.256926       143.0482 
 892   0.0000       5.278054       143.6231 
 893   0.0000       5.281934       143.7287 
 894   0.0000       5.298342       144.1752 
 895   0.0000       5.313670       144.5923 
 896   0.0000       5.332624       145.1081 
 897   0.0000       5.342614       145.3799 
 898   0.0000       5.347659       145.5172 
 899   0.0000       5.353608       145.6791 
 900   0.0000       5.376133       146.2920 
 901   0.0000       5.391546       146.7114 
 902   0.0000       5.400063       146.9432 
 903   0.0000       5.420083       147.4880 
 904   0.0000       5.430938       147.7833 
 905   0.0000       5.439438       148.0146 
 906   0.0000       5.445982       148.1927 
 907   0.0000       5.452619       148.3733 
 908   0.0000       5.460539       148.5888 
 909   0.0000       5.478027       149.0647 
 910   0.0000       5.489093       149.3658 
 911   0.0000       5.508183       149.8853 
 912   0.0000       5.523336       150.2976 
 913   0.0000       5.542953       150.8314 
 914   0.0000       5.546265       150.9215 
 915   0.0000       5.555299       151.1674 
 916   0.0000       5.575120       151.7067 
 917   0.0000       5.586025       152.0035 
 918   0.0000       5.594615       152.2372 
 919   0.0000       5.609673       152.6470 
 920   0.0000       5.612696       152.7292 
 921   0.0000       5.625977       153.0906 
 922   0.0000       5.636355       153.3730 
 923   0.0000       5.647845       153.6857 
 924   0.0000       5.652496       153.8122 
 925   0.0000       5.665903       154.1771 
 926   0.0000       5.679849       154.5566 
 927   0.0000       5.684561       154.6848 
 928   0.0000       5.692015       154.8876 
 929   0.0000       5.709216       155.3557 
 930   0.0000       5.723305       155.7390 
 931   0.0000       5.724627       155.7750 
 932   0.0000       5.729319       155.9027 
 933   0.0000       5.749430       156.4499 
 934   0.0000       5.754556       156.5894 
 935   0.0000       5.765201       156.8791 
 936   0.0000       5.782305       157.3445 
 937   0.0000       5.808183       158.0487 
 938   0.0000       5.817266       158.2959 
 939   0.0000       5.825278       158.5139 
 940   0.0000       5.848143       159.1361 
 941   0.0000       5.851526       159.2281 
 942   0.0000       5.869137       159.7073 
 943   0.0000       5.882790       160.0788 
 944   0.0000       5.897195       160.4708 
 945   0.0000       5.906905       160.7351 
 946   0.0000       5.998491       163.2272 
 947   0.0000       6.022416       163.8783 
 948   0.0000       6.112923       166.3411 
 949   0.0000       6.113988       166.3701 
 950   0.0000       6.133558       166.9026 
 951   0.0000       6.155145       167.4900 
 952   0.0000       6.176550       168.0725 
 953   0.0000       6.182543       168.2355 
 954   0.0000       6.205175       168.8514 
 955   0.0000       6.216615       169.1627 
 956   0.0000       6.218159       169.2047 
 957   0.0000       6.231753       169.5746 
 958   0.0000       6.233992       169.6355 
 959   0.0000       6.249559       170.0592 
 960   0.0000       6.276727       170.7984 
 961   0.0000       6.291406       171.1978 
 962   0.0000       6.320145       171.9799 
 963   0.0000       6.339828       172.5155 
 964   0.0000       6.360237       173.0709 
 965   0.0000       6.361028       173.0924 
 966   0.0000       6.378616       173.5710 
 967   0.0000       6.415053       174.5625 
 968   0.0000       6.448932       175.4844 
 969   0.0000       6.522246       177.4793 
 970   0.0000       6.587544       179.2562 
 971   0.0000       6.663555       181.3246 
 972   0.0000       6.819818       185.5767 
 973   0.0000       6.865531       186.8206 
 974   0.0000       6.885939       187.3759 
 975   0.0000       6.906664       187.9399 
 976   0.0000       6.931873       188.6259 
 977   0.0000       6.942866       188.9250 
 978   0.0000       6.959136       189.3677 
 979   0.0000       6.966985       189.5813 
 980   0.0000       6.983905       190.0417 
 981   0.0000       7.020223       191.0300 
 982   0.0000       7.030264       191.3032 
 983   0.0000       7.093174       193.0151 
 984   0.0000       7.163840       194.9380 
 985   0.0000       7.234408       196.8582 
 986   0.0000       7.364823       200.4070 
 987   0.0000       7.457711       202.9346 
 988   0.0000       7.494543       203.9369 
 989   0.0000       7.560252       205.7249 
 990   0.0000       7.572338       206.0538 
 991   0.0000       7.603333       206.8972 
 992   0.0000       7.713004       209.8815 
 993   0.0000       7.787829       211.9176 
 994   0.0000       7.839905       213.3347 
 995   0.0000       7.896139       214.8649 
 996   0.0000       8.034650       218.6339 
 997   0.0000       8.195976       223.0238 
 998   0.0000       8.302301       225.9171 
 999   0.0000       9.429158       256.5804 
 1000   0.0000       9.453956       257.2552 
 1001   0.0000       9.464975       257.5551 
 1002   0.0000       9.472458       257.7587 
 1003   0.0000       9.486539       258.1419 
 1004   0.0000       9.509566       258.7684 
 1005   0.0000       9.711018       264.2502 
 1006   0.0000      10.095325       274.7078 
 1007   0.0000      10.129957       275.6501 
 1008   0.0000      10.136849       275.8377 
 1009   0.0000      10.220193       278.1056 
 1010   0.0000      10.224875       278.2330 
 1011   0.0000      10.259523       279.1758 
 1012   0.0000      10.376595       282.3615 
 1013   0.0000      10.420213       283.5484 
 1014   0.0000      10.521144       286.2949 
 1015   0.0000      17.203456       468.1298 
 1016   0.0000      17.392313       473.2689 
 1017   0.0000      18.243110       496.4203 
 1018   0.0000      18.751538       510.2553 
 1019   0.0000      18.810597       511.8624 
 1020   0.0000      19.029712       517.8248 
 1021   0.0000      19.732205       536.9406 
 1022   0.0000      20.154384       548.4287 
 1023   0.0000      20.610403       560.8376 
 1024   0.0000      21.536874       586.0481 

                 SPIN DOWN ORBITALS
  NO   OCC          E(Eh)            E(eV) 
   0   1.0000    -261.551937     -7117.1900 
   1   1.0000    -104.780072     -2851.2107 
   2   1.0000    -104.777455     -2851.1395 
   3   1.0000    -104.777358     -2851.1369 
   4   1.0000     -32.061455      -872.4365 
   5   1.0000     -27.539444      -749.3864 
   6   1.0000     -27.539314      -749.3828 
   7   1.0000     -27.538962      -749.3732 
   8   1.0000     -20.569460      -559.7235 
   9   1.0000     -11.393256      -310.0263 
  10   1.0000     -11.356097      -309.0151 
  11   1.0000     -11.288211      -307.1678 
  12   1.0000     -11.270677      -306.6907 
  13   1.0000     -11.268836      -306.6406 
  14   1.0000     -11.257982      -306.3453 
  15   1.0000     -11.242195      -305.9157 
  16   1.0000     -11.240301      -305.8641 
  17   1.0000     -10.506582      -285.8986 
  18   1.0000     -10.504006      -285.8285 
  19   1.0000     -10.503889      -285.8254 
  20   1.0000      -7.972548      -216.9440 
  21   1.0000      -7.971860      -216.9253 
  22   1.0000      -7.971798      -216.9237 
  23   1.0000      -7.969903      -216.8721 
  24   1.0000      -7.969862      -216.8710 
  25   1.0000      -7.969298      -216.8556 
  26   1.0000      -7.969229      -216.8537 
  27   1.0000      -7.969079      -216.8497 
  28   1.0000      -7.969029      -216.8483 
  29   1.0000      -4.136677      -112.5647 
  30   1.0000      -2.658589       -72.3439 
  31   1.0000      -2.658354       -72.3375 
  32   1.0000      -2.657550       -72.3156 
  33   1.0000      -1.356411       -36.9098 
  34   1.0000      -1.155526       -31.4435 
  35   1.0000      -1.079510       -29.3750 
  36   1.0000      -1.038530       -28.2598 
  37   1.0000      -1.036697       -28.2100 
  38   1.0000      -1.027024       -27.9468 
  39   1.0000      -1.025288       -27.8995 
  40   1.0000      -1.003012       -27.2934 
  41   1.0000      -0.970151       -26.3991 
  42   1.0000      -0.915302       -24.9066 
  43   1.0000      -0.793331       -21.5876 
  44   1.0000      -0.760780       -20.7019 
  45   1.0000      -0.690526       -18.7902 
  46   1.0000      -0.683545       -18.6002 
  47   1.0000      -0.667119       -18.1532 
  48   1.0000      -0.641929       -17.4678 
  49   1.0000      -0.624126       -16.9833 
  50   1.0000      -0.622997       -16.9526 
  51   1.0000      -0.594877       -16.1874 
  52   1.0000      -0.593546       -16.1512 
  53   1.0000      -0.586437       -15.9578 
  54   1.0000      -0.578636       -15.7455 
  55   1.0000      -0.568877       -15.4799 
  56   1.0000      -0.560566       -15.2538 
  57   1.0000      -0.542516       -14.7626 
  58   1.0000      -0.537464       -14.6251 
  59   1.0000      -0.531931       -14.4746 
  60   1.0000      -0.520041       -14.1510 
  61   1.0000      -0.507420       -13.8076 
  62   1.0000      -0.482164       -13.1203 
  63   1.0000      -0.472134       -12.8474 
  64   1.0000      -0.468180       -12.7398 
  65   1.0000      -0.442140       -12.0312 
  66   1.0000      -0.439754       -11.9663 
  67   1.0000      -0.437350       -11.9009 
  68   1.0000      -0.425764       -11.5856 
  69   1.0000      -0.416746       -11.3402 
  70   1.0000      -0.404413       -11.0046 
  71   1.0000      -0.391596       -10.6559 
  72   0.0000       0.009971         0.2713 
  73   0.0000       0.021247         0.5782 
  74   0.0000       0.023539         0.6405 
  75   0.0000       0.031328         0.8525 
  76   0.0000       0.038106         1.0369 
  77   0.0000       0.041440         1.1277 
  78   0.0000       0.042886         1.1670 
  79   0.0000       0.043788         1.1915 
  80   0.0000       0.044958         1.2234 
  81   0.0000       0.054853         1.4926 
  82   0.0000       0.056498         1.5374 
  83   0.0000       0.060757         1.6533 
  84   0.0000       0.063408         1.7254 
  85   0.0000       0.065465         1.7814 
  86   0.0000       0.066065         1.7977 
  87   0.0000       0.070981         1.9315 
  88   0.0000       0.073009         1.9867 
  89   0.0000       0.083225         2.2647 
  90   0.0000       0.087450         2.3796 
  91   0.0000       0.089515         2.4358 
  92   0.0000       0.090455         2.4614 
  93   0.0000       0.095623         2.6020 
  94   0.0000       0.101440         2.7603 
  95   0.0000       0.103794         2.8244 
  96   0.0000       0.110144         2.9972 
  97   0.0000       0.116080         3.1587 
  98   0.0000       0.118970         3.2373 
  99   0.0000       0.120099         3.2681 
 100   0.0000       0.120527         3.2797 
 101   0.0000       0.121288         3.3004 
 102   0.0000       0.123776         3.3681 
 103   0.0000       0.124954         3.4002 
 104   0.0000       0.127723         3.4755 
 105   0.0000       0.129369         3.5203 
 106   0.0000       0.131039         3.5658 
 107   0.0000       0.132036         3.5929 
 108   0.0000       0.134400         3.6572 
 109   0.0000       0.137082         3.7302 
 110   0.0000       0.138182         3.7601 
 111   0.0000       0.141917         3.8618 
 112   0.0000       0.147429         4.0117 
 113   0.0000       0.148333         4.0364 
 114   0.0000       0.151430         4.1206 
 115   0.0000       0.153359         4.1731 
 116   0.0000       0.157867         4.2958 
 117   0.0000       0.160518         4.3679 
 118   0.0000       0.166812         4.5392 
 119   0.0000       0.167039         4.5454 
 120   0.0000       0.173151         4.7117 
 121   0.0000       0.176584         4.8051 
 122   0.0000       0.179613         4.8875 
 123   0.0000       0.183285         4.9874 
 124   0.0000       0.187648         5.1062 
 125   0.0000       0.189420         5.1544 
 126   0.0000       0.194179         5.2839 
 127   0.0000       0.195900         5.3307 
 128   0.0000       0.200276         5.4498 
 129   0.0000       0.202253         5.5036 
 130   0.0000       0.205165         5.5828 
 131   0.0000       0.207707         5.6520 
 132   0.0000       0.211399         5.7525 
 133   0.0000       0.213690         5.8148 
 134   0.0000       0.216687         5.8964 
 135   0.0000       0.224421         6.1068 
 136   0.0000       0.226520         6.1639 
 137   0.0000       0.227742         6.1972 
 138   0.0000       0.234112         6.3705 
 139   0.0000       0.236618         6.4387 
 140   0.0000       0.241820         6.5803 
 141   0.0000       0.246776         6.7151 
 142   0.0000       0.248704         6.7676 
 143   0.0000       0.250334         6.8119 
 144   0.0000       0.252973         6.8838 
 145   0.0000       0.255245         6.9456 
 146   0.0000       0.259040         7.0488 
 147   0.0000       0.260742         7.0951 
 148   0.0000       0.261972         7.1286 
 149   0.0000       0.267546         7.2803 
 150   0.0000       0.270469         7.3598 
 151   0.0000       0.278963         7.5910 
 152   0.0000       0.281660         7.6644 
 153   0.0000       0.284802         7.7498 
 154   0.0000       0.285961         7.7814 
 155   0.0000       0.291670         7.9367 
 156   0.0000       0.298046         8.1102 
 157   0.0000       0.299415         8.1475 
 158   0.0000       0.303148         8.2491 
 159   0.0000       0.307095         8.3565 
 160   0.0000       0.311496         8.4762 
 161   0.0000       0.313447         8.5293 
 162   0.0000       0.316146         8.6028 
 163   0.0000       0.318244         8.6599 
 164   0.0000       0.326243         8.8775 
 165   0.0000       0.331318         9.0156 
 166   0.0000       0.338965         9.2237 
 167   0.0000       0.341838         9.3019 
 168   0.0000       0.348566         9.4850 
 169   0.0000       0.351101         9.5539 
 170   0.0000       0.355371         9.6701 
 171   0.0000       0.358895         9.7660 
 172   0.0000       0.363317         9.8863 
 173   0.0000       0.365192         9.9374 
 174   0.0000       0.368005        10.0139 
 175   0.0000       0.371367        10.1054 
 176   0.0000       0.373694        10.1687 
 177   0.0000       0.377801        10.2805 
 178   0.0000       0.381571        10.3831 
 179   0.0000       0.383710        10.4413 
 180   0.0000       0.384176        10.4540 
 181   0.0000       0.389086        10.5876 
 182   0.0000       0.391353        10.6492 
 183   0.0000       0.394691        10.7401 
 184   0.0000       0.397238        10.8094 
 185   0.0000       0.401314        10.9203 
 186   0.0000       0.402143        10.9429 
 187   0.0000       0.406663        11.0659 
 188   0.0000       0.408581        11.1181 
 189   0.0000       0.412552        11.2261 
 190   0.0000       0.417914        11.3720 
 191   0.0000       0.419653        11.4193 
 192   0.0000       0.423065        11.5122 
 193   0.0000       0.427858        11.6426 
 194   0.0000       0.431100        11.7308 
 195   0.0000       0.436889        11.8884 
 196   0.0000       0.438778        11.9398 
 197   0.0000       0.441273        12.0077 
 198   0.0000       0.448964        12.2169 
 199   0.0000       0.453175        12.3315 
 200   0.0000       0.457985        12.4624 
 201   0.0000       0.461523        12.5587 
 202   0.0000       0.465739        12.6734 
 203   0.0000       0.468996        12.7620 
 204   0.0000       0.470950        12.8152 
 205   0.0000       0.473402        12.8819 
 206   0.0000       0.476089        12.9550 
 207   0.0000       0.477265        12.9871 
 208   0.0000       0.477952        13.0057 
 209   0.0000       0.483208        13.1488 
 210   0.0000       0.485704        13.2167 
 211   0.0000       0.487657        13.2698 
 212   0.0000       0.491545        13.3756 
 213   0.0000       0.493259        13.4222 
 214   0.0000       0.494773        13.4635 
 215   0.0000       0.498734        13.5712 
 216   0.0000       0.502355        13.6698 
 217   0.0000       0.503532        13.7018 
 218   0.0000       0.505051        13.7431 
 219   0.0000       0.511467        13.9177 
 220   0.0000       0.517195        14.0736 
 221   0.0000       0.521701        14.1962 
 222   0.0000       0.524468        14.2715 
 223   0.0000       0.527537        14.3550 
 224   0.0000       0.532221        14.4825 
 225   0.0000       0.533892        14.5279 
 226   0.0000       0.537510        14.6264 
 227   0.0000       0.542590        14.7646 
 228   0.0000       0.545697        14.8492 
 229   0.0000       0.550430        14.9780 
 230   0.0000       0.553782        15.0692 
 231   0.0000       0.560797        15.2601 
 232   0.0000       0.562291        15.3007 
 233   0.0000       0.565174        15.3792 
 234   0.0000       0.569803        15.5051 
 235   0.0000       0.573560        15.6074 
 236   0.0000       0.576681        15.6923 
 237   0.0000       0.578921        15.7532 
 238   0.0000       0.580021        15.7832 
 239   0.0000       0.584891        15.9157 
 240   0.0000       0.587126        15.9765 
 241   0.0000       0.591091        16.0844 
 242   0.0000       0.596600        16.2343 
 243   0.0000       0.600363        16.3367 
 244   0.0000       0.603944        16.4341 
 245   0.0000       0.607186        16.5224 
 246   0.0000       0.610832        16.6216 
 247   0.0000       0.616067        16.7640 
 248   0.0000       0.617690        16.8082 
 249   0.0000       0.618856        16.8399 
 250   0.0000       0.621026        16.8990 
 251   0.0000       0.623452        16.9650 
 252   0.0000       0.634243        17.2586 
 253   0.0000       0.639377        17.3983 
 254   0.0000       0.643529        17.5113 
 255   0.0000       0.646153        17.5827 
 256   0.0000       0.647144        17.6097 
 257   0.0000       0.652431        17.7536 
 258   0.0000       0.659207        17.9379 
 259   0.0000       0.661309        17.9951 
 260   0.0000       0.665597        18.1118 
 261   0.0000       0.667868        18.1736 
 262   0.0000       0.670222        18.2377 
 263   0.0000       0.677440        18.4341 
 264   0.0000       0.681710        18.5503 
 265   0.0000       0.688100        18.7241 
 266   0.0000       0.689623        18.7656 
 267   0.0000       0.695804        18.9338 
 268   0.0000       0.699315        19.0293 
 269   0.0000       0.702496        19.1159 
 270   0.0000       0.704512        19.1708 
 271   0.0000       0.710403        19.3311 
 272   0.0000       0.716743        19.5036 
 273   0.0000       0.720282        19.5999 
 274   0.0000       0.731145        19.8955 
 275   0.0000       0.734000        19.9732 
 276   0.0000       0.736568        20.0430 
 277   0.0000       0.741420        20.1751 
 278   0.0000       0.746085        20.3020 
 279   0.0000       0.752872        20.4867 
 280   0.0000       0.760279        20.6883 
 281   0.0000       0.764330        20.7985 
 282   0.0000       0.769243        20.9322 
 283   0.0000       0.772921        21.0323 
[...]
  | Av. % of trace(Dpq) retained        ...  99.508810804921
  | sigma^2 in % of trace(Dij) retained ...   8.25e+00
  | sigma^2 in % of trace(Dip) retained ...   2.07e+01
  | sigma^2 in % of trace(Dpq) retained ...   1.36e-01
  | Av. % of trace(Di) retained         ...  99.998525849063
  | Av. % of trace(Dp) retained         ...  99.999998218969
  | sigma^2 in % of trace(Di) retained  ...   7.63e-07
  | sigma^2 in % of trace(Dp) retained  ...   7.50e-13
 Distributions of % trace(Dij) recovered:
  |       >= 99.9  ...   105 ( 20.3 % of all IJ-pairs)
  |   [80.0, 90.0) ...    32 (  6.2 % of all IJ-pairs)
  |   [90.0, 99.0) ...   291 ( 56.2 % of all IJ-pairs)
  |   [99.0, 99.9) ...    90 ( 17.4 % of all IJ-pairs)
 Distributions of % trace(Dip) recovered:
  |   [80.0, 90.0) ...    14 ( 11.8 % of all IP-pairs)
  |   [90.0, 99.0) ...    60 ( 50.4 % of all IP-pairs)
  |   [99.0, 99.9) ...    45 ( 37.8 % of all IP-pairs)
 Distributions of % trace(Dpq) recovered:
  |       >= 99.9  ...     5 ( 33.3 % of all PQ-pairs)
  |   [99.0, 99.9) ...    10 ( 66.7 % of all PQ-pairs)
 Distributions of % trace(Di) recovered :
  |       >= 99.9  ...    43 (100.0 % of all I-pairs )
 Distributions of % trace(Dp) recovered :
  |       >= 99.9  ...     5 (100.0 % of all P-pairs )

                       ===========================
                       1137 OF 1744 PAIRS ARE KEPT
                       ===========================

 Initial PAO correlation energy (all pairs)    ...  -2.6965885741 Eh
 Energy constituents in PAO basis (Eh):
  | Vijab(+0) ...  -2.2659784682
  | Viab (-1) ...  -0.1759582654
  | Vab  (-2) ...  -0.0573576802
  | Va   (-1) ...  -0.0000427176
  | Vija (+1) ...  -0.0731293449
  | Vij  (+2) ...  -0.0155133953
  | Via  (+0) ...  -0.1084485984
  | Vi   (+1) ...  -0.0001601041
 Initial PNO correlation energy                ...  -2.6619807916 Eh
 Energy constituents in PNO basis (Eh):
  | Vijab(+0) ...  -2.2476853612 (err=  0.0182931069)
  | Viab (-1) ...  -0.1613067572 (err=  0.0146515081)
  | Vab  (-2) ...  -0.0568851811 (err=  0.0004724992)
  | Va   (-1) ...  -0.0000246992 (err=  0.0000180185)
  | Vija (+1) ...  -0.0721372754 (err=  0.0009920695)
  | Vij  (+2) ...  -0.0154622956 (err=  0.0000510997)
  | Via  (+0) ...  -0.1083196980 (err=  0.0001289004)
  | Vi   (+1) ...  -0.0001595239 (err=  0.0000005802)
 Sum of total truncation errors ...   0.0346077825 Eh
  | Pair screening ...   0.0113800619 Eh
  | PNO truncation ...   0.0232277206 Eh

 UMP2 correlation energy (PAO) ...  -2.6915946935
  | alpha-alpha ...  -0.3858985492 (NP_aa=  949)
  | alpha-beta  ...  -1.9993673685 (NP_ab= 1719)
  | beta -beta  ...  -0.3063287758 (NP_bb=  737)
 UMP2 correlation energy (PNO) ...  -2.6566202551
  | alpha-alpha ...  -0.3736877101 (err=  0.0122108391, NP_aa=  604)
  | alpha-beta  ...  -1.9805827337 (err=  0.0187846348, NP_ab= 1112)
  | beta -beta  ...  -0.3023498112 (err=  0.0039789645, NP_bb=  475)
 Sum of total UMP2 truncation errors ...   0.0349744384 Eh
  | Pair screening ...   0.0113820404 Eh
  | PNO truncation ...   0.0235923981 Eh
 Timing for NEV-PNO construction (sec.)
  | Intermediate construction  ..           42.484
  | Amplitude construction     ..           64.835
  | Total time                 ..          107.319
 Making pair pair interaction lists ...      ok
 Total size for 2-ext PNO integrals ...     10.9 MB
Checking the number of SOMO/SOMO doubles PNOs ... 
 #Truncate: (72, 72)[169] -> [84] .. 
 #Truncate: (73, 73)[173] -> [84] .. 
 #Truncate: (74, 74)[174] -> [84] .. 
 #Truncate: (75, 75)[173] -> [84] .. 
 #Truncate: (76, 76)[170] -> [84] .. 

--------------------------------
LOCAL RI TRANSFORMATION (VABPAO)
--------------------------------

Number of PAOs:    1030
Basis functions:   1025 (343 shells)
Aux. functions:    2424 (644 shells)

Processing maps (0.0 sec)
Average map sizes:
   Aux shells -> PAOs           1030.0
   PAOs       -> AO shells       343.0

Calculating integrals (220.2 sec, 37370.165 MB)
Finished
-----------------------------
LOCAL RI TRANSFORMATION (IJV)
-----------------------------

Orbital window:      29 to 76
Basis functions:   1025 (343 shells)
Aux. functions:    2424 (644 shells)

Processing maps (0.0 sec)
Average map sizes:
   Aux shells -> MOs(i)           46.7
   Aux shells -> MOs(j)           48.0
   MOs        -> AO shells       340.6

Calculating integrals (23.3 sec, 41.566 MB)
Sorting integrals (0.3 sec, 41.539 MB)
Total time for the integral transformation: 23.7 sec


-------------------------------------
Pair Pair Term precalculation with     
RI-(ij|mn) and (im|jn) transformation  
ON THE FLY                             
-------------------------------------

   IBatch   1 (of   2)              ... done ( 1270.082 sec)
   IBatch   2 (of   2)              ... done ( 1334.877 sec)
Total EXT                           ...        2604.959 sec

---------------------
RI-PNO TRANSFORMATION
---------------------

Total Number of PNOs                   ... 34890
Total Number of IJ-PNOs                ... 30703
Total Number of IP-PNOs                ...  3243
Total Number of PQ-PNOs                ...   944
Total Number of IJ-pairs               ...   993
Total Number of PI-pairs               ...   119
Total Number of PQ-pairs               ...    25
Average number of PNOs per pair        ...    30
Maximal number of PNOs per pair        ...    84
>> Statistics for ij-pairs..
   #pairs with  1 -  5 PNOs   :    0
   #pairs with  6 - 10 PNOs   :    0
   #pairs with 11 - 15 PNOs   :   58
   #pairs with 16 - 20 PNOs   :  248
   #pairs with 21 - 25 PNOs   :  202
   #pairs with 26 - 30 PNOs   :  112
   #pairs with 31 - 35 PNOs   :   80
   #pairs with 36 - 40 PNOs   :   64
   #pairs with 41 - 45 PNOs   :   36
   #pairs with 46 - 50 PNOs   :   23
   #pairs with 51 - 55 PNOs   :   38
   #pairs with 56 - 60 PNOs   :   51
   #pairs with 61 - 65 PNOs   :   76
   #pairs with 66 - 70 PNOs   :    5
>> Statistics for ip-pairs..
   #pairs with  1 -  5 PNOs   :    0
   #pairs with  6 - 10 PNOs   :    1
   #pairs with 11 - 15 PNOs   :   16
   #pairs with 16 - 20 PNOs   :    6
   #pairs with 21 - 25 PNOs   :   25
   #pairs with 26 - 30 PNOs   :   12
   #pairs with 31 - 35 PNOs   :   47
   #pairs with 36 - 40 PNOs   :   12
   #pairs with 41 - 45 PNOs   :    0
   #pairs with 46 - 50 PNOs   :    0
>> Statistics for pq-pairs..
   #pairs with  1 -  5 PNOs   :    0
   #pairs with  6 - 10 PNOs   :    0
   #pairs with 11 - 15 PNOs   :    0
   #pairs with 16 - 20 PNOs   :    0
   #pairs with 21 - 25 PNOs   :   10
   #pairs with 26 - 30 PNOs   :   10
   #pairs with 31 - 35 PNOs   :    0
   #pairs with 36 - 40 PNOs   :    0
   #pairs with 41 - 45 PNOs   :    0
   #pairs with 46 - 50 PNOs   :    0
   #pairs with 81 - 85 PNOs   :    5

Generation of (ij|ab)[P] integrals            ... on
Generation of (ia|bc)[P],(ja|bc)[P] integrals ... on
Storage of 3 and 4 external integrals         ... on
Generation of ALL (ka|bc)[P] integrals        ... on
Keep RI integrals in memory                   ... off

Ibatch:  1 (of  1)
Starting 2-4 index PNO integral generation ... done

Timings:
Total PNO integral transformation time     ...       2253.201 sec
Size of the 3-external file                ...       281 MB
Size of the 4-external file                ...      1880 MB
Size of the IKJL file                      ...        19 MB
Size of the all 3-external file            ...      6759 MB
Size of the 1-external file                ...        22 MB

Size of the PAO/PNO coefficient matrices   ...     229.4 MB

Making pair/pair overlap matrices          ... done (  371.682 sec)
Size of the pair overlap file              ...    2482.0 MB
Total # unrestricted pairs ...       2191
  # of alpha-alpha pairs   ...        604
  # of alpha-beta pairs    ...       1112
  # of beta-beta pairs     ...        475
Constructing the guess amplitudes          ... done (    0.700 sec)

-------------------------
FINAL STARTUP INFORMATION
-------------------------

E(0)                                       ...  -3028.420199569
E(SL-UMP2 in NEV-PNO space)                ...     -2.692556089
Initial E(tot)                             ...  -3031.112755658
<T|T>                                      ...      0.538530997
Number of unrestricted pairs included      ... 2191
Total number of pairs                      ... 4095
----------------------------------------------------------
                     OPEN-SHELL COUPLED CLUSTER ITERATIONS
----------------------------------------------------------

Number of PNO amplitudes to be optimized        ...          2105863
Number of canonical amplitudes for strong pairs ...       1978932702
Untruncated number of canonical amplitudes      ...       3698645738

Iter       E(tot)           E(Corr)          Delta-E          Residual     Time
  0  -3031.119979440     -2.663844037      0.028712052      0.023955474 2157.95
                           *** Turning on DIIS ***
  1  -3031.233060165     -2.776924762     -0.113080725      0.013608721 2160.56
  2  -3031.298298177     -2.842162774     -0.065238012      0.008649540 2170.29
  3  -3031.319793536     -2.863658133     -0.021495359      0.003968537 2146.12
  4  -3031.327149309     -2.871013906     -0.007355773      0.002714623 2156.99
  5  -3031.330915317     -2.874779914     -0.003766008      0.001706843 2129.28
  6  -3031.332266028     -2.876130625     -0.001350711      0.000894243 2139.93
  7  -3031.333046330     -2.876910927     -0.000780302      0.000446849 2137.16
  8  -3031.333227245     -2.877091842     -0.000180914      0.000211660 2142.33
  9  -3031.333273052     -2.877137649     -0.000045807      0.000136000 2136.40
 10  -3031.333271709     -2.877136306      0.000001343      0.000102682 2128.70
 11  -3031.333282871     -2.877147468     -0.000011163      0.000057465 2131.19
 12  -3031.333288992     -2.877153589     -0.000006121      0.000036404 2126.85
 13  -3031.333292010     -2.877156607     -0.000003018      0.000019180 2031.09
 14  -3031.333292723     -2.877157320     -0.000000713      0.000007580 1834.79
               --- The CCSD iterations have converged ---

E(0)                                       ...  -3028.420199569
E(CORR)(strong-pairs)                      ...     -2.877157320
E(CORR)(weak-pairs)                        ...     -0.035935834
E(CORR)(corrected)                         ...     -2.913093154
E(TOT)                                     ...  -3031.333292723
Singles norm <S|S>**1/2                    ...      0.191753077 ( 0.064823800, 0.126929277)  
T1 diagnostic                              ...      0.020101184                              
<S**2>(linearized)                         ...      8.7507817 (ideal value:      8.7500000)

----------------------
LARGEST PNO AMPLITUDES
----------------------
  51b-> 76b  -1b-> -1b       0.056450
  45a-> 78a  45b-> 78b       0.056169
  49b-> 72b  -1b-> -1b       0.051541
  43a-> 78a  43b-> 78b       0.050727
  44a-> 77a  -1a-> -1a       0.050532
  52b-> 76b  -1b-> -1b       0.050125
  44b-> 77b  -1b-> -1b       0.049550
  44a-> 77a  44b-> 77b       0.049167
  45a-> 77a  45b-> 77b       0.047108
  56a-> 77a  56b-> 77b       0.045453
  58a-> 77a  58b-> 77b       0.045052
  55a-> 77a  55b-> 77b       0.044264
  38b-> 73b  -1b-> -1b       0.043793
  67a-> 77a  67b-> 77b       0.043700
  49b-> 75b  -1b-> -1b       0.043482
  63a-> 77a  63b-> 77b       0.043119

Total # unrestricted pairs ...       1212
  # of alpha-alpha pairs   ...        344
  # of alpha-beta pairs    ...        606
  # of beta-beta pairs     ...        262

-------------------------------------------
DLPNO BASED TRIPLES CORRECTION
-------------------------------------------

Singles multiplier          ...  1.000000
Fragment selection                          .... not used
TCutTNO                     ... 1.000e-09
TCutMP2Pairs                ... 1.000e-05
TCutDOStrong                ... 2.000e-02
TCutMKNStrong               ... 1.000e-02
TCutDOWeak                  ... 4.000e-02
TCutMKNWeak                 ... 1.000e-01
NTCutTNO                    ... 1

Number of Triples that are to be computed         ...     36154

 . . . . . . . . .
10% done  
20% done  
30% done  
40% done  
50% done  
60% done  
70% done  
80% done  
90% done  
          Batch   1   done (  18011.780 sec)

Triples-Correction TCutTNO=   1.000e-09 (NWeakPairs = 0  1  2  3)  -0.118264964433   -0.001780140566    0.000000000000    0.000000000000
Triples-Correction  -0.120045105000

Triples timings:
Total time                      ... 18719.019 sec

Triples List generation         ...     0.000 sec
TNO generation                  ...   706.919 sec
Pair density generation         ...     0.087 sec
Look up tables                  ...     0.122 sec
Generating 3-index integrals    ... 11725.981 sec
Make 4-ind.int. from 3-ind.int  ...     4.023 sec
Projecting amplitudes (D + S)   ...  6026.961 sec
Sorting integrals for spin cases...    53.570 sec
Calculate W0/W1                 ...   162.692 sec
Energy contr. (sum over a,b,c)  ...    38.438 sec

Everything after 3-index        ...  6431.344 sec

Energy contribution AAA         ...    24.690 sec
Energy contribution AAB         ...   112.945 sec
Energy contribution ABB         ...   103.363 sec
Energy contribution BBB         ...    13.740 sec
prep                ...     3.346 sec
makeTTNO            ...  5966.780 sec
copyij              ...     0.133 sec
copyil              ...     4.331 sec
transposeij         ...     0.080 sec
newMatInDoubleProj  ...    56.794 sec
BlasInDoubleProj    ...  3235.142 sec
ProjSingles         ...    49.720 sec
ProjDoubles         ...  5977.240 sec
overall Doubles for projection      ... 3358551
used Doubles for projection         ... 3358551


Number of Triples   (0, 1, 2, 3 weak pairs; overall):  17601   12399       0       0  ( 30000)
Number of Atoms     (0, 1, 2, 3 weak pairs; overall):   20.7    14.3     0.0     0.0  (    29)
Number of PAOs      (0, 1, 2, 3 weak pairs; overall):  791.7   584.1     0.0     0.0  (  1025)
Number of AuxFcns   (0, 1, 2, 3 weak pairs; overall): 1012.7   566.5     0.0     0.0  (  2424)
Number of TNOs (0, 1, 2, 3 weak pairs         ):   78.0    55.5     0.0     0.0
Aver. Number of NTNO, Atoms, PAOs, AuxFcns / Triples:  30000    68.7    18.0   705.9   828.3

Triples Correction (T)                     ...     -0.120045105
    alpha-alpha-alpha ... -0.003891331 (  3.2%)
    alpha-alpha-beta  ... -0.056366126 ( 47.0%)
    alpha-beta -beta  ... -0.055660970 ( 46.4%)
    beta -beta -beta  ... -0.004126677 (  3.4%)
Final correlation energy                   ...     -3.033138259
E(CCSD)                                    ...  -3031.333292723
E(CCSD(T))                                 ...  -3031.453337828

----------------------------
STATISTICS FOR PAIR-ENERGIES
----------------------------
Minimum, maximum and average ratios of UMP and CCSD pair-energies ... 0.45, 1.44, 1.02


------------------------------------------------------------------------------- 
                                     TIMINGS                                   
------------------------------------------------------------------------------- 


Total execution time                   ...    61549.426 sec

Localization of occupied MO's          ...       10.450 sec (  0.0%)
Fock Matrix Formation                  ...     1448.078 sec (  2.4%)
Differential overlap integrals         ...        1.419 sec (  0.0%)
Organizing maps                        ...        1.724 sec (  0.0%)
RI 3-index integral generations        ...      310.748 sec (  0.5%)
RI-PNO integral transformation         ...     5247.717 sec (  8.5%)
Initial Guess                          ...     2127.735 sec (  3.5%)
DIIS Solver                            ...       16.289 sec (  0.0%)
State Vector Update                    ...        0.913 sec (  0.0%)
Sigma-vector construction              ...    31729.617 sec ( 51.6%)
  <0|H|D>                              ...        0.029 sec (  0.0% of sigma)
  <D|H|D>(0-ext)                       ...     5651.840 sec ( 17.8% of sigma)
  <D|H|D>(2-ext Fock)                  ...        1.451 sec (  0.0% of sigma)
  <D|H|D>(2-ext)                       ...     4611.320 sec ( 14.5% of sigma)
  <D|H|D>(4-ext)                       ...      146.075 sec (  0.5% of sigma)
  <D|H|D>(4-ext-corr)                  ...      918.469 sec (  2.9% of sigma)
  CCSD doubles correction              ...      567.987 sec (  1.8% of sigma)
  <S|H|S>                              ...      739.152 sec (  2.3% of sigma)
  <S|H|D>(1-ext)                       ...      299.259 sec (  0.9% of sigma)
  <D|H|S>(1-ext)                       ...        0.854 sec (  0.0% of sigma)
  <S|H|D>(3-ext)                       ...       21.102 sec (  0.1% of sigma)
  CCSD singles correction              ...        0.005 sec (  0.0% of sigma)
  Fock-dressing                        ...     9419.672 sec ( 29.7% of sigma)
  Singles amplitudes                   ...      128.918 sec (  0.4% of sigma)
  (ik|jl)-dressing                     ...     7061.162 sec ( 22.3% of sigma)
  (ij|ab),(ia|jb)-dressing             ...     1884.659 sec (  5.9% of sigma)
  Pair energies                        ...        0.182 sec (  0.0% of sigma)
Total Time for computing (T)           ...    21042.895 sec ( 34.2% of ALL)


-------------------------   --------------------
FINAL SINGLE POINT ENERGY     -3031.453337828124
-------------------------   --------------------


                            ***************************************
                            *     ORCA property calculations      *
                            ***************************************

                                    ---------------------
                                    Active property flags
                                    ---------------------
   (+) Dipole Moment


------------------------------------------------------------------------------
                       ORCA ELECTRIC PROPERTIES CALCULATION
------------------------------------------------------------------------------

Dipole Moment Calculation                       ... on
Quadrupole Moment Calculation                   ... off
Polarizability Calculation                      ... off
GBWName                                         ... simple-grid-190-195-b3lyp_d3bj-631gd-gas-singlepoint-DLPNO_CCSD_T1-NormalPNO-augtz-gas.gbw
Electron density file                           ... simple-grid-190-195-b3lyp_d3bj-631gd-gas-singlepoint-DLPNO_CCSD_T1-NormalPNO-augtz-gas.scfp.tmp
The origin for moment calculation is the CENTER OF MASS  = (-0.298435, -0.020743  0.016524)

-------------
DIPOLE MOMENT
-------------
                                X             Y             Z
Electronic contribution:    -40.20989      -3.37079       2.01105
Nuclear contribution   :     44.46674       3.09068      -2.46207
                        -----------------------------------------
Total Dipole Moment    :      4.25685      -0.28011      -0.45102
                        -----------------------------------------
Magnitude (a.u.)       :      4.28983
Magnitude (Debye)      :     10.90388



--------------------
Rotational spectrum 
--------------------
 
Rotational constants in cm-1:     0.018807     0.012032     0.010832 
Rotational constants in MHz :   563.809126   360.719651   324.735884 

 Dipole components along the rotational axes: 
x,y,z [a.u.] :    -4.258996    -0.268058    -0.437898 
x,y,z [Debye]:   -10.825506    -0.681348    -1.113049 

 

Timings for individual modules:

Sum of individual times         ...    78711.673 sec (=1311.861 min)
GTO integral calculation        ...       13.167 sec (=   0.219 min)   0.0 %
SCF iterations                  ...    17129.017 sec (= 285.484 min)  21.8 %
MDCI module                     ...    61569.490 sec (=1026.158 min)  78.2 %
                             ****ORCA TERMINATED NORMALLY****
TOTAL RUN TIME: 0 days 21 hours 51 minutes 54 seconds 367 msec
