
                                 *****************
                                 * O   R   C   A *
                                 *****************

           --- An Ab Initio, DFT and Semiempirical electronic structure package ---

                  #######################################################
                  #                        -***-                        #
                  #          Department of theory and spectroscopy      #
                  #               Directorship: Frank Neese             #
                  #        Max Planck Institute fuer Kohlenforschung    #
                  #                Kaiser Wilhelm Platz 1               #
                  #                 D-45470 Muelheim/Ruhr               #
                  #                      Germany                        #
                  #                                                     #
                  #                  All rights reserved                #
                  #                        -***-                        #
                  #######################################################


                         Program Version 4.1.2  - RELEASE  -


 With contributions from (in alphabetic order):
   Daniel Aravena         : Magnetic Properties
   Michael Atanasov       : Ab Initio Ligand Field Theory
   Alexander A. Auer      : GIAO ZORA
   Ute Becker             : Parallelization
   Giovanni Bistoni       : ED, Open-shell LED
   Martin Brehm           : Molecular dynamics
   Dmytro Bykov           : SCF Hessian
   Vijay G. Chilkuri      : MRCI spin determinant printing
   Dipayan Datta          : RHF DLPNO-CCSD density
   Achintya Kumar Dutta   : EOM-CC, STEOM-CC
   Dmitry Ganyushin       : Spin-Orbit,Spin-Spin,Magnetic field MRCI
   Miquel Garcia          : C-PCM Hessian
   Yang Guo               : DLPNO-NEVPT2, CIM, IAO-localization
   Andreas Hansen         : Spin unrestricted coupled pair/coupled cluster methods
   Benjamin Helmich-Paris : CASSCF linear response (MC-RPA)
   Lee Huntington         : MR-EOM, pCC
   Robert Izsak           : Overlap fitted RIJCOSX, COSX-SCS-MP3, EOM
   Christian Kollmar      : KDIIS, OOCD, Brueckner-CCSD(T), CCSD density
   Simone Kossmann        : Meta GGA functionals, TD-DFT gradient, OOMP2, MP2 Hessian
   Martin Krupicka        : AUTO-CI
   Lucas Lang             : DCDCAS
   Dagmar Lenk            : GEPOL surface, SMD
   Dimitrios Liakos       : Extrapolation schemes; parallel MDCI
   Dimitrios Manganas     : ROCIS; embedding schemes
   Dimitrios Pantazis     : SARC Basis sets
   Taras Petrenko         : DFT Hessian,TD-DFT gradient, ASA, ECA, R-Raman, ABS, FL, XAS/XES, NRVS
   Peter Pinski           : DLPNO-MP2, DLPNO-MP2 Gradient
   Christoph Reimann      : Effective Core Potentials
   Marius Retegan         : Local ZFS, SOC
   Christoph Riplinger    : Optimizer, TS searches, QM/MM, DLPNO-CCSD(T), (RO)-DLPNO pert. Triples
   Tobias Risthaus        : Range-separated hybrids, TD-DFT gradient, RPA, STAB
   Michael Roemelt        : Restricted open shell CIS
   Masaaki Saitow         : Open-shell DLPNO
   Barbara Sandhoefer     : DKH picture change effects
   Avijit Sen             : IP-ROCIS
   Kantharuban Sivalingam : CASSCF convergence, NEVPT2, FIC-MRCI
   Bernardo de Souza      : ESD, SOC TD-DFT
   Georgi Stoychev        : AutoAux, RI-MP2 NMR
   Willem Van den Heuvel  : Paramagnetic NMR
   Boris Wezisla          : Elementary symmetry handling
   Frank Wennmohs         : Technical directorship


 We gratefully acknowledge several colleagues who have allowed us to
 interface, adapt or use parts of their codes:
   Stefan Grimme, W. Hujo, H. Kruse,             : VdW corrections, initial TS optimization,
                  C. Bannwarth                     DFT functionals, gCP, sTDA/sTD-DF
   Ed Valeev                                     : LibInt (2-el integral package), F12 methods
   Garnet Chan, S. Sharma, J. Yang, R. Olivares  : DMRG
   Ulf Ekstrom                                   : XCFun DFT Library
   Mihaly Kallay                                 : mrcc  (arbitrary order and MRCC methods)
   Andreas Klamt, Michael Diedenhofen            : otool_cosmo (COSMO solvation model)
   Jiri Pittner, Ondrej Demel                    : Mk-CCSD
   Frank Weinhold                                : gennbo (NPA and NBO analysis)
   Christopher J. Cramer and Donald G. Truhlar   : smd solvation model
   Lars Goerigk                                  : TD-DFT with DH, B97 family of functionals
   V. Asgeirsson, H. Jonsson                     : NEB implementation
   FAccTs GmbH                                   : IRC, NEB, NEB-TS, Multilevel


 Your calculation uses the libint2 library for the computation of 2-el integrals
 For citations please refer to: http://libint.valeyev.net

 This ORCA versions uses:
   CBLAS   interface :  Fast vector & matrix operations
   LAPACKE interface :  Fast linear algebra routines
   SCALAPACK package :  Parallel linear algebra routines


----- Orbital basis set information -----
Your calculation utilizes the basis: aug-cc-pVTZ 
    H, B-Ne : Obtained from the ccRepo (grant-hill.group.shef.ac.uk/ccrepo) Feb. 2017
              R. A. Kendall, T. H. Dunning, Jr., R. J. Harrison, J. Chem. Phys. 96, 6796 (1992)
         He : Obtained from the ccRepo (grant-hill.group.shef.ac.uk/ccrepo) Feb. 2017
              D. E. Woon, T. H. Dunning, Jr., J. Chem. Phys. 100, 2975 (1994)
  Li-Be, Na : Obtained from the ccRepo (grant-hill.group.shef.ac.uk/ccrepo) Feb. 2017
              B. P. Prascher, D. E. Woon, K. A. Peterson, T. H. Dunning, Jr., A. K. Wilson, Theor. Chem. Acc. 128, 69 (2011)
         Mg : Obtained from the Peterson Research Group Website (tyr0.chem.wsu.edu/~kipeters) Feb. 2017
              B. P. Prascher, D. E. Woon, K. A. Peterson, T. H. Dunning, Jr., A. K. Wilson, Theor. Chem. Acc. 128, 69 (2011)
      Al-Ar : Obtained from the ccRepo (grant-hill.group.shef.ac.uk/ccrepo) Feb. 2017
              D. E. Woon, T. H. Dunning, Jr., J. Chem. Phys. 98, 1358 (1993)
      Sc-Zn : Obtained from the ccRepo (grant-hill.group.shef.ac.uk/ccrepo) Feb. 2017
              N. B. Balabanov, K. A. Peterson, J. Chem. Phys. 123, 064107 (2005)
              N. B. Balabanov, K. A. Peterson, J. Chem. Phys. 125, 074110 (2006)
      Ga-Kr : Obtained from the ccRepo (grant-hill.group.shef.ac.uk/ccrepo) Feb. 2017
              A. K. Wilson, D. E. Woon, K. A. Peterson, T. H. Dunning, Jr., J. Chem. Phys. 110, 7667 (1999)
     Ag, Au : Obtained from the Peterson Research Group Website (tyr0.chem.wsu.edu/~kipeters) Feb. 2017
              K. A. Peterson, C. Puzzarini, Theor. Chem. Acc. 114, 283 (2005)

----- AuxJ basis set information -----
Your calculation utilizes the AutoAux generation procedure.
  G. L. Stoychev, A. A. Auer, F. Neese, J. Chem. Theory Comput. 13, 554 (2017)

----- AuxC basis set information -----
Your calculation utilizes the auxiliary basis: aug-cc-pVTZ/C 
  H-He, B-F, Al-Ar, Ga-Kr : Obtained from the EMSL Basis Set Exchange (bse.pnl.gov) Feb. 2017
                            F. Weigend, A. Kohn, C. Hattig, J. Chem. Phys. 116, 3175 (2002)
                   Be, Mg : Obtained from the TURBOMOLE 7.0 basis set library
                            C. Haettig, Phys. Chem. Chem. Phys. 7, 59 (2005)
                       Ne : Obtained from the EMSL Basis Set Exchange (bse.pnl.gov) Feb. 2017
                            C. Haettig, Phys. Chem. Chem. Phys. 7, 59 (2005)
                            F. Weigend, A. Kohn, C. Hattig, J. Chem. Phys. 116, 3175 (2002)
                    Sc-Zn : Obtained from the EMSL Basis Set Exchange (bse.pnl.gov) Feb. 2017
                            J. G. Hill, J. A. Platts, J. Chem. Phys. 128, 044104 (2008)

----- AuxJK basis set information -----
Your calculation utilizes the AutoAux generation procedure.
  G. L. Stoychev, A. A. Auer, F. Neese, J. Chem. Theory Comput. 13, 554 (2017)

================================================================================
                                        WARNINGS
                       Please study these warnings very carefully!
================================================================================


WARNING: your system is open-shell and RHF/RKS was chosen
  ===> : WILL SWITCH to UHF/UKS


WARNING: MDCI localization with Augmented Hessian Foster-Boys
  ===> : Switching off randomization!

WARNING: Post HF methods need fully converged wavefunctions
  ===> : Setting SCFConvForced true
         You can overwrite this default with %scf ConvForced false 


INFO   : the flag for use of LIBINT has been found!

================================================================================
                                       INPUT FILE
================================================================================
NAME = simple-grid-260-285-b3lyp_d3bj-631gd-gas-singlepoint-DLPNO_CCSD_T1-NormalPNO-augtz-gas.inp
|  1> ! aug-cc-pVTZ aug-cc-pVTZ/C DLPNO-CCSD(T1) TightSCF NormalPNO UNO MiniPrint AutoAux
|  2> %pal nproc 10 end
|  3> %maxcore 20000
|  4> %mdci
|  5>      density none
|  6> end
|  7> 
|  8> * xyz 0 6
|  9>  O      0.20923600      0.34971300     -0.86349200
| 10>  C      1.01749800      1.29418000     -0.67250700
| 11>  C      3.01376200      0.15679600      0.54457700
| 12>  C      2.64768200     -0.94201500     -0.15080300
| 13>  C      3.15627600     -1.20128000     -1.54157700
| 14> Fe     -1.47731500     -0.15788600      0.00656700
| 15> Cl     -2.05702600     -2.00912800     -0.97913100
| 16>  C      1.72803100     -2.00124700      0.37840400
| 17> Cl     -2.71426100      1.59297500     -0.43413700
| 18> Cl     -1.09660300     -0.37719400      2.15921700
| 19>  H      3.73513500      0.82499700      0.07426200
| 20>  H      2.25700600     -2.96228300      0.42909100
| 21>  H      1.32505500     -1.78055300      1.36623600
| 22>  H      0.88671400     -2.15198900     -0.31057700
| 23>  H      3.68778700     -2.16131000     -1.57038000
| 24>  H      2.32270800     -1.29055600     -2.25120700
| 25>  H      3.84398400     -0.42593000     -1.89011300
| 26>  C      2.77569900      0.39536700      2.01362600
| 27>  H      3.56176900     -0.09589000      2.60289300
| 28>  H      2.81955000      1.46018800      2.25986300
| 29>  H      1.81524500      0.00770900      2.36159700
| 30>  C      0.82774000      2.23990300      0.47337800
| 31>  H      1.71394000      2.84742400      0.65931100
| 32>  H      0.00392000      2.90557900      0.17481800
| 33>  H      0.51363600      1.72490700      1.38112000
| 34>  C      1.83339100      1.75749400     -1.84355400
| 35>  H      1.22257200      2.51999300     -2.34907100
| 36>  H      2.76972000      2.22758300     -1.54059600
| 37>  H      2.01120200      0.94919400     -2.55044700
| 38> *
| 39> 
| 40> 
| 41>                          ****END OF INPUT****
================================================================================

                       ****************************
                       * Single Point Calculation *
                       ****************************

---------------------------------
CARTESIAN COORDINATES (ANGSTROEM)
---------------------------------
  O      0.209236    0.349713   -0.863492
  C      1.017498    1.294180   -0.672507
  C      3.013762    0.156796    0.544577
  C      2.647682   -0.942015   -0.150803
  C      3.156276   -1.201280   -1.541577
  Fe    -1.477315   -0.157886    0.006567
  Cl    -2.057026   -2.009128   -0.979131
  C      1.728031   -2.001247    0.378404
  Cl    -2.714261    1.592975   -0.434137
  Cl    -1.096603   -0.377194    2.159217
  H      3.735135    0.824997    0.074262
  H      2.257006   -2.962283    0.429091
  H      1.325055   -1.780553    1.366236
  H      0.886714   -2.151989   -0.310577
  H      3.687787   -2.161310   -1.570380
  H      2.322708   -1.290556   -2.251207
  H      3.843984   -0.425930   -1.890113
  C      2.775699    0.395367    2.013626
  H      3.561769   -0.095890    2.602893
  H      2.819550    1.460188    2.259863
  H      1.815245    0.007709    2.361597
  C      0.827740    2.239903    0.473378
  H      1.713940    2.847424    0.659311
  H      0.003920    2.905579    0.174818
  H      0.513636    1.724907    1.381120
  C      1.833391    1.757494   -1.843554
  H      1.222572    2.519993   -2.349071
  H      2.769720    2.227583   -1.540596
  H      2.011202    0.949194   -2.550447

----------------------------
CARTESIAN COORDINATES (A.U.)
----------------------------
  NO LB      ZA    FRAG     MASS         X           Y           Z
   0 O     8.0000    0    15.999    0.395399    0.660862   -1.631763
   1 C     6.0000    0    12.011    1.922793    2.445646   -1.270854
   2 C     6.0000    0    12.011    5.695185    0.296301    1.029101
   3 C     6.0000    0    12.011    5.003394   -1.780150   -0.284976
   4 C     6.0000    0    12.011    5.964497   -2.270090   -2.913158
   5 Fe   26.0000    0    55.850   -2.791721   -0.298361    0.012410
   6 Cl   17.0000    0    35.453   -3.887216   -3.796702   -1.850289
   7 C     6.0000    0    12.011    3.265505   -3.781809    0.715080
   8 Cl   17.0000    0    35.453   -5.129210    3.010286   -0.820400
   9 Cl   17.0000    0    35.453   -2.072279   -0.712793    4.080329
  10 H     1.0000    0     1.008    7.058382    1.559018    0.140335
  11 H     1.0000    0     1.008    4.265123   -5.597904    0.810864
  12 H     1.0000    0     1.008    2.503991   -3.364758    2.581812
  13 H     1.0000    0     1.008    1.675647   -4.066670   -0.586905
  14 H     1.0000    0     1.008    6.968907   -4.084284   -2.967588
  15 H     1.0000    0     1.008    4.389282   -2.438797   -4.254165
  16 H     1.0000    0     1.008    7.264077   -0.804891   -3.571796
  17 C     6.0000    0    12.011    5.245311    0.747135    3.805202
  18 H     1.0000    0     1.008    6.730768   -0.181206    4.918755
  19 H     1.0000    0     1.008    5.328177    2.759355    4.270522
  20 H     1.0000    0     1.008    3.430316    0.014568    4.462772
  21 C     6.0000    0    12.011    1.564202    4.232803    0.894555
  22 H     1.0000    0     1.008    3.238877    5.380852    1.245917
  23 H     1.0000    0     1.008    0.007408    5.490749    0.330358
  24 H     1.0000    0     1.008    0.970631    3.259602    2.609939
  25 C     6.0000    0    12.011    3.464607    3.321182   -3.483812
  26 H     1.0000    0     1.008    2.310326    4.762097   -4.439101
  27 H     1.0000    0     1.008    5.234012    4.209522   -2.911305
  28 H     1.0000    0     1.008    3.800621    1.793717   -4.819646



           ************************************************************
           *        Program running with 10 parallel MPI-processes    *
           *              working on a common directory               *
           ************************************************************


           ************************************************************
           *        Program running with 10 parallel MPI-processes    *
           *              working on a common directory               *
           ************************************************************

Diagonalization of the overlap matrix:
Smallest eigenvalue                        ... 8.934e-07
Time for diagonalization                   ...    0.341 sec
Threshold for overlap eigenvalues          ... 1.000e-08
Number of eigenvalues below threshold      ... 0
Time for construction of square roots      ...    0.282 sec
Total time needed                          ...    0.629 sec

-------------------
DFT GRID GENERATION
-------------------

General Integration Accuracy     IntAcc      ...  4.340
Radial Grid Type                 RadialGrid  ... Gauss-Chebyshev
Angular Grid (max. acc.)         AngularGrid ... Lebedev-110
Angular grid pruning method      GridPruning ... 3 (G Style)
Weight generation scheme         WeightScheme... Becke
Basis function cutoff            BFCut       ...    1.0000e-11
Integration weight cutoff        WCut        ...    1.0000e-14
Grids for H and He will be reduced by one unit

# of grid points (after initial pruning)     ...  36112 (   0.0 sec)
# of grid points (after weights+screening)   ...  32440 (   0.1 sec)
nearest neighbour list constructed           ...    0.0 sec
Grid point re-assignment to atoms done       ...    0.0 sec
Grid point division into batches done        ...    0.0 sec
Reduced shell lists constructed in    0.3 sec

Total number of grid points                  ...    32440
Total number of batches                      ...      522
Average number of points per batch           ...       62
Average number of grid points per atom       ...     1119
Average number of shells per batch           ...   286.98 (83.67%)
Average number of basis functions per batch  ...   850.31 (82.96%)
Average number of large shells per batch     ...   233.37 (81.32%)
Average number of large basis fcns per batch ...   692.30 (81.42%)
Maximum spatial batch extension              ...   4.96,  4.74,  7.21 au
Average spatial batch extension              ...   0.19,  0.19,  0.18 au

Time for grid setup =    0.376 sec

Loading Hartree-Fock densities                     ... done
Calculating cut-offs                               ... done
Setting up the integral package                    ... done
Initializing the effective Hamiltonian             ... done
Starting the Coulomb interaction                   ... done (   1.1 sec)
Reading the grid                                   ... done
Mapping shells                                     ... done
Starting the XC term evaluation                    ... done (   0.9 sec)
Transforming the Hamiltonian                       ... done (   0.2 sec)
Diagonalizing the Hamiltonian                      ... done (   0.4 sec)
Back transforming the eigenvectors                 ... done (   0.1 sec)
Now organizing SCF variables                       ... done
--------------
SCF ITERATIONS
--------------
ITER       Energy         Delta-E        Max-DP      RMS-DP      [F,P]     Damp
               ***  Starting incremental Fock matrix formation  ***
  0  -3027.5953282998   0.000000000000 0.16718110  0.00091071  0.2453212 0.7000
  1  -3027.8482532889  -0.252924989061 0.12531612  0.00071670  0.1529132 0.7000
                               ***Turning on DIIS***
  2  -3028.0175906377  -0.169337348853 0.08967948  0.00053055  0.1094534 0.7000
  3  -3029.6048211948  -1.587230557064 0.24313607  0.00134933  0.0817442 0.0000
  4  -3028.3126521620   1.292169032796 0.04197409  0.00021563  0.0195812 0.0000
  5  -3028.4343302269  -0.121678064952 0.03950328  0.00017058  0.0107897 0.0000
  6  -3028.4814331532  -0.047102926202 0.01952613  0.00006937  0.0052524 0.0000
  7  -3028.4948061797  -0.013373026595 0.00861120  0.00003215  0.0031987 0.0000
  8  -3028.4837553327   0.011050847013 0.00638338  0.00001840  0.0015649 0.0000
  9  -3028.4797315220   0.004023810720 0.00229391  0.00001070  0.0006982 0.0000
 10  -3028.4674315208   0.012300001221 0.00092695  0.00000324  0.0004106 0.0000
 11  -3028.4730117036  -0.005580182790 0.00027147  0.00000170  0.0000823 0.0000
 12  -3028.4710051015   0.002006602126 0.00021664  0.00000122  0.0000228 0.0000
 13  -3028.4709753854   0.000029716031 0.00049035  0.00000176  0.0000089 0.0000
 14  -3028.4709911466  -0.000015761141 0.00027216  0.00000169  0.0000056 0.0000
 15  -3028.4709464744   0.000044672168 0.00054057  0.00000180  0.0000034 0.0000
 16  -3028.4709508847  -0.000004410311 0.00049718  0.00000211  0.0000029 0.0000
 17  -3028.4709667107  -0.000015826028 0.00040773  0.00000141  0.0000019 0.0000
 18  -3028.4709502657   0.000016445057 0.00088590  0.00000290  0.0000014 0.0000
                            ***DIIS convergence achieved***

               *****************************************************
               *                     SUCCESS                       *
               *           SCF CONVERGED AFTER  19 CYCLES          *
               *****************************************************

Total Energy       :        -3028.47095579 Eh          -82408.88429 eV
  Last Energy change         ...   -5.5199e-06  Tolerance :   1.0000e-08
  Last MAX-Density change    ...    5.1882e-04  Tolerance :   1.0000e-07
             **** THE GBW FILE WAS UPDATED (simple-grid-260-285-b3lyp_d3bj-631gd-gas-singlepoint-DLPNO_CCSD_T1-NormalPNO-augtz-gas.gbw) ****
             **** DENSITY FILE WAS UPDATED (simple-grid-260-285-b3lyp_d3bj-631gd-gas-singlepoint-DLPNO_CCSD_T1-NormalPNO-augtz-gas.scfp.tmp) ****
             **** ENERGY FILE WAS UPDATED (simple-grid-260-285-b3lyp_d3bj-631gd-gas-singlepoint-DLPNO_CCSD_T1-NormalPNO-augtz-gas.en.tmp) ****
----------------------
UHF SPIN CONTAMINATION
----------------------

Expectation value of <S**2>     :     8.764939
Ideal value S*(S+1) for S=2.5   :     8.750000
Deviation                       :     0.014939

----------------
ORBITAL ENERGIES
----------------
                 SPIN UP ORBITALS
  NO   OCC          E(Eh)            E(eV) 
   0   1.0000    -261.574874     -7117.8142 
   1   1.0000    -104.793429     -2851.5742 
   2   1.0000    -104.790061     -2851.4825 
   3   1.0000    -104.788039     -2851.4275 
   4   1.0000     -32.242594      -877.3656 
   5   1.0000     -27.719053      -754.2738 
   6   1.0000     -27.717950      -754.2438 
   7   1.0000     -27.717752      -754.2384 
   8   1.0000     -20.617901      -561.0416 
   9   1.0000     -11.421318      -310.7899 
  10   1.0000     -11.277108      -306.8657 
  11   1.0000     -11.271662      -306.7175 
  12   1.0000     -11.270417      -306.6836 
  13   1.0000     -11.245399      -306.0029 
  14   1.0000     -11.244761      -305.9855 
  15   1.0000     -11.237022      -305.7749 
  16   1.0000     -11.230511      -305.5977 
  17   1.0000     -10.520145      -286.2677 
  18   1.0000     -10.516748      -286.1753 
  19   1.0000     -10.514678      -286.1189 
  20   1.0000      -7.986979      -217.3367 
  21   1.0000      -7.986221      -217.3161 
  22   1.0000      -7.986172      -217.3148 
  23   1.0000      -7.983624      -217.2454 
  24   1.0000      -7.982846      -217.2243 
  25   1.0000      -7.982791      -217.2228 
  26   1.0000      -7.981468      -217.1868 
  27   1.0000      -7.980807      -217.1688 
  28   1.0000      -7.980757      -217.1674 
  29   1.0000      -4.597482      -125.1038 
  30   1.0000      -3.210610       -87.3651 
  31   1.0000      -3.208905       -87.3187 
  32   1.0000      -3.208743       -87.3143 
  33   1.0000      -1.461843       -39.7788 
  34   1.0000      -1.128489       -30.7077 
  35   1.0000      -1.100071       -29.9345 
  36   1.0000      -1.066393       -29.0180 
  37   1.0000      -1.060561       -28.8593 
  38   1.0000      -1.057565       -28.7778 
  39   1.0000      -1.022442       -27.8221 
  40   1.0000      -1.008955       -27.4551 
  41   1.0000      -0.960004       -26.1230 
  42   1.0000      -0.942027       -25.6339 
  43   1.0000      -0.926411       -25.2089 
  44   1.0000      -0.926292       -25.2057 
  45   1.0000      -0.915705       -24.9176 
  46   1.0000      -0.915025       -24.8991 
  47   1.0000      -0.897558       -24.4238 
  48   1.0000      -0.812949       -22.1215 
  49   1.0000      -0.731218       -19.8975 
  50   1.0000      -0.711009       -19.3475 
  51   1.0000      -0.701063       -19.0769 
  52   1.0000      -0.684405       -18.6236 
  53   1.0000      -0.656456       -17.8631 
  54   1.0000      -0.622530       -16.9399 
  55   1.0000      -0.621324       -16.9071 
  56   1.0000      -0.604861       -16.4591 
  57   1.0000      -0.599333       -16.3087 
  58   1.0000      -0.585703       -15.9378 
  59   1.0000      -0.578239       -15.7347 
  60   1.0000      -0.560872       -15.2621 
  61   1.0000      -0.552488       -15.0340 
  62   1.0000      -0.546900       -14.8819 
  63   1.0000      -0.541698       -14.7403 
  64   1.0000      -0.536309       -14.5937 
  65   1.0000      -0.526748       -14.3335 
  66   1.0000      -0.502655       -13.6779 
  67   1.0000      -0.494400       -13.4533 
  68   1.0000      -0.476495       -12.9661 
  69   1.0000      -0.475608       -12.9420 
  70   1.0000      -0.446189       -12.1414 
  71   1.0000      -0.440154       -11.9772 
  72   1.0000      -0.438271       -11.9260 
  73   1.0000      -0.429673       -11.6920 
  74   1.0000      -0.428682       -11.6650 
  75   1.0000      -0.427362       -11.6291 
  76   1.0000      -0.360637        -9.8134 
  77   0.0000       0.012570         0.3421 
  78   0.0000       0.023472         0.6387 
  79   0.0000       0.024143         0.6570 
  80   0.0000       0.030564         0.8317 
  81   0.0000       0.039232         1.0676 
  82   0.0000       0.041187         1.1207 
  83   0.0000       0.042834         1.1656 
  84   0.0000       0.043246         1.1768 
  85   0.0000       0.044417         1.2086 
  86   0.0000       0.056585         1.5398 
  87   0.0000       0.057098         1.5537 
  88   0.0000       0.061392         1.6706 
  89   0.0000       0.063741         1.7345 
  90   0.0000       0.064351         1.7511 
  91   0.0000       0.068011         1.8507 
  92   0.0000       0.073580         2.0022 
  93   0.0000       0.077511         2.1092 
  94   0.0000       0.082466         2.2440 
  95   0.0000       0.090278         2.4566 
  96   0.0000       0.092003         2.5035 
  97   0.0000       0.094260         2.5650 
  98   0.0000       0.097523         2.6537 
  99   0.0000       0.102275         2.7831 
 100   0.0000       0.104253         2.8369 
 101   0.0000       0.107788         2.9331 
 102   0.0000       0.117225         3.1898 
 103   0.0000       0.120676         3.2838 
 104   0.0000       0.123336         3.3561 
 105   0.0000       0.123900         3.3715 
 106   0.0000       0.125511         3.4153 
 107   0.0000       0.127315         3.4644 
 108   0.0000       0.130799         3.5592 
 109   0.0000       0.132995         3.6190 
 110   0.0000       0.134982         3.6731 
 111   0.0000       0.138141         3.7590 
 112   0.0000       0.142017         3.8645 
 113   0.0000       0.145641         3.9631 
 114   0.0000       0.149190         4.0597 
 115   0.0000       0.151233         4.1153 
 116   0.0000       0.155891         4.2420 
 117   0.0000       0.161708         4.4003 
 118   0.0000       0.162500         4.4218 
 119   0.0000       0.165111         4.4929 
 120   0.0000       0.168769         4.5924 
 121   0.0000       0.170052         4.6273 
 122   0.0000       0.174027         4.7355 
 123   0.0000       0.180969         4.9244 
 124   0.0000       0.182346         4.9619 
 125   0.0000       0.184595         5.0231 
 126   0.0000       0.186407         5.0724 
 127   0.0000       0.190772         5.1912 
 128   0.0000       0.194264         5.2862 
 129   0.0000       0.196694         5.3523 
 130   0.0000       0.198084         5.3901 
 131   0.0000       0.200609         5.4588 
 132   0.0000       0.203566         5.5393 
 133   0.0000       0.207350         5.6423 
 134   0.0000       0.211446         5.7537 
 135   0.0000       0.215988         5.8773 
 136   0.0000       0.217819         5.9271 
 137   0.0000       0.224820         6.1177 
 138   0.0000       0.226399         6.1606 
 139   0.0000       0.232073         6.3150 
 140   0.0000       0.233715         6.3597 
 141   0.0000       0.235464         6.4073 
 142   0.0000       0.238354         6.4859 
 143   0.0000       0.241914         6.5828 
 144   0.0000       0.242885         6.6092 
 145   0.0000       0.245221         6.6728 
 146   0.0000       0.252680         6.8758 
 147   0.0000       0.255180         6.9438 
 148   0.0000       0.257343         7.0026 
 149   0.0000       0.260066         7.0768 
 150   0.0000       0.261197         7.1075 
 151   0.0000       0.266738         7.2583 
 152   0.0000       0.274893         7.4802 
 153   0.0000       0.278729         7.5846 
 154   0.0000       0.280613         7.6359 
 155   0.0000       0.286647         7.8001 
 156   0.0000       0.290081         7.8935 
 157   0.0000       0.291622         7.9355 
 158   0.0000       0.295707         8.0466 
 159   0.0000       0.305698         8.3185 
 160   0.0000       0.308265         8.3883 
 161   0.0000       0.310413         8.4468 
 162   0.0000       0.317119         8.6292 
 163   0.0000       0.318953         8.6792 
 164   0.0000       0.323541         8.8040 
 165   0.0000       0.328846         8.9484 
 166   0.0000       0.332280         9.0418 
 167   0.0000       0.335920         9.1409 
 168   0.0000       0.338704         9.2166 
 169   0.0000       0.342351         9.3158 
 170   0.0000       0.344374         9.3709 
 171   0.0000       0.353379         9.6159 
 172   0.0000       0.354563         9.6482 
 173   0.0000       0.358714         9.7611 
 174   0.0000       0.359325         9.7777 
 175   0.0000       0.366376         9.9696 
 176   0.0000       0.367510        10.0005 
 177   0.0000       0.372792        10.1442 
 178   0.0000       0.375911        10.2291 
 179   0.0000       0.376549        10.2464 
 180   0.0000       0.379661        10.3311 
 181   0.0000       0.381954        10.3935 
 182   0.0000       0.382654        10.4125 
 183   0.0000       0.383723        10.4416 
 184   0.0000       0.390825        10.6349 
 185   0.0000       0.392929        10.6922 
 186   0.0000       0.396687        10.7944 
 187   0.0000       0.400348        10.8940 
 188   0.0000       0.402017        10.9394 
 189   0.0000       0.404982        11.0201 
 190   0.0000       0.408274        11.1097 
 191   0.0000       0.412870        11.2348 
 192   0.0000       0.416087        11.3223 
 193   0.0000       0.422114        11.4863 
 194   0.0000       0.423745        11.5307 
 195   0.0000       0.433156        11.7868 
 196   0.0000       0.436479        11.8772 
 197   0.0000       0.438689        11.9373 
 198   0.0000       0.441934        12.0256 
 199   0.0000       0.443685        12.0733 
 200   0.0000       0.450178        12.2500 
 201   0.0000       0.450978        12.2717 
 202   0.0000       0.455568        12.3966 
 203   0.0000       0.456399        12.4192 
 204   0.0000       0.460737        12.5373 
 205   0.0000       0.464028        12.6268 
 206   0.0000       0.467063        12.7094 
 207   0.0000       0.472701        12.8628 
 208   0.0000       0.478568        13.0225 
 209   0.0000       0.479361        13.0441 
 210   0.0000       0.485910        13.2223 
 211   0.0000       0.486488        13.2380 
 212   0.0000       0.493272        13.4226 
 213   0.0000       0.494245        13.4491 
 214   0.0000       0.498641        13.5687 
 215   0.0000       0.500804        13.6276 
 216   0.0000       0.503696        13.7063 
 217   0.0000       0.507742        13.8164 
 218   0.0000       0.510232        13.8841 
 219   0.0000       0.513606        13.9759 
 220   0.0000       0.514977        14.0133 
 221   0.0000       0.519165        14.1272 
 222   0.0000       0.523338        14.2408 
 223   0.0000       0.524338        14.2680 
 224   0.0000       0.527686        14.3591 
 225   0.0000       0.530842        14.4449 
 226   0.0000       0.532777        14.4976 
 227   0.0000       0.534061        14.5325 
 228   0.0000       0.540766        14.7150 
 229   0.0000       0.543541        14.7905 
 230   0.0000       0.544125        14.8064 
 231   0.0000       0.548822        14.9342 
 232   0.0000       0.555051        15.1037 
 233   0.0000       0.559750        15.2316 
 234   0.0000       0.560653        15.2562 
 235   0.0000       0.565299        15.3826 
 236   0.0000       0.571093        15.5402 
 237   0.0000       0.574040        15.6204 
 238   0.0000       0.574774        15.6404 
 239   0.0000       0.581446        15.8219 
 240   0.0000       0.583913        15.8891 
 241   0.0000       0.586633        15.9631 
 242   0.0000       0.590092        16.0572 
 243   0.0000       0.592005        16.1093 
 244   0.0000       0.597286        16.2530 
 245   0.0000       0.601900        16.3785 
 246   0.0000       0.605205        16.4685 
 247   0.0000       0.612240        16.6599 
 248   0.0000       0.614251        16.7146 
 249   0.0000       0.614851        16.7309 
 250   0.0000       0.618685        16.8353 
 251   0.0000       0.626216        17.0402 
 252   0.0000       0.630469        17.1559 
 253   0.0000       0.632952        17.2235 
 254   0.0000       0.635796        17.3009 
 255   0.0000       0.641708        17.4618 
 256   0.0000       0.643186        17.5020 
 257   0.0000       0.648696        17.6519 
 258   0.0000       0.650576        17.7031 
 259   0.0000       0.653501        17.7827 
 260   0.0000       0.659745        17.9526 
 261   0.0000       0.663869        18.0648 
 262   0.0000       0.666790        18.1443 
 263   0.0000       0.672046        18.2873 
 264   0.0000       0.673053        18.3147 
 265   0.0000       0.678232        18.4556 
 266   0.0000       0.684359        18.6223 
 267   0.0000       0.688517        18.7355 
 268   0.0000       0.693312        18.8660 
 269   0.0000       0.695656        18.9298 
 270   0.0000       0.701081        19.0774 
 271   0.0000       0.706064        19.2130 
 272   0.0000       0.710118        19.3233 
 273   0.0000       0.713736        19.4217 
 274   0.0000       0.716624        19.5003 
 275   0.0000       0.721168        19.6240 
 276   0.0000       0.727719        19.8022 
 277   0.0000       0.732422        19.9302 
 278   0.0000       0.734516        19.9872 
 279   0.0000       0.739904        20.1338 
 280   0.0000       0.745556        20.2876 
 281   0.0000       0.746814        20.3218 
 282   0.0000       0.758035        20.6272 
 283   0.0000       0.761474        20.7208 
 284   0.0000       0.762866        20.7586 
 285   0.0000       0.778013        21.1708 
 286   0.0000       0.779912        21.2225 
 287   0.0000       0.785936        21.3864 
 288   0.0000       0.796579        21.6760 
 289   0.0000       0.801048        21.7976 
 290   0.0000       0.811057        22.0700 
 291   0.0000       0.814797        22.1717 
 292   0.0000       0.819073        22.2881 
 293   0.0000       0.823156        22.3992 
 294   0.0000       0.831236        22.6191 
 295   0.0000       0.835298        22.7296 
 296   0.0000       0.841684        22.9034 
 297   0.0000       0.845351        23.0032 
 298   0.0000       0.852134        23.1877 
 299   0.0000       0.856212        23.2987 
 300   0.0000       0.858765        23.3682 
 301   0.0000       0.860212        23.4076 
 302   0.0000       0.864536        23.5252 
 303   0.0000       0.874520        23.7969 
 304   0.0000       0.878239        23.8981 
 305   0.0000       0.884441        24.0669 
 306   0.0000       0.885848        24.1051 
 307   0.0000       0.890340        24.2274 
 308   0.0000       0.897892        24.4329 
 309   0.0000       0.905358        24.6360 
 310   0.0000       0.909956        24.7612 
 311   0.0000       0.914455        24.8836 
 312   0.0000       0.915404        24.9094 
 313   0.0000       0.917338        24.9620 
 314   0.0000       0.920886        25.0586 
 315   0.0000       0.926598        25.2140 
 316   0.0000       0.931055        25.3353 
 317   0.0000       0.933391        25.3989 
 318   0.0000       0.940739        25.5988 
 319   0.0000       0.941093        25.6084 
 320   0.0000       0.944014        25.6879 
 321   0.0000       0.947951        25.7951 
 322   0.0000       0.950187        25.8559 
 323   0.0000       0.953481        25.9455 
 324   0.0000       0.957234        26.0477 
 325   0.0000       0.958391        26.0791 
 326   0.0000       0.967368        26.3234 
 327   0.0000       0.970191        26.4002 
 328   0.0000       0.973522        26.4909 
 329   0.0000       0.974509        26.5177 
 330   0.0000       0.976057        26.5599 
 331   0.0000       0.980937        26.6926 
 332   0.0000       0.984635        26.7933 
 333   0.0000       0.987015        26.8580 
 334   0.0000       0.991648        26.9841 
 335   0.0000       0.997057        27.1313 
 336   0.0000       1.004874        27.3440 
 337   0.0000       1.006464        27.3873 
 338   0.0000       1.010653        27.5013 
 339   0.0000       1.013082        27.5674 
 340   0.0000       1.016928        27.6720 
 341   0.0000       1.020736        27.7756 
 342   0.0000       1.021972        27.8093 
 343   0.0000       1.027094        27.9486 
 344   0.0000       1.030012        28.0280 
 345   0.0000       1.031413        28.0662 
 346   0.0000       1.037937        28.2437 
 347   0.0000       1.040311        28.3083 
 348   0.0000       1.045331        28.4449 
 349   0.0000       1.046790        28.4846 
 350   0.0000       1.050654        28.5897 
 351   0.0000       1.053450        28.6658 
 352   0.0000       1.057676        28.7808 
 353   0.0000       1.064454        28.9653 
 354   0.0000       1.065583        28.9960 
 355   0.0000       1.070430        29.1279 
 356   0.0000       1.074958        29.2511 
 357   0.0000       1.081545        29.4303 
 358   0.0000       1.084557        29.5123 
 359   0.0000       1.087229        29.5850 
 360   0.0000       1.088643        29.6235 
 361   0.0000       1.093401        29.7530 
 362   0.0000       1.099339        29.9145 
 363   0.0000       1.103316        30.0228 
 364   0.0000       1.104452        30.0537 
 365   0.0000       1.108922        30.1753 
 366   0.0000       1.115521        30.3549 
 367   0.0000       1.117593        30.4112 
 368   0.0000       1.123019        30.5589 
 369   0.0000       1.125011        30.6131 
 370   0.0000       1.132630        30.8204 
 371   0.0000       1.135446        30.8971 
 372   0.0000       1.141494        31.0616 
 373   0.0000       1.143630        31.1197 
 374   0.0000       1.145884        31.1811 
 375   0.0000       1.153706        31.3939 
 376   0.0000       1.155178        31.4340 
 377   0.0000       1.160816        31.5874 
 378   0.0000       1.166534        31.7430 
 379   0.0000       1.175116        31.9765 
 380   0.0000       1.177614        32.0445 
 381   0.0000       1.181834        32.1593 
 382   0.0000       1.185851        32.2686 
 383   0.0000       1.191015        32.4092 
 384   0.0000       1.195265        32.5248 
 385   0.0000       1.201662        32.6989 
 386   0.0000       1.203140        32.7391 
 387   0.0000       1.208065        32.8731 
 388   0.0000       1.213120        33.0107 
 389   0.0000       1.218958        33.1695 
 390   0.0000       1.222692        33.2711 
 391   0.0000       1.229505        33.4565 
 392   0.0000       1.232579        33.5402 
 393   0.0000       1.238249        33.6945 
 394   0.0000       1.242561        33.8118 
 395   0.0000       1.244406        33.8620 
 396   0.0000       1.249889        34.0112 
 397   0.0000       1.257142        34.2086 
 398   0.0000       1.261890        34.3378 
 399   0.0000       1.264577        34.4109 
 400   0.0000       1.268885        34.5281 
 401   0.0000       1.271193        34.5909 
 402   0.0000       1.278170        34.7808 
 403   0.0000       1.285156        34.9709 
 404   0.0000       1.288088        35.0507 
 405   0.0000       1.295713        35.2581 
 406   0.0000       1.300374        35.3850 
 407   0.0000       1.305350        35.5204 
 408   0.0000       1.309362        35.6296 
 409   0.0000       1.309830        35.6423 
 410   0.0000       1.313172        35.7332 
 411   0.0000       1.320769        35.9400 
 412   0.0000       1.321722        35.9659 
 413   0.0000       1.325658        36.0730 
 414   0.0000       1.337277        36.3892 
 415   0.0000       1.339506        36.4498 
 416   0.0000       1.344744        36.5924 
 417   0.0000       1.355417        36.8828 
 418   0.0000       1.359659        36.9982 
 419   0.0000       1.367921        37.2230 
 420   0.0000       1.371847        37.3298 
 421   0.0000       1.379335        37.5336 
 422   0.0000       1.381293        37.5869 
 423   0.0000       1.384238        37.6670 
 424   0.0000       1.386852        37.7382 
 425   0.0000       1.392258        37.8853 
 426   0.0000       1.397488        38.0276 
 427   0.0000       1.401750        38.1436 
 428   0.0000       1.408945        38.3393 
 429   0.0000       1.415535        38.5187 
 430   0.0000       1.419969        38.6393 
 431   0.0000       1.427756        38.8512 
 432   0.0000       1.432565        38.9821 
 433   0.0000       1.437531        39.1172 
 434   0.0000       1.442526        39.2531 
 435   0.0000       1.456022        39.6204 
 436   0.0000       1.458137        39.6779 
 437   0.0000       1.462200        39.7885 
 438   0.0000       1.469290        39.9814 
 439   0.0000       1.473016        40.0828 
 440   0.0000       1.475322        40.1455 
 441   0.0000       1.477196        40.1966 
 442   0.0000       1.481939        40.3256 
 443   0.0000       1.491952        40.5981 
 444   0.0000       1.492264        40.6066 
 445   0.0000       1.495500        40.6946 
 446   0.0000       1.499858        40.8132 
 447   0.0000       1.505742        40.9733 
 448   0.0000       1.511263        41.1235 
 449   0.0000       1.516622        41.2694 
 450   0.0000       1.522474        41.4286 
 451   0.0000       1.530217        41.6393 
 452   0.0000       1.532845        41.7108 
 453   0.0000       1.538059        41.8527 
 454   0.0000       1.543489        42.0005 
 455   0.0000       1.549295        42.1585 
 456   0.0000       1.556618        42.3577 
 457   0.0000       1.565494        42.5993 
 458   0.0000       1.569812        42.7168 
 459   0.0000       1.571136        42.7528 
 460   0.0000       1.572747        42.7966 
 461   0.0000       1.580838        43.0168 
 462   0.0000       1.589560        43.2541 
 463   0.0000       1.594444        43.3870 
 464   0.0000       1.598714        43.5032 
 465   0.0000       1.600847        43.5613 
 466   0.0000       1.606026        43.7022 
 467   0.0000       1.613462        43.9045 
 468   0.0000       1.616509        43.9875 
 469   0.0000       1.624632        44.2085 
 470   0.0000       1.627359        44.2827 
 471   0.0000       1.635776        44.5117 
 472   0.0000       1.643116        44.7115 
 473   0.0000       1.648330        44.8533 
 474   0.0000       1.653379        44.9907 
 475   0.0000       1.657426        45.1009 
 476   0.0000       1.668611        45.4052 
 477   0.0000       1.669619        45.4326 
 478   0.0000       1.677343        45.6428 
 479   0.0000       1.682148        45.7736 
 480   0.0000       1.687048        45.9069 
 481   0.0000       1.695414        46.1346 
 482   0.0000       1.700741        46.2795 
 483   0.0000       1.705944        46.4211 
 484   0.0000       1.708921        46.5021 
 485   0.0000       1.712240        46.5924 
 486   0.0000       1.720453        46.8159 
 487   0.0000       1.725532        46.9541 
 488   0.0000       1.730685        47.0943 
 489   0.0000       1.733003        47.1574 
 490   0.0000       1.735245        47.2184 
 491   0.0000       1.746551        47.5261 
 492   0.0000       1.752103        47.6771 
 493   0.0000       1.756584        47.7991 
 494   0.0000       1.759403        47.8758 
 495   0.0000       1.765293        48.0361 
 496   0.0000       1.766723        48.0750 
 497   0.0000       1.767386        48.0930 
 498   0.0000       1.776882        48.3514 
 499   0.0000       1.782113        48.4938 
 500   0.0000       1.790515        48.7224 
 501   0.0000       1.798871        48.9498 
 502   0.0000       1.803054        49.0636 
 503   0.0000       1.805250        49.1233 
 504   0.0000       1.807730        49.1908 
 505   0.0000       1.818924        49.4954 
 506   0.0000       1.821851        49.5751 
 507   0.0000       1.827974        49.7417 
 508   0.0000       1.835242        49.9395 
 509   0.0000       1.836039        49.9612 
 510   0.0000       1.841170        50.1008 
 511   0.0000       1.850188        50.3462 
 512   0.0000       1.852026        50.3962 
 513   0.0000       1.856166        50.5088 
 514   0.0000       1.864522        50.7362 
 515   0.0000       1.865884        50.7733 
 516   0.0000       1.871225        50.9186 
 517   0.0000       1.881112        51.1877 
 518   0.0000       1.884144        51.2702 
 519   0.0000       1.887455        51.3603 
 520   0.0000       1.892012        51.4843 
 521   0.0000       1.898613        51.6639 
 522   0.0000       1.909280        51.9541 
 523   0.0000       1.912488        52.0414 
 524   0.0000       1.917425        52.1758 
 525   0.0000       1.919981        52.2453 
 526   0.0000       1.927500        52.4499 
 527   0.0000       1.931081        52.5474 
 528   0.0000       1.934243        52.6334 
 529   0.0000       1.940070        52.7920 
 530   0.0000       1.944800        52.9207 
 531   0.0000       1.950419        53.0736 
 532   0.0000       1.955833        53.2209 
 533   0.0000       1.961184        53.3665 
 534   0.0000       1.965787        53.4918 
 535   0.0000       1.976039        53.7707 
 536   0.0000       1.981949        53.9316 
 537   0.0000       1.989903        54.1480 
 538   0.0000       1.993297        54.2404 
 539   0.0000       2.001654        54.4678 
 540   0.0000       2.009187        54.6728 
 541   0.0000       2.014092        54.8062 
 542   0.0000       2.017290        54.8932 
 543   0.0000       2.028886        55.2088 
 544   0.0000       2.031027        55.2671 
 545   0.0000       2.038303        55.4651 
 546   0.0000       2.044623        55.6370 
 547   0.0000       2.049840        55.7790 
 548   0.0000       2.054063        55.8939 
 549   0.0000       2.061649        56.1003 
 550   0.0000       2.069142        56.3042 
 551   0.0000       2.075790        56.4851 
 552   0.0000       2.092279        56.9338 
 553   0.0000       2.094640        56.9980 
 554   0.0000       2.103733        57.2455 
 555   0.0000       2.109732        57.4087 
 556   0.0000       2.111529        57.4576 
 557   0.0000       2.120790        57.7096 
 558   0.0000       2.128546        57.9207 
 559   0.0000       2.132736        58.0347 
 560   0.0000       2.137066        58.1525 
 561   0.0000       2.146451        58.4079 
 562   0.0000       2.157309        58.7034 
 563   0.0000       2.158463        58.7348 
 564   0.0000       2.162801        58.8528 
 565   0.0000       2.168544        59.0091 
 566   0.0000       2.177551        59.2542 
 567   0.0000       2.186463        59.4967 
 568   0.0000       2.194945        59.7275 
 569   0.0000       2.199797        59.8595 
 570   0.0000       2.205857        60.0244 
 571   0.0000       2.208268        60.0900 
 572   0.0000       2.221185        60.4415 
 573   0.0000       2.229509        60.6680 
 574   0.0000       2.232142        60.7397 
 575   0.0000       2.238101        60.9018 
 576   0.0000       2.253057        61.3088 
 577   0.0000       2.256511        61.4028 
 578   0.0000       2.260448        61.5099 
 579   0.0000       2.266449        61.6732 
 580   0.0000       2.278526        62.0019 
 581   0.0000       2.282623        62.1133 
 582   0.0000       2.289701        62.3059 
 583   0.0000       2.298394        62.5425 
 584   0.0000       2.315552        63.0094 
 585   0.0000       2.320226        63.1366 
 586   0.0000       2.323123        63.2154 
 587   0.0000       2.332036        63.4579 
 588   0.0000       2.339480        63.6605 
 589   0.0000       2.349144        63.9234 
 590   0.0000       2.353859        64.0518 
 591   0.0000       2.358944        64.1901 
 592   0.0000       2.374728        64.6196 
 593   0.0000       2.384010        64.8722 
 594   0.0000       2.389199        65.0134 
 595   0.0000       2.397351        65.2352 
 596   0.0000       2.401283        65.3422 
 597   0.0000       2.405532        65.4578 
 598   0.0000       2.411418        65.6180 
 599   0.0000       2.420080        65.8537 
 600   0.0000       2.429715        66.1159 
 601   0.0000       2.442595        66.4664 
 602   0.0000       2.445149        66.5359 
 603   0.0000       2.449253        66.6476 
 604   0.0000       2.462125        66.9978 
 605   0.0000       2.474882        67.3450 
 606   0.0000       2.485359        67.6300 
 607   0.0000       2.498939        67.9996 
 608   0.0000       2.501365        68.0656 
 609   0.0000       2.514394        68.4201 
 610   0.0000       2.526162        68.7404 
 611   0.0000       2.541884        69.1682 
 612   0.0000       2.550379        69.3993 
 613   0.0000       2.553945        69.4964 
 614   0.0000       2.569297        69.9141 
 615   0.0000       2.582798        70.2815 
 616   0.0000       2.596674        70.6591 
 617   0.0000       2.603260        70.8383 
 618   0.0000       2.632361        71.6302 
 619   0.0000       2.640200        71.8435 
 620   0.0000       2.649384        72.0934 
 621   0.0000       2.654765        72.2398 
 622   0.0000       2.667411        72.5839 
 623   0.0000       2.671400        72.6925 
 624   0.0000       2.672977        72.7354 
 625   0.0000       2.691220        73.2318 
 626   0.0000       2.692998        73.2802 
 627   0.0000       2.699712        73.4629 
 628   0.0000       2.714864        73.8752 
 629   0.0000       2.724725        74.1435 
 630   0.0000       2.727418        74.2168 
 631   0.0000       2.743167        74.6454 
 632   0.0000       2.750476        74.8442 
 633   0.0000       2.764829        75.2348 
 634   0.0000       2.768274        75.3286 
 635   0.0000       2.778925        75.6184 
 636   0.0000       2.788640        75.8828 
 637   0.0000       2.789718        75.9121 
 638   0.0000       2.797538        76.1249 
 639   0.0000       2.822117        76.7937 
 640   0.0000       2.831331        77.0444 
 641   0.0000       2.848057        77.4996 
 642   0.0000       2.852743        77.6271 
 643   0.0000       2.864814        77.9555 
 644   0.0000       2.879101        78.3443 
 645   0.0000       2.891279        78.6757 
 646   0.0000       2.900267        78.9203 
 647   0.0000       2.912715        79.2590 
 648   0.0000       2.918161        79.4072 
 649   0.0000       2.932541        79.7985 
 650   0.0000       2.942675        80.0743 
 651   0.0000       2.956022        80.4374 
 652   0.0000       2.977791        81.0298 
 653   0.0000       2.993206        81.4493 
 654   0.0000       3.014767        82.0360 
 655   0.0000       3.021097        82.2082 
 656   0.0000       3.030390        82.4611 
 657   0.0000       3.053763        83.0971 
 658   0.0000       3.070532        83.5534 
 659   0.0000       3.084674        83.9382 
 660   0.0000       3.089970        84.0824 
 661   0.0000       3.103821        84.4592 
 662   0.0000       3.120206        84.9051 
 663   0.0000       3.133937        85.2788 
 664   0.0000       3.153050        85.7988 
 665   0.0000       3.162645        86.0599 
 666   0.0000       3.174762        86.3897 
 667   0.0000       3.185402        86.6792 
 668   0.0000       3.204024        87.1859 
 669   0.0000       3.205816        87.2347 
 670   0.0000       3.216204        87.5174 
 671   0.0000       3.222314        87.6836 
 672   0.0000       3.232656        87.9650 
 673   0.0000       3.248458        88.3950 
 674   0.0000       3.253751        88.5391 
 675   0.0000       3.262945        88.7893 
 676   0.0000       3.269659        88.9720 
 677   0.0000       3.277533        89.1862 
 678   0.0000       3.286593        89.4327 
 679   0.0000       3.293815        89.6293 
 680   0.0000       3.303102        89.8820 
 681   0.0000       3.316537        90.2476 
 682   0.0000       3.332050        90.6697 
 683   0.0000       3.333818        90.7178 
 684   0.0000       3.340013        90.8864 
 685   0.0000       3.352090        91.2150 
 686   0.0000       3.366780        91.6148 
 687   0.0000       3.385688        92.1293 
 688   0.0000       3.394453        92.3678 
 689   0.0000       3.401852        92.5691 
 690   0.0000       3.420791        93.0844 
 691   0.0000       3.430296        93.3431 
 692   0.0000       3.431639        93.3796 
 693   0.0000       3.437669        93.5437 
 694   0.0000       3.444675        93.7344 
 695   0.0000       3.457989        94.0967 
 696   0.0000       3.469058        94.3979 
 697   0.0000       3.481177        94.7276 
 698   0.0000       3.483663        94.7953 
 699   0.0000       3.490215        94.9736 
 700   0.0000       3.494298        95.0847 
 701   0.0000       3.505073        95.3779 
 702   0.0000       3.511033        95.5401 
 703   0.0000       3.521058        95.8129 
 704   0.0000       3.529520        96.0431 
 705   0.0000       3.533267        96.1451 
 706   0.0000       3.544664        96.4552 
 707   0.0000       3.558013        96.8185 
 708   0.0000       3.561337        96.9089 
 709   0.0000       3.567844        97.0860 
 710   0.0000       3.577221        97.3411 
 711   0.0000       3.585334        97.5619 
 712   0.0000       3.591403        97.7270 
 713   0.0000       3.602066        98.0172 
 714   0.0000       3.611528        98.2747 
 715   0.0000       3.618131        98.4543 
 716   0.0000       3.633293        98.8669 
 717   0.0000       3.641325        99.0855 
 718   0.0000       3.654068        99.4323 
 719   0.0000       3.656217        99.4907 
 720   0.0000       3.668625        99.8284 
 721   0.0000       3.671659        99.9109 
 722   0.0000       3.679220       100.1167 
 723   0.0000       3.682768       100.2132 
 724   0.0000       3.691575       100.4529 
 725   0.0000       3.697061       100.6021 
 726   0.0000       3.707175       100.8773 
 727   0.0000       3.712745       101.0289 
 728   0.0000       3.720652       101.2441 
 729   0.0000       3.730448       101.5107 
 730   0.0000       3.742817       101.8472 
 731   0.0000       3.748313       101.9968 
 732   0.0000       3.752521       102.1113 
 733   0.0000       3.757311       102.2416 
 734   0.0000       3.763260       102.4035 
 735   0.0000       3.773396       102.6793 
 736   0.0000       3.778693       102.8235 
 737   0.0000       3.789338       103.1131 
 738   0.0000       3.796375       103.3046 
 739   0.0000       3.802333       103.4667 
 740   0.0000       3.813354       103.7666 
 741   0.0000       3.816891       103.8629 
 742   0.0000       3.818739       103.9132 
 743   0.0000       3.827300       104.1461 
 744   0.0000       3.830338       104.2288 
 745   0.0000       3.839113       104.4676 
 746   0.0000       3.852920       104.8433 
 747   0.0000       3.867859       105.2498 
 748   0.0000       3.872471       105.3753 
 749   0.0000       3.877810       105.5206 
 750   0.0000       3.880109       105.5831 
 751   0.0000       3.886750       105.7638 
 752   0.0000       3.890732       105.8722 
 753   0.0000       3.904957       106.2593 
 754   0.0000       3.908948       106.3679 
 755   0.0000       3.917561       106.6023 
 756   0.0000       3.919290       106.6493 
 757   0.0000       3.929294       106.9215 
 758   0.0000       3.933308       107.0307 
 759   0.0000       3.945307       107.3573 
 760   0.0000       3.950918       107.5100 
 761   0.0000       3.957749       107.6958 
 762   0.0000       3.959138       107.7336 
 763   0.0000       3.972377       108.0939 
 764   0.0000       3.975809       108.1873 
 765   0.0000       3.988607       108.5355 
 766   0.0000       3.990673       108.5917 
 767   0.0000       3.997552       108.7789 
 768   0.0000       4.004474       108.9673 
 769   0.0000       4.012664       109.1901 
 770   0.0000       4.018419       109.3467 
 771   0.0000       4.022964       109.4704 
 772   0.0000       4.036231       109.8314 
 773   0.0000       4.038839       109.9024 
 774   0.0000       4.050541       110.2208 
 775   0.0000       4.053041       110.2888 
 776   0.0000       4.059068       110.4529 
 777   0.0000       4.069808       110.7451 
 778   0.0000       4.077447       110.9530 
 779   0.0000       4.090224       111.3007 
 780   0.0000       4.095846       111.4536 
 781   0.0000       4.103510       111.6622 
 782   0.0000       4.117960       112.0554 
 783   0.0000       4.122866       112.1889 
 784   0.0000       4.123742       112.2127 
 785   0.0000       4.128035       112.3296 
 786   0.0000       4.140541       112.6699 
 787   0.0000       4.144946       112.7897 
 788   0.0000       4.154349       113.0456 
 789   0.0000       4.165206       113.3410 
 790   0.0000       4.170343       113.4808 
 791   0.0000       4.182716       113.8175 
 792   0.0000       4.187919       113.9591 
 793   0.0000       4.192816       114.0923 
 794   0.0000       4.209643       114.5502 
 795   0.0000       4.218513       114.7916 
 796   0.0000       4.225260       114.9752 
 797   0.0000       4.229483       115.0901 
 798   0.0000       4.234454       115.2254 
 799   0.0000       4.248958       115.6200 
 800   0.0000       4.263048       116.0034 
 801   0.0000       4.271521       116.2340 
 802   0.0000       4.279105       116.4404 
 803   0.0000       4.291822       116.7864 
 804   0.0000       4.302731       117.0833 
 805   0.0000       4.310139       117.2849 
 806   0.0000       4.314169       117.3945 
 807   0.0000       4.326030       117.7172 
 808   0.0000       4.332541       117.8944 
 809   0.0000       4.343986       118.2059 
 810   0.0000       4.350677       118.3879 
 811   0.0000       4.359089       118.6168 
 812   0.0000       4.368146       118.8633 
 813   0.0000       4.378484       119.1446 
 814   0.0000       4.393963       119.5658 
 815   0.0000       4.397987       119.6753 
 816   0.0000       4.409378       119.9853 
 817   0.0000       4.422105       120.3316 
 818   0.0000       4.428982       120.5187 
 819   0.0000       4.436001       120.7097 
 820   0.0000       4.452619       121.1619 
 821   0.0000       4.458725       121.3281 
 822   0.0000       4.464140       121.4754 
 823   0.0000       4.478752       121.8730 
 824   0.0000       4.491732       122.2262 
 825   0.0000       4.500372       122.4614 
 826   0.0000       4.503398       122.5437 
 827   0.0000       4.509379       122.7064 
 828   0.0000       4.515483       122.8725 
 829   0.0000       4.527964       123.2122 
 830   0.0000       4.530659       123.2855 
 831   0.0000       4.543739       123.6414 
 832   0.0000       4.547844       123.7531 
 833   0.0000       4.556429       123.9867 
 834   0.0000       4.564176       124.1975 
 835   0.0000       4.593545       124.9967 
 836   0.0000       4.599145       125.1491 
 837   0.0000       4.607618       125.3797 
 838   0.0000       4.624680       125.8439 
 839   0.0000       4.633384       126.0808 
 840   0.0000       4.637740       126.1993 
 841   0.0000       4.660501       126.8187 
 842   0.0000       4.664137       126.9176 
 843   0.0000       4.668674       127.0411 
 844   0.0000       4.682954       127.4297 
 845   0.0000       4.695459       127.7699 
 846   0.0000       4.709915       128.1633 
 847   0.0000       4.711304       128.2011 
 848   0.0000       4.716373       128.3390 
 849   0.0000       4.725593       128.5899 
 850   0.0000       4.749986       129.2537 
 851   0.0000       4.765655       129.6801 
 852   0.0000       4.771997       129.8526 
 853   0.0000       4.784877       130.2031 
 854   0.0000       4.808980       130.8590 
 855   0.0000       4.819572       131.1472 
 856   0.0000       4.826240       131.3287 
 857   0.0000       4.830466       131.4437 
 858   0.0000       4.834805       131.5617 
 859   0.0000       4.866800       132.4323 
 860   0.0000       4.869265       132.4994 
 861   0.0000       4.892549       133.1330 
 862   0.0000       4.896243       133.2335 
 863   0.0000       4.905492       133.4852 
 864   0.0000       4.911344       133.6445 
 865   0.0000       4.922899       133.9589 
 866   0.0000       4.931821       134.2017 
 867   0.0000       4.944889       134.5573 
 868   0.0000       4.962985       135.0497 
 869   0.0000       4.971062       135.2695 
 870   0.0000       4.983302       135.6025 
 871   0.0000       4.992901       135.8637 
 872   0.0000       4.995032       135.9217 
 873   0.0000       5.008783       136.2959 
 874   0.0000       5.013590       136.4267 
 875   0.0000       5.034449       136.9943 
 876   0.0000       5.043115       137.2301 
 877   0.0000       5.046031       137.3095 
 878   0.0000       5.061561       137.7321 
 879   0.0000       5.069671       137.9528 
 880   0.0000       5.086741       138.4173 
 881   0.0000       5.109069       139.0248 
 882   0.0000       5.114551       139.1740 
 883   0.0000       5.119333       139.3041 
 884   0.0000       5.128197       139.5453 
 885   0.0000       5.156993       140.3289 
 886   0.0000       5.167203       140.6067 
 887   0.0000       5.183102       141.0394 
 888   0.0000       5.187161       141.1498 
 889   0.0000       5.202938       141.5791 
 890   0.0000       5.216932       141.9599 
 891   0.0000       5.222141       142.1017 
 892   0.0000       5.233349       142.4067 
 893   0.0000       5.254845       142.9916 
 894   0.0000       5.261457       143.1715 
 895   0.0000       5.269063       143.3785 
 896   0.0000       5.280116       143.6793 
 897   0.0000       5.288566       143.9092 
 898   0.0000       5.305180       144.3613 
 899   0.0000       5.314732       144.6212 
 900   0.0000       5.331777       145.0850 
 901   0.0000       5.346726       145.4918 
 902   0.0000       5.362791       145.9290 
 903   0.0000       5.373810       146.2288 
 904   0.0000       5.387277       146.5952 
 905   0.0000       5.400321       146.9502 
 906   0.0000       5.411623       147.2577 
 907   0.0000       5.433638       147.8568 
 908   0.0000       5.439990       148.0296 
 909   0.0000       5.442046       148.0856 
 910   0.0000       5.450751       148.3225 
 911   0.0000       5.461365       148.6113 
 912   0.0000       5.466838       148.7602 
 913   0.0000       5.484231       149.2335 
 914   0.0000       5.508109       149.8833 
 915   0.0000       5.520013       150.2072 
 916   0.0000       5.526868       150.3937 
 917   0.0000       5.549497       151.0095 
 918   0.0000       5.559375       151.2783 
 919   0.0000       5.568008       151.5132 
 920   0.0000       5.582970       151.9203 
 921   0.0000       5.586443       152.0149 
 922   0.0000       5.598962       152.3555 
 923   0.0000       5.615848       152.8150 
 924   0.0000       5.622682       153.0010 
 925   0.0000       5.635423       153.3476 
 926   0.0000       5.648702       153.7090 
 927   0.0000       5.655769       153.9013 
 928   0.0000       5.661571       154.0592 
 929   0.0000       5.677995       154.5061 
 930   0.0000       5.706505       155.2819 
 931   0.0000       5.708350       155.3321 
 932   0.0000       5.719523       155.6361 
 933   0.0000       5.735033       156.0582 
 934   0.0000       5.740643       156.2108 
 935   0.0000       5.752957       156.5459 
 936   0.0000       5.764071       156.8484 
 937   0.0000       5.776727       157.1927 
 938   0.0000       5.792747       157.6287 
 939   0.0000       5.802450       157.8927 
 940   0.0000       5.824765       158.4999 
 941   0.0000       5.862283       159.5208 
 942   0.0000       5.869744       159.7239 
 943   0.0000       5.902432       160.6133 
 944   0.0000       5.933975       161.4717 
 945   0.0000       5.985110       162.8631 
 946   0.0000       6.056486       164.8054 
 947   0.0000       6.073822       165.2771 
 948   0.0000       6.096253       165.8875 
 949   0.0000       6.108827       166.2296 
 950   0.0000       6.148613       167.3123 
 951   0.0000       6.149884       167.3469 
 952   0.0000       6.182190       168.2259 
 953   0.0000       6.197178       168.6338 
 954   0.0000       6.210293       168.9907 
 955   0.0000       6.226305       169.4264 
 956   0.0000       6.242219       169.8594 
 957   0.0000       6.254017       170.1805 
 958   0.0000       6.263682       170.4435 
 959   0.0000       6.274094       170.7268 
 960   0.0000       6.290215       171.1655 
 961   0.0000       6.307925       171.6474 
 962   0.0000       6.321354       172.0128 
 963   0.0000       6.338859       172.4891 
 964   0.0000       6.352062       172.8484 
 965   0.0000       6.358911       173.0348 
 966   0.0000       6.389038       173.8546 
 967   0.0000       6.402477       174.2202 
 968   0.0000       6.461428       175.8244 
 969   0.0000       6.514405       177.2660 
 970   0.0000       6.586143       179.2180 
 971   0.0000       6.631741       180.4588 
 972   0.0000       6.817605       185.5165 
 973   0.0000       6.831716       185.9004 
 974   0.0000       6.846687       186.3078 
 975   0.0000       6.880291       187.2222 
 976   0.0000       6.909576       188.0191 
 977   0.0000       6.933930       188.6818 
 978   0.0000       6.953745       189.2210 
 979   0.0000       6.985141       190.0753 
 980   0.0000       7.000935       190.5051 
 981   0.0000       7.015317       190.8965 
 982   0.0000       7.026152       191.1913 
 983   0.0000       7.051437       191.8794 
 984   0.0000       7.059494       192.0986 
 985   0.0000       7.116023       193.6368 
 986   0.0000       7.231417       196.7768 
 987   0.0000       7.296385       198.5447 
 988   0.0000       7.324043       199.2973 
 989   0.0000       7.380197       200.8254 
 990   0.0000       7.503893       204.1913 
 991   0.0000       7.565769       205.8750 
 992   0.0000       7.610710       207.0980 
 993   0.0000       7.686464       209.1593 
 994   0.0000       7.750866       210.9118 
 995   0.0000       7.841759       213.3851 
 996   0.0000       7.905592       215.1221 
 997   0.0000       7.991000       217.4462 
 998   0.0000       8.249173       224.4714 
 999   0.0000       9.401307       255.8226 
 1000   0.0000       9.410025       256.0598 
 1001   0.0000       9.429526       256.5905 
 1002   0.0000       9.444538       256.9990 
 1003   0.0000       9.453565       257.2446 
 1004   0.0000       9.480989       257.9908 
 1005   0.0000       9.651489       262.6304 
 1006   0.0000      10.084651       274.4173 
 1007   0.0000      10.086492       274.4674 
 1008   0.0000      10.099870       274.8314 
 1009   0.0000      10.199325       277.5378 
 1010   0.0000      10.208251       277.7806 
 1011   0.0000      10.236452       278.5480 
 1012   0.0000      10.329488       281.0797 
 1013   0.0000      10.377372       282.3826 
 1014   0.0000      10.441075       284.1161 
 1015   0.0000      11.002579       299.3954 
 1016   0.0000      16.705057       454.5677 
 1017   0.0000      17.536945       477.2045 
 1018   0.0000      18.112568       492.8680 
 1019   0.0000      18.404812       500.8204 
 1020   0.0000      18.528521       504.1867 
 1021   0.0000      18.672727       508.1107 
 1022   0.0000      20.397688       555.0493 
 1023   0.0000      21.223095       577.5098 
 1024   0.0000      21.618569       588.2712 

                 SPIN DOWN ORBITALS
  NO   OCC          E(Eh)            E(eV) 
   0   1.0000    -261.571295     -7117.7168 
   1   1.0000    -104.791949     -2851.5339 
   2   1.0000    -104.788508     -2851.4403 
   3   1.0000    -104.786481     -2851.3851 
   4   1.0000     -32.080597      -872.9574 
   5   1.0000     -27.558515      -749.9053 
   6   1.0000     -27.558443      -749.9034 
   7   1.0000     -27.558331      -749.9003 
   8   1.0000     -20.614344      -560.9448 
   9   1.0000     -11.421240      -310.7877 
  10   1.0000     -11.276999      -306.8628 
  11   1.0000     -11.271653      -306.7173 
  12   1.0000     -11.270431      -306.6840 
  13   1.0000     -11.245353      -306.0016 
  14   1.0000     -11.244759      -305.9855 
  15   1.0000     -11.237025      -305.7750 
  16   1.0000     -11.230524      -305.5981 
  17   1.0000     -10.518563      -286.2247 
  18   1.0000     -10.515091      -286.1302 
  19   1.0000     -10.513022      -286.0739 
  20   1.0000      -7.984480      -217.2688 
  21   1.0000      -7.983753      -217.2490 
  22   1.0000      -7.983714      -217.2479 
  23   1.0000      -7.980975      -217.1734 
  24   1.0000      -7.980284      -217.1546 
  25   1.0000      -7.980194      -217.1521 
  26   1.0000      -7.979012      -217.1199 
  27   1.0000      -7.978125      -217.0958 
  28   1.0000      -7.978041      -217.0935 
  29   1.0000      -4.155380      -113.0736 
  30   1.0000      -2.676929       -72.8430 
  31   1.0000      -2.676917       -72.8426 
  32   1.0000      -2.676434       -72.8295 
  33   1.0000      -1.453102       -39.5409 
  34   1.0000      -1.128170       -30.6991 
  35   1.0000      -1.097692       -29.8697 
  36   1.0000      -1.050799       -28.5937 
  37   1.0000      -1.038262       -28.2525 
  38   1.0000      -1.034919       -28.1616 
  39   1.0000      -1.021750       -27.8032 
  40   1.0000      -1.008434       -27.4409 
  41   1.0000      -0.959904       -26.1203 
  42   1.0000      -0.897705       -24.4278 
  43   1.0000      -0.825998       -22.4765 
  44   1.0000      -0.731290       -19.8994 
  45   1.0000      -0.713076       -19.4038 
  46   1.0000      -0.700191       -19.0532 
  47   1.0000      -0.683765       -18.6062 
  48   1.0000      -0.656388       -17.8612 
  49   1.0000      -0.622500       -16.9391 
  50   1.0000      -0.620765       -16.8919 
  51   1.0000      -0.604594       -16.4518 
  52   1.0000      -0.599230       -16.3059 
  53   1.0000      -0.585420       -15.9301 
  54   1.0000      -0.576832       -15.6964 
  55   1.0000      -0.560120       -15.2416 
  56   1.0000      -0.552270       -15.0280 
  57   1.0000      -0.545321       -14.8389 
  58   1.0000      -0.541558       -14.7365 
  59   1.0000      -0.528025       -14.3683 
  60   1.0000      -0.523157       -14.2358 
  61   1.0000      -0.504363       -13.7244 
  62   1.0000      -0.494285       -13.4502 
  63   1.0000      -0.484732       -13.1902 
  64   1.0000      -0.482101       -13.1186 
  65   1.0000      -0.453589       -12.3428 
  66   1.0000      -0.450326       -12.2540 
  67   1.0000      -0.447423       -12.1750 
  68   1.0000      -0.431183       -11.7331 
  69   1.0000      -0.428580       -11.6623 
  70   1.0000      -0.412930       -11.2364 
  71   1.0000      -0.360004        -9.7962 
  72   0.0000       0.012554         0.3416 
  73   0.0000       0.023449         0.6381 
  74   0.0000       0.024108         0.6560 
  75   0.0000       0.030487         0.8296 
  76   0.0000       0.039116         1.0644 
  77   0.0000       0.040997         1.1156 
  78   0.0000       0.042756         1.1635 
  79   0.0000       0.043265         1.1773 
  80   0.0000       0.044283         1.2050 
  81   0.0000       0.053792         1.4637 
  82   0.0000       0.056747         1.5442 
  83   0.0000       0.061273         1.6673 
  84   0.0000       0.063125         1.7177 
  85   0.0000       0.064014         1.7419 
  86   0.0000       0.064706         1.7607 
  87   0.0000       0.071634         1.9493 
  88   0.0000       0.077224         2.1014 
  89   0.0000       0.082271         2.2387 
  90   0.0000       0.089647         2.4394 
  91   0.0000       0.091755         2.4968 
  92   0.0000       0.093853         2.5539 
  93   0.0000       0.096141         2.6161 
  94   0.0000       0.100881         2.7451 
  95   0.0000       0.103070         2.8047 
  96   0.0000       0.104306         2.8383 
  97   0.0000       0.106973         2.9109 
  98   0.0000       0.107505         2.9253 
  99   0.0000       0.109457         2.9785 
 100   0.0000       0.111896         3.0448 
 101   0.0000       0.114795         3.1237 
 102   0.0000       0.119465         3.2508 
 103   0.0000       0.122320         3.3285 
 104   0.0000       0.123991         3.3740 
 105   0.0000       0.125555         3.4165 
 106   0.0000       0.127257         3.4628 
 107   0.0000       0.129243         3.5169 
 108   0.0000       0.132281         3.5995 
 109   0.0000       0.134013         3.6467 
 110   0.0000       0.137086         3.7303 
 111   0.0000       0.138847         3.7782 
 112   0.0000       0.144509         3.9323 
 113   0.0000       0.146673         3.9912 
 114   0.0000       0.151614         4.1256 
 115   0.0000       0.152126         4.1396 
 116   0.0000       0.156611         4.2616 
 117   0.0000       0.162356         4.4179 
 118   0.0000       0.162701         4.4273 
 119   0.0000       0.167745         4.5646 
 120   0.0000       0.171041         4.6543 
 121   0.0000       0.172553         4.6954 
 122   0.0000       0.175447         4.7742 
 123   0.0000       0.181561         4.9405 
 124   0.0000       0.182922         4.9776 
 125   0.0000       0.186924         5.0865 
 126   0.0000       0.187033         5.0894 
 127   0.0000       0.192322         5.2333 
 128   0.0000       0.197816         5.3828 
 129   0.0000       0.198505         5.4016 
 130   0.0000       0.199234         5.4214 
 131   0.0000       0.202470         5.5095 
 132   0.0000       0.205841         5.6012 
 133   0.0000       0.209297         5.6953 
 134   0.0000       0.215953         5.8764 
 135   0.0000       0.218655         5.9499 
 136   0.0000       0.224701         6.1144 
 137   0.0000       0.228064         6.2059 
 138   0.0000       0.229669         6.2496 
 139   0.0000       0.233697         6.3592 
 140   0.0000       0.235930         6.4200 
 141   0.0000       0.240014         6.5311 
 142   0.0000       0.241686         6.5766 
 143   0.0000       0.246697         6.7130 
 144   0.0000       0.250562         6.8181 
 145   0.0000       0.251608         6.8466 
 146   0.0000       0.254033         6.9126 
 147   0.0000       0.259999         7.0749 
 148   0.0000       0.261097         7.1048 
 149   0.0000       0.267309         7.2738 
 150   0.0000       0.272615         7.4182 
 151   0.0000       0.272980         7.4282 
 152   0.0000       0.278739         7.5849 
 153   0.0000       0.282103         7.6764 
 154   0.0000       0.286219         7.7884 
 155   0.0000       0.292635         7.9630 
 156   0.0000       0.293348         7.9824 
 157   0.0000       0.297041         8.0829 
 158   0.0000       0.299108         8.1392 
 159   0.0000       0.307593         8.3700 
 160   0.0000       0.309699         8.4273 
 161   0.0000       0.317204         8.6316 
 162   0.0000       0.321409         8.7460 
 163   0.0000       0.322494         8.7755 
 164   0.0000       0.329933         8.9779 
 165   0.0000       0.332070         9.0361 
 166   0.0000       0.335724         9.1355 
 167   0.0000       0.341899         9.3035 
 168   0.0000       0.342272         9.3137 
 169   0.0000       0.345053         9.3894 
 170   0.0000       0.349980         9.5234 
 171   0.0000       0.354128         9.6363 
 172   0.0000       0.358760         9.7623 
 173   0.0000       0.360933         9.8215 
 174   0.0000       0.364077         9.9070 
 175   0.0000       0.367139         9.9904 
 176   0.0000       0.368750        10.0342 
 177   0.0000       0.376378        10.2418 
 178   0.0000       0.378502        10.2996 
 179   0.0000       0.382056        10.3963 
 180   0.0000       0.385356        10.4861 
 181   0.0000       0.386568        10.5191 
 182   0.0000       0.390777        10.6336 
 183   0.0000       0.393078        10.6962 
 184   0.0000       0.394601        10.7376 
 185   0.0000       0.395316        10.7571 
 186   0.0000       0.399803        10.8792 
 187   0.0000       0.402341        10.9483 
 188   0.0000       0.404590        11.0095 
 189   0.0000       0.407567        11.0905 
 190   0.0000       0.412431        11.2228 
 191   0.0000       0.417162        11.3516 
 192   0.0000       0.420773        11.4498 
 193   0.0000       0.425309        11.5733 
 194   0.0000       0.428641        11.6639 
 195   0.0000       0.434738        11.8298 
 196   0.0000       0.437792        11.9129 
 197   0.0000       0.442324        12.0362 
 198   0.0000       0.446019        12.1368 
 199   0.0000       0.450030        12.2459 
 200   0.0000       0.453255        12.3337 
 201   0.0000       0.456753        12.4289 
 202   0.0000       0.459122        12.4934 
 203   0.0000       0.461831        12.5671 
 204   0.0000       0.464200        12.6315 
 205   0.0000       0.467002        12.7078 
 206   0.0000       0.477077        12.9819 
 207   0.0000       0.477621        12.9967 
 208   0.0000       0.480607        13.0780 
 209   0.0000       0.483968        13.1694 
 210   0.0000       0.487560        13.2672 
 211   0.0000       0.494575        13.4581 
 212   0.0000       0.496292        13.5048 
 213   0.0000       0.498157        13.5555 
 214   0.0000       0.500856        13.6290 
 215   0.0000       0.503916        13.7123 
 216   0.0000       0.506660        13.7869 
 217   0.0000       0.509126        13.8540 
 218   0.0000       0.514826        14.0091 
 219   0.0000       0.517467        14.0810 
 220   0.0000       0.520071        14.1519 
 221   0.0000       0.522301        14.2125 
 222   0.0000       0.527132        14.3440 
 223   0.0000       0.527941        14.3660 
 224   0.0000       0.529027        14.3956 
 225   0.0000       0.532448        14.4886 
 226   0.0000       0.536557        14.6005 
 227   0.0000       0.539036        14.6679 
 228   0.0000       0.542248        14.7553 
 229   0.0000       0.544566        14.8184 
 230   0.0000       0.546922        14.8825 
 231   0.0000       0.551721        15.0131 
 232   0.0000       0.556895        15.1539 
 233   0.0000       0.560936        15.2638 
 234   0.0000       0.562237        15.2993 
 235   0.0000       0.566951        15.4275 
 236   0.0000       0.571782        15.5590 
 237   0.0000       0.576115        15.6769 
 238   0.0000       0.576666        15.6919 
 239   0.0000       0.583236        15.8707 
 240   0.0000       0.585825        15.9411 
 241   0.0000       0.587904        15.9977 
 242   0.0000       0.592564        16.1245 
 243   0.0000       0.593880        16.1603 
 244   0.0000       0.598630        16.2896 
 245   0.0000       0.603819        16.4307 
 246   0.0000       0.606131        16.4937 
 247   0.0000       0.615233        16.7413 
 248   0.0000       0.616473        16.7751 
 249   0.0000       0.619359        16.8536 
 250   0.0000       0.621685        16.9169 
 251   0.0000       0.627465        17.0742 
 252   0.0000       0.633492        17.2382 
 253   0.0000       0.636086        17.3088 
 254   0.0000       0.638093        17.3634 
 255   0.0000       0.643436        17.5088 
 256   0.0000       0.649382        17.6706 
 257   0.0000       0.650664        17.7055 
 258   0.0000       0.652840        17.7647 
 259   0.0000       0.656102        17.8535 
 260   0.0000       0.662064        18.0157 
 261   0.0000       0.667541        18.1647 
 262   0.0000       0.671023        18.2595 
 263   0.0000       0.674654        18.3583 
 264   0.0000       0.675523        18.3819 
 265   0.0000       0.680664        18.5218 
 266   0.0000       0.687473        18.7071 
 267   0.0000       0.690927        18.8011 
 268   0.0000       0.695500        18.9255 
 269   0.0000       0.698789        19.0150 
 270   0.0000       0.704167        19.1614 
 271   0.0000       0.709121        19.2962 
 272   0.0000       0.713322        19.4105 
 273   0.0000       0.718975        19.5643 
 274   0.0000       0.722527        19.6610 
 275   0.0000       0.724663        19.7191 
 276   0.0000       0.732336        19.9279 
 277   0.0000       0.737909        20.0795 
 278   0.0000       0.738714        20.1014 
 279   0.0000       0.743572        20.2336 
 280   0.0000       0.748834        20.3768 
 281   0.0000       0.750974        20.4350 
 282   0.0000       0.760285        20.6884 
 283   0.0000       0.763981        20.7890 
[...]
  | sigma^2 in % of trace(Dip) retained ...   1.58e+01
  | sigma^2 in % of trace(Dpq) retained ...   1.37e-01
  | Av. % of trace(Di) retained         ...  99.998571354931
  | Av. % of trace(Dp) retained         ...  99.999999104253
  | sigma^2 in % of trace(Di) retained  ...   6.58e-07
  | sigma^2 in % of trace(Dp) retained  ...   2.57e-13
 Distributions of % trace(Dij) recovered:
  |       >= 99.9  ...   105 ( 22.0 % of all IJ-pairs)
  |   [80.0, 90.0) ...    23 (  4.8 % of all IJ-pairs)
  |   [90.0, 99.0) ...   264 ( 55.3 % of all IJ-pairs)
  |   [99.0, 99.9) ...    85 ( 17.8 % of all IJ-pairs)
 Distributions of % trace(Dip) recovered:
  |   [80.0, 90.0) ...    13 ( 11.5 % of all IP-pairs)
  |   [90.0, 99.0) ...    54 ( 47.8 % of all IP-pairs)
  |   [99.0, 99.9) ...    46 ( 40.7 % of all IP-pairs)
 Distributions of % trace(Dpq) recovered:
  |       >= 99.9  ...     5 ( 33.3 % of all PQ-pairs)
  |   [99.0, 99.9) ...    10 ( 66.7 % of all PQ-pairs)
 Distributions of % trace(Di) recovered :
  |       >= 99.9  ...    43 (100.0 % of all I-pairs )
 Distributions of % trace(Dp) recovered :
  |       >= 99.9  ...     5 (100.0 % of all P-pairs )

                       ===========================
                       1049 OF 1673 PAIRS ARE KEPT
                       ===========================

 Initial PAO correlation energy (all pairs)    ...  -2.6837264238 Eh
 Energy constituents in PAO basis (Eh):
  | Vijab(+0) ...  -2.2564315285
  | Viab (-1) ...  -0.1741252747
  | Vab  (-2) ...  -0.0573326458
  | Va   (-1) ...  -0.0000451798
  | Vija (+1) ...  -0.0715005774
  | Vij  (+2) ...  -0.0155416433
  | Via  (+0) ...  -0.1085854249
  | Vi   (+1) ...  -0.0001641493
 Initial PNO correlation energy                ...  -2.6491954247 Eh
 Energy constituents in PNO basis (Eh):
  | Vijab(+0) ...  -2.2374818749 (err=  0.0189496536)
  | Viab (-1) ...  -0.1601300827 (err=  0.0139951920)
  | Vab  (-2) ...  -0.0568773910 (err=  0.0004552548)
  | Va   (-1) ...  -0.0000261860 (err=  0.0000189938)
  | Vija (+1) ...  -0.0705573646 (err=  0.0009432129)
  | Vij  (+2) ...  -0.0154866535 (err=  0.0000549899)
  | Via  (+0) ...  -0.1084722310 (err=  0.0001131940)
  | Vi   (+1) ...  -0.0001636412 (err=  0.0000005081)
 Sum of total truncation errors ...   0.0345309990 Eh
  | Pair screening ...   0.0122554995 Eh
  | PNO truncation ...   0.0222754996 Eh

 UMP2 correlation energy (PAO) ...  -2.6786509796
  | alpha-alpha ...  -0.3841472757 (NP_aa=  898)
  | alpha-beta  ...  -1.9898927580 (NP_ab= 1648)
  | beta -beta  ...  -0.3046109459 (NP_bb=  717)
 UMP2 correlation energy (PNO) ...  -2.6437502889
  | alpha-alpha ...  -0.3720424214 (err=  0.0121048542, NP_aa=  557)
  | alpha-beta  ...  -1.9712752632 (err=  0.0186174948, NP_ab= 1024)
  | beta -beta  ...  -0.3004326043 (err=  0.0041783416, NP_bb=  434)
 Sum of total UMP2 truncation errors ...   0.0349006907 Eh
  | Pair screening ...   0.0122632160 Eh
  | PNO truncation ...   0.0226374747 Eh
 Timing for NEV-PNO construction (sec.)
  | Intermediate construction  ..           39.207
  | Amplitude construction     ..           56.125
  | Total time                 ..           95.331
 Making pair pair interaction lists ...      ok
 Total size for 2-ext PNO integrals ...     10.6 MB
Checking the number of SOMO/SOMO doubles PNOs ... 
 #Truncate: (72, 72)[171] -> [86] .. 
 #Truncate: (73, 73)[171] -> [86] .. 
 #Truncate: (74, 74)[174] -> [86] .. 
 #Truncate: (75, 75)[170] -> [86] .. 
 #Truncate: (76, 76)[172] -> [86] .. 

--------------------------------
LOCAL RI TRANSFORMATION (VABPAO)
--------------------------------

Number of PAOs:    1030
Basis functions:   1025 (343 shells)
Aux. functions:    2424 (644 shells)

Processing maps (0.0 sec)
Average map sizes:
   Aux shells -> PAOs           1030.0
   PAOs       -> AO shells       343.0

Calculating integrals (188.6 sec, 37370.165 MB)
Finished
-----------------------------
LOCAL RI TRANSFORMATION (IJV)
-----------------------------

Orbital window:      29 to 76
Basis functions:   1025 (343 shells)
Aux. functions:    2424 (644 shells)

Processing maps (0.0 sec)
Average map sizes:
   Aux shells -> MOs(i)           46.3
   Aux shells -> MOs(j)           48.0
   MOs        -> AO shells       339.7

Calculating integrals (22.4 sec, 41.229 MB)
Sorting integrals (0.4 sec, 41.202 MB)
Total time for the integral transformation: 22.8 sec


-------------------------------------
Pair Pair Term precalculation with     
RI-(ij|mn) and (im|jn) transformation  
ON THE FLY                             
-------------------------------------

   IBatch   1 (of   2)              ... done ( 1198.279 sec)
   IBatch   2 (of   2)              ... done (  664.244 sec)
Total EXT                           ...        1862.523 sec

---------------------
RI-PNO TRANSFORMATION
---------------------

Total Number of PNOs                   ... 32880
Total Number of IJ-PNOs                ... 28789
Total Number of IP-PNOs                ...  3133
Total Number of PQ-PNOs                ...   958
Total Number of IJ-pairs               ...   911
Total Number of PI-pairs               ...   113
Total Number of PQ-pairs               ...    25
Average number of PNOs per pair        ...    31
Maximal number of PNOs per pair        ...    86
>> Statistics for ij-pairs..
   #pairs with  1 -  5 PNOs   :    0
   #pairs with  6 - 10 PNOs   :    0
   #pairs with 11 - 15 PNOs   :   80
   #pairs with 16 - 20 PNOs   :  182
   #pairs with 21 - 25 PNOs   :  160
   #pairs with 26 - 30 PNOs   :  140
   #pairs with 31 - 35 PNOs   :   62
   #pairs with 36 - 40 PNOs   :   56
   #pairs with 41 - 45 PNOs   :   46
   #pairs with 46 - 50 PNOs   :   18
   #pairs with 51 - 55 PNOs   :   32
   #pairs with 56 - 60 PNOs   :   55
   #pairs with 61 - 65 PNOs   :   75
   #pairs with 66 - 70 PNOs   :    3
   #pairs with 81 - 85 PNOs   :    2
>> Statistics for ip-pairs..
   #pairs with  1 -  5 PNOs   :    0
   #pairs with  6 - 10 PNOs   :    1
   #pairs with 11 - 15 PNOs   :   12
   #pairs with 16 - 20 PNOs   :    9
   #pairs with 21 - 25 PNOs   :   23
   #pairs with 26 - 30 PNOs   :   10
   #pairs with 31 - 35 PNOs   :   44
   #pairs with 36 - 40 PNOs   :   12
   #pairs with 41 - 45 PNOs   :    2
   #pairs with 46 - 50 PNOs   :    0
>> Statistics for pq-pairs..
   #pairs with  1 -  5 PNOs   :    0
   #pairs with  6 - 10 PNOs   :    0
   #pairs with 11 - 15 PNOs   :    0
   #pairs with 16 - 20 PNOs   :    0
   #pairs with 21 - 25 PNOs   :   10
   #pairs with 26 - 30 PNOs   :   10
   #pairs with 31 - 35 PNOs   :    0
   #pairs with 36 - 40 PNOs   :    0
   #pairs with 41 - 45 PNOs   :    0
   #pairs with 46 - 50 PNOs   :    0
   #pairs with 86 - 90 PNOs   :    5

Generation of (ij|ab)[P] integrals            ... on
Generation of (ia|bc)[P],(ja|bc)[P] integrals ... on
Storage of 3 and 4 external integrals         ... on
Generation of ALL (ka|bc)[P] integrals        ... on
Keep RI integrals in memory                   ... off

Ibatch:  1 (of  1)
Starting 2-4 index PNO integral generation ... done

Timings:
Total PNO integral transformation time     ...       1852.654 sec
Size of the 3-external file                ...       280 MB
Size of the 4-external file                ...      1913 MB
Size of the IKJL file                      ...        16 MB
Size of the all 3-external file            ...      6728 MB
Size of the 1-external file                ...        21 MB

Size of the PAO/PNO coefficient matrices   ...     207.9 MB

Making pair/pair overlap matrices          ... done (  269.927 sec)
Size of the pair overlap file              ...    2276.0 MB
Total # unrestricted pairs ...       2015
  # of alpha-alpha pairs   ...        557
  # of alpha-beta pairs    ...       1024
  # of beta-beta pairs     ...        434
Constructing the guess amplitudes          ... done (    0.545 sec)

-------------------------
FINAL STARTUP INFORMATION
-------------------------

E(0)                                       ...  -3028.462864696
E(SL-UMP2 in NEV-PNO space)                ...     -2.679611834
Initial E(tot)                             ...  -3031.142476530
<T|T>                                      ...      0.532895741
Number of unrestricted pairs included      ... 2015
Total number of pairs                      ... 4095
----------------------------------------------------------
                     OPEN-SHELL COUPLED CLUSTER ITERATIONS
----------------------------------------------------------

Number of PNO amplitudes to be optimized        ...          2032961
Number of canonical amplitudes for strong pairs ...       1819953973
Untruncated number of canonical amplitudes      ...       3698645738

Iter       E(tot)           E(Corr)          Delta-E          Residual     Time
  0  -3031.149702549     -2.650976308      0.028635526      0.020861439 1369.97
                           *** Turning on DIIS ***
  1  -3031.265517710     -2.766791470     -0.115815162      0.010406916 1419.20
  2  -3031.330409247     -2.831683006     -0.064891536      0.008340640 1478.69
  3  -3031.352364166     -2.853637925     -0.021954919      0.003236882 1447.19
  4  -3031.360011822     -2.861285581     -0.007647657      0.002645907 1421.33
  5  -3031.364207730     -2.865481489     -0.004195908      0.001513327 1730.39
  6  -3031.365754852     -2.867028611     -0.001547122      0.000759005 1703.39
  7  -3031.366413529     -2.867687288     -0.000658677      0.000484005 1708.70
  8  -3031.366557534     -2.867831294     -0.000144006      0.000226259 1717.17
  9  -3031.366616978     -2.867890737     -0.000059444      0.000136617 1704.90
 10  -3031.366618711     -2.867892470     -0.000001733      0.000079217 1705.15
 11  -3031.366631752     -2.867905512     -0.000013042      0.000063588 1712.10
 12  -3031.366636316     -2.867910075     -0.000004563      0.000033513 1705.47
 13  -3031.366638506     -2.867912265     -0.000002190      0.000018192 1706.85
 14  -3031.366640126     -2.867913885     -0.000001620      0.000010507 1709.11
 15  -3031.366639213     -2.867912972      0.000000913      0.000004530 1706.93
               --- The CCSD iterations have converged ---

E(0)                                       ...  -3028.462864696
E(CORR)(strong-pairs)                      ...     -2.867912972
E(CORR)(weak-pairs)                        ...     -0.035861545
E(CORR)(corrected)                         ...     -2.903774517
E(TOT)                                     ...  -3031.366639213
Singles norm <S|S>**1/2                    ...      0.195405464 ( 0.064693528, 0.130711936)  
T1 diagnostic                              ...      0.020484059                              
<S**2>(linearized)                         ...      8.7508451 (ideal value:      8.7500000)

----------------------
LARGEST PNO AMPLITUDES
----------------------
  46a-> 78a  46b-> 78b       0.055334
  49b-> 72b  -1b-> -1b       0.054643
  51b-> 73b  -1b-> -1b       0.053969
  52b-> 73b  -1b-> -1b       0.053811
  49b-> 76b  -1b-> -1b       0.047309
  49b-> 75b  -1b-> -1b       0.046387
  44a-> 77a  44b-> 77b       0.045596
  47a-> 78a  47b-> 78b       0.045025
  62a-> 77a  62b-> 77b       0.044113
  55a-> 77a  55b-> 77b       0.044083
  38b-> 74b  -1b-> -1b       0.043922
  70a-> 77a  70b-> 77b       0.043724
  35b-> 72b  -1b-> -1b       0.043363
  42b-> 74b  -1b-> -1b       0.043282
  64a-> 77a  64b-> 77b       0.043232
  56a-> 78a  56b-> 78b       0.043141

Total # unrestricted pairs ...       1248
  # of alpha-alpha pairs   ...        341
  # of alpha-beta pairs    ...        624
  # of beta-beta pairs     ...        283

-------------------------------------------
DLPNO BASED TRIPLES CORRECTION
-------------------------------------------

Singles multiplier          ...  1.000000
Fragment selection                          .... not used
TCutTNO                     ... 1.000e-09
TCutMP2Pairs                ... 1.000e-05
TCutDOStrong                ... 2.000e-02
TCutMKNStrong               ... 1.000e-02
TCutDOWeak                  ... 4.000e-02
TCutMKNWeak                 ... 1.000e-01
NTCutTNO                    ... 1

Number of Triples that are to be computed         ...     31230

 . . . . . . . . .
10% done  
20% done  
30% done  
40% done  
50% done  
60% done  
70% done  
80% done  
90% done  
          Batch   1   done (  12348.266 sec)

Triples-Correction TCutTNO=   1.000e-09 (NWeakPairs = 0  1  2  3)  -0.116282049751   -0.001856299509    0.000000000000    0.000000000000
Triples-Correction  -0.118138349260

Triples timings:
Total time                      ... 12885.010 sec

Triples List generation         ...     0.000 sec
TNO generation                  ...   536.484 sec
Pair density generation         ...     0.090 sec
Look up tables                  ...     0.100 sec
Generating 3-index integrals    ...  7537.701 sec
Make 4-ind.int. from 3-ind.int  ...     2.778 sec
Projecting amplitudes (D + S)   ...  4594.712 sec
Sorting integrals for spin cases...    44.295 sec
Calculate W0/W1                 ...   136.157 sec
Energy contr. (sum over a,b,c)  ...    32.497 sec

Everything after 3-index        ...  4908.584 sec

Energy contribution AAA         ...    21.247 sec
Energy contribution AAB         ...    94.387 sec
Energy contribution ABB         ...    85.874 sec
Energy contribution BBB         ...    11.481 sec
prep                ...     2.670 sec
makeTTNO            ...  4547.431 sec
copyij              ...     0.115 sec
copyil              ...     3.498 sec
transposeij         ...     0.066 sec
newMatInDoubleProj  ...    45.866 sec
BlasInDoubleProj    ...  2433.367 sec
ProjSingles         ...    38.742 sec
ProjDoubles         ...  4555.969 sec
overall Doubles for projection      ... 2764940
used Doubles for projection         ... 2764940


Number of Triples   (0, 1, 2, 3 weak pairs; overall):  14415   11401       0       0  ( 25816)
Number of Atoms     (0, 1, 2, 3 weak pairs; overall):   18.8    13.5     0.0     0.0  (    29)
Number of PAOs      (0, 1, 2, 3 weak pairs; overall):  739.9   551.9     0.0     0.0  (  1025)
Number of AuxFcns   (0, 1, 2, 3 weak pairs; overall):  821.3   567.8     0.0     0.0  (  2424)
Number of TNOs (0, 1, 2, 3 weak pairs         ):   78.8    56.0     0.0     0.0
Aver. Number of NTNO, Atoms, PAOs, AuxFcns / Triples:  25816    68.7    16.5   656.9   709.3

Triples Correction (T)                     ...     -0.118138349
    alpha-alpha-alpha ... -0.003774060 (  3.2%)
    alpha-alpha-beta  ... -0.055497975 ( 47.0%)
    alpha-beta -beta  ... -0.054831649 ( 46.4%)
    beta -beta -beta  ... -0.004034666 (  3.4%)
Final correlation energy                   ...     -3.021912866
E(CCSD)                                    ...  -3031.366639213
E(CCSD(T))                                 ...  -3031.484777562

----------------------------
STATISTICS FOR PAIR-ENERGIES
----------------------------
Minimum, maximum and average ratios of UMP and CCSD pair-energies ... 0.46, 1.45, 1.02


------------------------------------------------------------------------------- 
                                     TIMINGS                                   
------------------------------------------------------------------------------- 


Total execution time                   ...    46704.928 sec

Localization of occupied MO's          ...       10.655 sec (  0.0%)
Fock Matrix Formation                  ...     1360.595 sec (  2.9%)
Differential overlap integrals         ...        1.537 sec (  0.0%)
Organizing maps                        ...        1.632 sec (  0.0%)
RI 3-index integral generations        ...      273.813 sec (  0.6%)
RI-PNO integral transformation         ...     4245.479 sec (  9.1%)
Initial Guess                          ...     1735.004 sec (  3.7%)
DIIS Solver                            ...       19.315 sec (  0.0%)
State Vector Update                    ...        0.727 sec (  0.0%)
Sigma-vector construction              ...    25946.559 sec ( 55.6%)
  <0|H|D>                              ...        0.030 sec (  0.0% of sigma)
  <D|H|D>(0-ext)                       ...     4568.642 sec ( 17.6% of sigma)
  <D|H|D>(2-ext Fock)                  ...        1.728 sec (  0.0% of sigma)
  <D|H|D>(2-ext)                       ...     3809.228 sec ( 14.7% of sigma)
  <D|H|D>(4-ext)                       ...      147.742 sec (  0.6% of sigma)
  <D|H|D>(4-ext-corr)                  ...      928.279 sec (  3.6% of sigma)
  CCSD doubles correction              ...      439.503 sec (  1.7% of sigma)
  <S|H|S>                              ...      671.487 sec (  2.6% of sigma)
  <S|H|D>(1-ext)                       ...      253.699 sec (  1.0% of sigma)
  <D|H|S>(1-ext)                       ...        0.971 sec (  0.0% of sigma)
  <S|H|D>(3-ext)                       ...       21.371 sec (  0.1% of sigma)
  CCSD singles correction              ...        0.005 sec (  0.0% of sigma)
  Fock-dressing                        ...     7584.182 sec ( 29.2% of sigma)
  Singles amplitudes                   ...      106.224 sec (  0.4% of sigma)
  (ik|jl)-dressing                     ...     5903.487 sec ( 22.8% of sigma)
  (ij|ab),(ia|jb)-dressing             ...     1232.893 sec (  4.8% of sigma)
  Pair energies                        ...        0.123 sec (  0.0% of sigma)
Total Time for computing (T)           ...    13443.444 sec ( 28.8% of ALL)


-------------------------   --------------------
FINAL SINGLE POINT ENERGY     -3031.484777561900
-------------------------   --------------------


                            ***************************************
                            *     ORCA property calculations      *
                            ***************************************

                                    ---------------------
                                    Active property flags
                                    ---------------------
   (+) Dipole Moment


------------------------------------------------------------------------------
                       ORCA ELECTRIC PROPERTIES CALCULATION
------------------------------------------------------------------------------

Dipole Moment Calculation                       ... on
Quadrupole Moment Calculation                   ... off
Polarizability Calculation                      ... off
GBWName                                         ... simple-grid-260-285-b3lyp_d3bj-631gd-gas-singlepoint-DLPNO_CCSD_T1-NormalPNO-augtz-gas.gbw
Electron density file                           ... simple-grid-260-285-b3lyp_d3bj-631gd-gas-singlepoint-DLPNO_CCSD_T1-NormalPNO-augtz-gas.scfp.tmp
The origin for moment calculation is the CENTER OF MASS  = (-0.313894, -0.041022  0.014609)

-------------
DIPOLE MOMENT
-------------
                                X             Y             Z
Electronic contribution:    -43.38900      -4.73040       1.54684
Nuclear contribution   :     46.77011       6.11230      -2.17675
                        -----------------------------------------
Total Dipole Moment    :      3.38111       1.38190      -0.62991
                        -----------------------------------------
Magnitude (a.u.)       :      3.70652
Magnitude (Debye)      :      9.42123



--------------------
Rotational spectrum 
--------------------
 
Rotational constants in cm-1:     0.018886     0.010773     0.010140 
Rotational constants in MHz :   566.183668   322.976474   303.980300 

 Dipole components along the rotational axes: 
x,y,z [a.u.] :     3.374648    -1.378841    -0.669969 
x,y,z [Debye]:     8.577673    -3.504735    -1.702926 

 

Timings for individual modules:

Sum of individual times         ...    63115.542 sec (=1051.926 min)
GTO integral calculation        ...       12.248 sec (=   0.204 min)   0.0 %
SCF iterations                  ...    16382.066 sec (= 273.034 min)  26.0 %
MDCI module                     ...    46721.229 sec (= 778.687 min)  74.0 %
                             ****ORCA TERMINATED NORMALLY****
TOTAL RUN TIME: 0 days 17 hours 31 minutes 58 seconds 238 msec
