
                                 *****************
                                 * O   R   C   A *
                                 *****************

           --- An Ab Initio, DFT and Semiempirical electronic structure package ---

                  #######################################################
                  #                        -***-                        #
                  #          Department of theory and spectroscopy      #
                  #               Directorship: Frank Neese             #
                  #        Max Planck Institute fuer Kohlenforschung    #
                  #                Kaiser Wilhelm Platz 1               #
                  #                 D-45470 Muelheim/Ruhr               #
                  #                      Germany                        #
                  #                                                     #
                  #                  All rights reserved                #
                  #                        -***-                        #
                  #######################################################


                         Program Version 4.1.2  - RELEASE  -


 With contributions from (in alphabetic order):
   Daniel Aravena         : Magnetic Properties
   Michael Atanasov       : Ab Initio Ligand Field Theory
   Alexander A. Auer      : GIAO ZORA
   Ute Becker             : Parallelization
   Giovanni Bistoni       : ED, Open-shell LED
   Martin Brehm           : Molecular dynamics
   Dmytro Bykov           : SCF Hessian
   Vijay G. Chilkuri      : MRCI spin determinant printing
   Dipayan Datta          : RHF DLPNO-CCSD density
   Achintya Kumar Dutta   : EOM-CC, STEOM-CC
   Dmitry Ganyushin       : Spin-Orbit,Spin-Spin,Magnetic field MRCI
   Miquel Garcia          : C-PCM Hessian
   Yang Guo               : DLPNO-NEVPT2, CIM, IAO-localization
   Andreas Hansen         : Spin unrestricted coupled pair/coupled cluster methods
   Benjamin Helmich-Paris : CASSCF linear response (MC-RPA)
   Lee Huntington         : MR-EOM, pCC
   Robert Izsak           : Overlap fitted RIJCOSX, COSX-SCS-MP3, EOM
   Christian Kollmar      : KDIIS, OOCD, Brueckner-CCSD(T), CCSD density
   Simone Kossmann        : Meta GGA functionals, TD-DFT gradient, OOMP2, MP2 Hessian
   Martin Krupicka        : AUTO-CI
   Lucas Lang             : DCDCAS
   Dagmar Lenk            : GEPOL surface, SMD
   Dimitrios Liakos       : Extrapolation schemes; parallel MDCI
   Dimitrios Manganas     : ROCIS; embedding schemes
   Dimitrios Pantazis     : SARC Basis sets
   Taras Petrenko         : DFT Hessian,TD-DFT gradient, ASA, ECA, R-Raman, ABS, FL, XAS/XES, NRVS
   Peter Pinski           : DLPNO-MP2, DLPNO-MP2 Gradient
   Christoph Reimann      : Effective Core Potentials
   Marius Retegan         : Local ZFS, SOC
   Christoph Riplinger    : Optimizer, TS searches, QM/MM, DLPNO-CCSD(T), (RO)-DLPNO pert. Triples
   Tobias Risthaus        : Range-separated hybrids, TD-DFT gradient, RPA, STAB
   Michael Roemelt        : Restricted open shell CIS
   Masaaki Saitow         : Open-shell DLPNO
   Barbara Sandhoefer     : DKH picture change effects
   Avijit Sen             : IP-ROCIS
   Kantharuban Sivalingam : CASSCF convergence, NEVPT2, FIC-MRCI
   Bernardo de Souza      : ESD, SOC TD-DFT
   Georgi Stoychev        : AutoAux, RI-MP2 NMR
   Willem Van den Heuvel  : Paramagnetic NMR
   Boris Wezisla          : Elementary symmetry handling
   Frank Wennmohs         : Technical directorship


 We gratefully acknowledge several colleagues who have allowed us to
 interface, adapt or use parts of their codes:
   Stefan Grimme, W. Hujo, H. Kruse,             : VdW corrections, initial TS optimization,
                  C. Bannwarth                     DFT functionals, gCP, sTDA/sTD-DF
   Ed Valeev                                     : LibInt (2-el integral package), F12 methods
   Garnet Chan, S. Sharma, J. Yang, R. Olivares  : DMRG
   Ulf Ekstrom                                   : XCFun DFT Library
   Mihaly Kallay                                 : mrcc  (arbitrary order and MRCC methods)
   Andreas Klamt, Michael Diedenhofen            : otool_cosmo (COSMO solvation model)
   Jiri Pittner, Ondrej Demel                    : Mk-CCSD
   Frank Weinhold                                : gennbo (NPA and NBO analysis)
   Christopher J. Cramer and Donald G. Truhlar   : smd solvation model
   Lars Goerigk                                  : TD-DFT with DH, B97 family of functionals
   V. Asgeirsson, H. Jonsson                     : NEB implementation
   FAccTs GmbH                                   : IRC, NEB, NEB-TS, Multilevel


 Your calculation uses the libint2 library for the computation of 2-el integrals
 For citations please refer to: http://libint.valeyev.net

 This ORCA versions uses:
   CBLAS   interface :  Fast vector & matrix operations
   LAPACKE interface :  Fast linear algebra routines
   SCALAPACK package :  Parallel linear algebra routines


----- Orbital basis set information -----
Your calculation utilizes the basis: aug-cc-pVTZ 
    H, B-Ne : Obtained from the ccRepo (grant-hill.group.shef.ac.uk/ccrepo) Feb. 2017
              R. A. Kendall, T. H. Dunning, Jr., R. J. Harrison, J. Chem. Phys. 96, 6796 (1992)
         He : Obtained from the ccRepo (grant-hill.group.shef.ac.uk/ccrepo) Feb. 2017
              D. E. Woon, T. H. Dunning, Jr., J. Chem. Phys. 100, 2975 (1994)
  Li-Be, Na : Obtained from the ccRepo (grant-hill.group.shef.ac.uk/ccrepo) Feb. 2017
              B. P. Prascher, D. E. Woon, K. A. Peterson, T. H. Dunning, Jr., A. K. Wilson, Theor. Chem. Acc. 128, 69 (2011)
         Mg : Obtained from the Peterson Research Group Website (tyr0.chem.wsu.edu/~kipeters) Feb. 2017
              B. P. Prascher, D. E. Woon, K. A. Peterson, T. H. Dunning, Jr., A. K. Wilson, Theor. Chem. Acc. 128, 69 (2011)
      Al-Ar : Obtained from the ccRepo (grant-hill.group.shef.ac.uk/ccrepo) Feb. 2017
              D. E. Woon, T. H. Dunning, Jr., J. Chem. Phys. 98, 1358 (1993)
      Sc-Zn : Obtained from the ccRepo (grant-hill.group.shef.ac.uk/ccrepo) Feb. 2017
              N. B. Balabanov, K. A. Peterson, J. Chem. Phys. 123, 064107 (2005)
              N. B. Balabanov, K. A. Peterson, J. Chem. Phys. 125, 074110 (2006)
      Ga-Kr : Obtained from the ccRepo (grant-hill.group.shef.ac.uk/ccrepo) Feb. 2017
              A. K. Wilson, D. E. Woon, K. A. Peterson, T. H. Dunning, Jr., J. Chem. Phys. 110, 7667 (1999)
     Ag, Au : Obtained from the Peterson Research Group Website (tyr0.chem.wsu.edu/~kipeters) Feb. 2017
              K. A. Peterson, C. Puzzarini, Theor. Chem. Acc. 114, 283 (2005)

----- AuxJ basis set information -----
Your calculation utilizes the AutoAux generation procedure.
  G. L. Stoychev, A. A. Auer, F. Neese, J. Chem. Theory Comput. 13, 554 (2017)

----- AuxC basis set information -----
Your calculation utilizes the auxiliary basis: aug-cc-pVTZ/C 
  H-He, B-F, Al-Ar, Ga-Kr : Obtained from the EMSL Basis Set Exchange (bse.pnl.gov) Feb. 2017
                            F. Weigend, A. Kohn, C. Hattig, J. Chem. Phys. 116, 3175 (2002)
                   Be, Mg : Obtained from the TURBOMOLE 7.0 basis set library
                            C. Haettig, Phys. Chem. Chem. Phys. 7, 59 (2005)
                       Ne : Obtained from the EMSL Basis Set Exchange (bse.pnl.gov) Feb. 2017
                            C. Haettig, Phys. Chem. Chem. Phys. 7, 59 (2005)
                            F. Weigend, A. Kohn, C. Hattig, J. Chem. Phys. 116, 3175 (2002)
                    Sc-Zn : Obtained from the EMSL Basis Set Exchange (bse.pnl.gov) Feb. 2017
                            J. G. Hill, J. A. Platts, J. Chem. Phys. 128, 044104 (2008)

----- AuxJK basis set information -----
Your calculation utilizes the AutoAux generation procedure.
  G. L. Stoychev, A. A. Auer, F. Neese, J. Chem. Theory Comput. 13, 554 (2017)

================================================================================
                                        WARNINGS
                       Please study these warnings very carefully!
================================================================================


WARNING: your system is open-shell and RHF/RKS was chosen
  ===> : WILL SWITCH to UHF/UKS


WARNING: MDCI localization with Augmented Hessian Foster-Boys
  ===> : Switching off randomization!

WARNING: Post HF methods need fully converged wavefunctions
  ===> : Setting SCFConvForced true
         You can overwrite this default with %scf ConvForced false 


INFO   : the flag for use of LIBINT has been found!

================================================================================
                                       INPUT FILE
================================================================================
NAME = simple-grid-190-245-b3lyp_d3bj-631gd-gas-singlepoint-DLPNO_CCSD_T1-NormalPNO-augtz-gas.inp
|  1> ! aug-cc-pVTZ aug-cc-pVTZ/C DLPNO-CCSD(T1) TightSCF NormalPNO UNO MiniPrint AutoAux
|  2> %pal nproc 10 end
|  3> %maxcore 20000
|  4> %mdci
|  5>      density none
|  6> end
|  7> 
|  8> * xyz 0 6
|  9>  O     -0.32934700     -0.16486800     -0.69834500
| 10>  C     -1.27585500     -1.09035100     -0.55349800
| 11>  C     -2.75242600     -0.28763600      0.33272500
| 12>  C     -2.40983300      0.99227800     -0.11944500
| 13>  C     -2.81456800      1.49441100     -1.45757600
| 14> Fe      1.39216900      0.10501600     -0.01339200
| 15> Cl      1.91373800      2.11708500     -0.74649600
| 16>  C     -1.58684100      1.92111000      0.68867300
| 17> Cl      2.64203500     -1.54899600     -0.74363000
| 18> Cl      1.18218400      0.06707400      2.20877000
| 19>  H     -3.57148300     -0.75372000     -0.21326100
| 20>  H     -2.28952800      2.61334300      1.18228400
| 21>  H     -1.00637500      1.42867200      1.46742000
| 22>  H     -0.92303000      2.52054900      0.05881600
| 23>  H     -3.17447300      2.52636300     -1.36397400
| 24>  H     -1.91378900      1.54222900     -2.08570600
| 25>  H     -3.57756900      0.88549500     -1.94369800
| 26>  C     -2.75387500     -0.59029600      1.82310200
| 27>  H     -3.53712500     -0.00384500      2.31757800
| 28>  H     -2.97286700     -1.64502300      2.00015100
| 29>  H     -1.80189300     -0.35727800      2.30442400
| 30>  C     -0.91592600     -2.25852000      0.35079100
| 31>  H     -1.74507300     -2.95902000      0.47586500
| 32>  H     -0.09284100     -2.77911900     -0.15560800
| 33>  H     -0.54628900     -1.93232800      1.32235300
| 34>  C     -1.84242400     -1.55488900     -1.89007200
| 35>  H     -1.03310600     -2.09861800     -2.39094600
| 36>  H     -2.69307400     -2.23085300     -1.76835600
| 37>  H     -2.11787600     -0.72273700     -2.53754200
| 38> *
| 39> 
| 40> 
| 41>                          ****END OF INPUT****
================================================================================

                       ****************************
                       * Single Point Calculation *
                       ****************************

---------------------------------
CARTESIAN COORDINATES (ANGSTROEM)
---------------------------------
  O     -0.329347   -0.164868   -0.698345
  C     -1.275855   -1.090351   -0.553498
  C     -2.752426   -0.287636    0.332725
  C     -2.409833    0.992278   -0.119445
  C     -2.814568    1.494411   -1.457576
  Fe     1.392169    0.105016   -0.013392
  Cl     1.913738    2.117085   -0.746496
  C     -1.586841    1.921110    0.688673
  Cl     2.642035   -1.548996   -0.743630
  Cl     1.182184    0.067074    2.208770
  H     -3.571483   -0.753720   -0.213261
  H     -2.289528    2.613343    1.182284
  H     -1.006375    1.428672    1.467420
  H     -0.923030    2.520549    0.058816
  H     -3.174473    2.526363   -1.363974
  H     -1.913789    1.542229   -2.085706
  H     -3.577569    0.885495   -1.943698
  C     -2.753875   -0.590296    1.823102
  H     -3.537125   -0.003845    2.317578
  H     -2.972867   -1.645023    2.000151
  H     -1.801893   -0.357278    2.304424
  C     -0.915926   -2.258520    0.350791
  H     -1.745073   -2.959020    0.475865
  H     -0.092841   -2.779119   -0.155608
  H     -0.546289   -1.932328    1.322353
  C     -1.842424   -1.554889   -1.890072
  H     -1.033106   -2.098618   -2.390946
  H     -2.693074   -2.230853   -1.768356
  H     -2.117876   -0.722737   -2.537542

----------------------------
CARTESIAN COORDINATES (A.U.)
----------------------------
  NO LB      ZA    FRAG     MASS         X           Y           Z
   0 O     8.0000    0    15.999   -0.622376   -0.311555   -1.319681
   1 C     6.0000    0    12.011   -2.411017   -2.060465   -1.045960
   2 C     6.0000    0    12.011   -5.201331   -0.543553    0.628759
   3 C     6.0000    0    12.011   -4.553924    1.875134   -0.225718
   4 C     6.0000    0    12.011   -5.318763    2.824028   -2.754419
   5 Fe   26.0000    0    55.850    2.630818    0.198451   -0.025307
   6 Cl   17.0000    0    35.453    3.616441    4.000711   -1.410673
   7 C     6.0000    0    12.011   -2.998695    3.630372    1.301403
   8 Cl   17.0000    0    35.453    4.992723   -2.927178   -1.405257
   9 Cl   17.0000    0    35.453    2.234004    0.126751    4.173970
  10 H     1.0000    0     1.008   -6.749125   -1.424324   -0.403005
  11 H     1.0000    0     1.008   -4.326581    4.938503    2.234193
  12 H     1.0000    0     1.008   -1.901773    2.699799    2.773022
  13 H     1.0000    0     1.008   -1.744274    4.763147    0.111146
  14 H     1.0000    0     1.008   -5.998885    4.774134   -2.577537
  15 H     1.0000    0     1.008   -3.616537    2.914390   -3.941413
  16 H     1.0000    0     1.008   -6.760626    1.673343   -3.673057
  17 C     6.0000    0    12.011   -5.204070   -1.115498    3.445163
  18 H     1.0000    0     1.008   -6.684198   -0.007266    4.379588
  19 H     1.0000    0     1.008   -5.617904   -3.108643    3.779738
  20 H     1.0000    0     1.008   -3.405084   -0.675158    4.354730
  21 C     6.0000    0    12.011   -1.730849   -4.267984    0.662899
  22 H     1.0000    0     1.008   -3.297710   -5.591737    0.899255
  23 H     1.0000    0     1.008   -0.175444   -5.251774   -0.294057
  24 H     1.0000    0     1.008   -1.032337   -3.651571    2.498885
  25 C     6.0000    0    12.011   -3.481677   -2.938314   -3.571718
  26 H     1.0000    0     1.008   -1.952287   -3.965813   -4.518233
  27 H     1.0000    0     1.008   -5.089172   -4.215701   -3.341709
  28 H     1.0000    0     1.008   -4.002206   -1.365775   -4.795259



           ************************************************************
           *        Program running with 10 parallel MPI-processes    *
           *              working on a common directory               *
           ************************************************************


           ************************************************************
           *        Program running with 10 parallel MPI-processes    *
           *              working on a common directory               *
           ************************************************************

Diagonalization of the overlap matrix:
Smallest eigenvalue                        ... 6.110e-07
Time for diagonalization                   ...    0.385 sec
Threshold for overlap eigenvalues          ... 1.000e-08
Number of eigenvalues below threshold      ... 0
Time for construction of square roots      ...    0.301 sec
Total time needed                          ...    0.692 sec

-------------------
DFT GRID GENERATION
-------------------

General Integration Accuracy     IntAcc      ...  4.340
Radial Grid Type                 RadialGrid  ... Gauss-Chebyshev
Angular Grid (max. acc.)         AngularGrid ... Lebedev-110
Angular grid pruning method      GridPruning ... 3 (G Style)
Weight generation scheme         WeightScheme... Becke
Basis function cutoff            BFCut       ...    1.0000e-11
Integration weight cutoff        WCut        ...    1.0000e-14
Grids for H and He will be reduced by one unit

# of grid points (after initial pruning)     ...  36112 (   0.0 sec)
# of grid points (after weights+screening)   ...  32271 (   0.1 sec)
nearest neighbour list constructed           ...    0.0 sec
Grid point re-assignment to atoms done       ...    0.0 sec
Grid point division into batches done        ...    0.0 sec
Reduced shell lists constructed in    0.2 sec

Total number of grid points                  ...    32271
Total number of batches                      ...      521
Average number of points per batch           ...       61
Average number of grid points per atom       ...     1113
Average number of shells per batch           ...   294.17 (85.76%)
Average number of basis functions per batch  ...   875.20 (85.39%)
Average number of large shells per batch     ...   242.93 (82.58%)
Average number of large basis fcns per batch ...   722.63 (82.57%)
Maximum spatial batch extension              ...   3.46,  3.77,  3.48 au
Average spatial batch extension              ...   0.18,  0.17,  0.18 au

Time for grid setup =    0.382 sec

Loading Hartree-Fock densities                     ... done
Calculating cut-offs                               ... done
Setting up the integral package                    ... done
Initializing the effective Hamiltonian             ... done
Starting the Coulomb interaction                   ... done (   1.1 sec)
Reading the grid                                   ... done
Mapping shells                                     ... done
Starting the XC term evaluation                    ... done (   0.8 sec)
Transforming the Hamiltonian                       ... done (   0.2 sec)
Diagonalizing the Hamiltonian                      ... done (   0.3 sec)
Back transforming the eigenvectors                 ... done (   0.1 sec)
Now organizing SCF variables                       ... done
--------------
SCF ITERATIONS
--------------
ITER       Energy         Delta-E        Max-DP      RMS-DP      [F,P]     Damp
               ***  Starting incremental Fock matrix formation  ***
  0  -3027.5707947548   0.000000000000 0.34766612  0.00122464  0.2908191 0.7000
  1  -3027.8192698136  -0.248475058805 0.25556665  0.00094825  0.1680766 0.7000
                               ***Turning on DIIS***
  2  -3027.9859793333  -0.166709519777 0.18025519  0.00069566  0.1095108 0.7000
  3  -3029.6660763930  -1.680097059705 0.41000422  0.00173528  0.0823876 0.0000
  4  -3028.2919875947   1.374088798328 0.04696962  0.00022431  0.0193074 0.0000
  5  -3028.4108195232  -0.118831928503 0.04013727  0.00017193  0.0116807 0.0000
  6  -3028.4402889091  -0.029469385901 0.02035614  0.00006981  0.0053715 0.0000
  7  -3028.4528773494  -0.012588440263 0.00908621  0.00003176  0.0032840 0.0000
  8  -3028.4491681205   0.003709228890 0.00586745  0.00001860  0.0014111 0.0000
  9  -3028.4406097323   0.008558388223 0.00230715  0.00001090  0.0007007 0.0000
 10  -3028.4301574139   0.010452318345 0.00088713  0.00000344  0.0004024 0.0000
 11  -3028.4358822089  -0.005724794991 0.00049855  0.00000198  0.0000882 0.0000
 12  -3028.4329630692   0.002919139751 0.00044250  0.00000130  0.0000326 0.0000
 13  -3028.4331182074  -0.000155138221 0.00148783  0.00000261  0.0000113 0.0000
 14  -3028.4332379316  -0.000119724229 0.00097500  0.00000258  0.0000067 0.0000
 15  -3028.4331418735   0.000096058103 0.00115009  0.00000235  0.0000033 0.0000
 16  -3028.4331808415  -0.000038968012 0.00137805  0.00000268  0.0000024 0.0000
 17  -3028.4331984418  -0.000017600300 0.00136855  0.00000247  0.0000015 0.0000
 18  -3028.4331760910   0.000022350864 0.00238903  0.00000406  0.0000012 0.0000
 19  -3028.4331872342  -0.000011143216 0.00203374  0.00000367  0.0000010 0.0000
               *** Restarting incremental Fock matrix formation ***
                                   *** Resetting DIIS ***
                            ***DIIS convergence achieved***

               *****************************************************
               *                     SUCCESS                       *
               *           SCF CONVERGED AFTER  20 CYCLES          *
               *****************************************************

Total Energy       :        -3028.43318558 Eh          -82407.85651 eV
  Last Energy change         ...    1.6588e-06  Tolerance :   1.0000e-08
  Last MAX-Density change    ...    9.8295e-03  Tolerance :   1.0000e-07
             **** THE GBW FILE WAS UPDATED (simple-grid-190-245-b3lyp_d3bj-631gd-gas-singlepoint-DLPNO_CCSD_T1-NormalPNO-augtz-gas.gbw) ****
             **** DENSITY FILE WAS UPDATED (simple-grid-190-245-b3lyp_d3bj-631gd-gas-singlepoint-DLPNO_CCSD_T1-NormalPNO-augtz-gas.scfp.tmp) ****
             **** ENERGY FILE WAS UPDATED (simple-grid-190-245-b3lyp_d3bj-631gd-gas-singlepoint-DLPNO_CCSD_T1-NormalPNO-augtz-gas.en.tmp) ****
----------------------
UHF SPIN CONTAMINATION
----------------------

Expectation value of <S**2>     :     8.764278
Ideal value S*(S+1) for S=2.5   :     8.750000
Deviation                       :     0.014278

----------------
ORBITAL ENERGIES
----------------
                 SPIN UP ORBITALS
  NO   OCC          E(Eh)            E(eV) 
   0   1.0000    -261.549333     -7117.1192 
   1   1.0000    -104.776929     -2851.1252 
   2   1.0000    -104.773332     -2851.0273 
   3   1.0000    -104.771550     -2850.9788 
   4   1.0000     -32.217236      -876.6756 
   5   1.0000     -27.693149      -753.5689 
   6   1.0000     -27.692940      -753.5632 
   7   1.0000     -27.692690      -753.5564 
   8   1.0000     -20.549671      -559.1850 
   9   1.0000     -11.377771      -309.6049 
  10   1.0000     -11.373397      -309.4859 
  11   1.0000     -11.283577      -307.0417 
  12   1.0000     -11.281219      -306.9776 
  13   1.0000     -11.266379      -306.5738 
  14   1.0000     -11.255170      -306.2688 
  15   1.0000     -11.251721      -306.1749 
  16   1.0000     -11.243314      -305.9461 
  17   1.0000     -10.503516      -285.8152 
  18   1.0000     -10.499895      -285.7167 
  19   1.0000     -10.498141      -285.6689 
  20   1.0000      -7.970416      -216.8860 
  21   1.0000      -7.969528      -216.8619 
  22   1.0000      -7.969489      -216.8608 
  23   1.0000      -7.966714      -216.7853 
  24   1.0000      -7.965996      -216.7658 
  25   1.0000      -7.965911      -216.7635 
  26   1.0000      -7.964972      -216.7379 
  27   1.0000      -7.964244      -216.7181 
  28   1.0000      -7.964168      -216.7160 
  29   1.0000      -4.572606      -124.4269 
  30   1.0000      -3.185130       -86.6718 
  31   1.0000      -3.184689       -86.6598 
  32   1.0000      -3.184226       -86.6472 
  33   1.0000      -1.388844       -37.7924 
  34   1.0000      -1.183493       -32.2045 
  35   1.0000      -1.084053       -29.4986 
  36   1.0000      -1.047140       -28.4941 
  37   1.0000      -1.044137       -28.4124 
  38   1.0000      -1.041274       -28.3345 
  39   1.0000      -1.038729       -28.2652 
  40   1.0000      -1.005449       -27.3597 
  41   1.0000      -0.977763       -26.6063 
  42   1.0000      -0.932852       -25.3842 
  43   1.0000      -0.913972       -24.8704 
  44   1.0000      -0.902098       -24.5473 
  45   1.0000      -0.901959       -24.5436 
  46   1.0000      -0.893630       -24.3169 
  47   1.0000      -0.892926       -24.2977 
  48   1.0000      -0.786748       -21.4085 
  49   1.0000      -0.766130       -20.8475 
  50   1.0000      -0.702623       -19.1193 
  51   1.0000      -0.691565       -18.8185 
  52   1.0000      -0.672738       -18.3061 
  53   1.0000      -0.652552       -17.7568 
  54   1.0000      -0.647324       -17.6146 
  55   1.0000      -0.627641       -17.0790 
  56   1.0000      -0.599120       -16.3029 
  57   1.0000      -0.597555       -16.2603 
  58   1.0000      -0.590118       -16.0579 
  59   1.0000      -0.578492       -15.7416 
  60   1.0000      -0.577164       -15.7054 
  61   1.0000      -0.561566       -15.2810 
  62   1.0000      -0.555890       -15.1265 
  63   1.0000      -0.546573       -14.8730 
  64   1.0000      -0.536465       -14.5979 
  65   1.0000      -0.528079       -14.3698 
  66   1.0000      -0.511413       -13.9163 
  67   1.0000      -0.472921       -12.8688 
  68   1.0000      -0.461003       -12.5445 
  69   1.0000      -0.451274       -12.2798 
  70   1.0000      -0.426193       -11.5973 
  71   1.0000      -0.425670       -11.5831 
  72   1.0000      -0.423183       -11.5154 
  73   1.0000      -0.414164       -11.2700 
  74   1.0000      -0.413097       -11.2409 
  75   1.0000      -0.411681       -11.2024 
  76   1.0000      -0.395215       -10.7544 
  77   0.0000       0.007219         0.1964 
  78   0.0000       0.017735         0.4826 
  79   0.0000       0.020562         0.5595 
  80   0.0000       0.021496         0.5849 
  81   0.0000       0.030747         0.8367 
  82   0.0000       0.037879         1.0308 
  83   0.0000       0.039539         1.0759 
  84   0.0000       0.044335         1.2064 
  85   0.0000       0.045527         1.2388 
  86   0.0000       0.046761         1.2724 
  87   0.0000       0.056842         1.5467 
  88   0.0000       0.059169         1.6101 
  89   0.0000       0.061635         1.6772 
  90   0.0000       0.064799         1.7633 
  91   0.0000       0.066047         1.7972 
  92   0.0000       0.071423         1.9435 
  93   0.0000       0.074806         2.0356 
  94   0.0000       0.078329         2.1314 
  95   0.0000       0.088636         2.4119 
  96   0.0000       0.089690         2.4406 
  97   0.0000       0.093986         2.5575 
  98   0.0000       0.095739         2.6052 
  99   0.0000       0.098943         2.6924 
 100   0.0000       0.100338         2.7303 
 101   0.0000       0.109692         2.9849 
 102   0.0000       0.113502         3.0885 
 103   0.0000       0.121099         3.2953 
 104   0.0000       0.122292         3.3277 
 105   0.0000       0.125519         3.4155 
 106   0.0000       0.127896         3.4802 
 107   0.0000       0.130110         3.5405 
 108   0.0000       0.132018         3.5924 
 109   0.0000       0.133124         3.6225 
 110   0.0000       0.137984         3.7547 
 111   0.0000       0.139358         3.7921 
 112   0.0000       0.142648         3.8816 
 113   0.0000       0.145897         3.9701 
 114   0.0000       0.151226         4.1151 
 115   0.0000       0.154617         4.2073 
 116   0.0000       0.157844         4.2951 
 117   0.0000       0.163829         4.4580 
 118   0.0000       0.164922         4.4878 
 119   0.0000       0.167204         4.5498 
 120   0.0000       0.169244         4.6054 
 121   0.0000       0.171072         4.6551 
 122   0.0000       0.175140         4.7658 
 123   0.0000       0.178786         4.8650 
 124   0.0000       0.180880         4.9220 
 125   0.0000       0.188874         5.1395 
 126   0.0000       0.189102         5.1457 
 127   0.0000       0.197412         5.3718 
 128   0.0000       0.198823         5.4103 
 129   0.0000       0.201076         5.4716 
 130   0.0000       0.202476         5.5096 
 131   0.0000       0.206910         5.6303 
 132   0.0000       0.209012         5.6875 
 133   0.0000       0.212350         5.7783 
 134   0.0000       0.216100         5.8804 
 135   0.0000       0.218511         5.9460 
 136   0.0000       0.224636         6.1126 
 137   0.0000       0.225762         6.1433 
 138   0.0000       0.226681         6.1683 
 139   0.0000       0.231842         6.3087 
 140   0.0000       0.233990         6.3672 
 141   0.0000       0.239061         6.5052 
 142   0.0000       0.241641         6.5754 
 143   0.0000       0.245329         6.6757 
 144   0.0000       0.246995         6.7211 
 145   0.0000       0.249729         6.7955 
 146   0.0000       0.252676         6.8757 
 147   0.0000       0.256773         6.9871 
 148   0.0000       0.261574         7.1178 
 149   0.0000       0.264472         7.1966 
 150   0.0000       0.269141         7.3237 
 151   0.0000       0.269888         7.3440 
 152   0.0000       0.277319         7.5462 
 153   0.0000       0.280054         7.6207 
 154   0.0000       0.282732         7.6935 
 155   0.0000       0.286301         7.7906 
 156   0.0000       0.290869         7.9150 
 157   0.0000       0.291792         7.9401 
 158   0.0000       0.299537         8.1508 
 159   0.0000       0.303183         8.2500 
 160   0.0000       0.307653         8.3717 
 161   0.0000       0.315538         8.5862 
 162   0.0000       0.319320         8.6891 
 163   0.0000       0.322541         8.7768 
 164   0.0000       0.322992         8.7891 
 165   0.0000       0.328493         8.9388 
 166   0.0000       0.332770         9.0551 
 167   0.0000       0.338440         9.2094 
 168   0.0000       0.341626         9.2961 
 169   0.0000       0.343945         9.3592 
 170   0.0000       0.347586         9.4583 
 171   0.0000       0.353915         9.6305 
 172   0.0000       0.355348         9.6695 
 173   0.0000       0.359891         9.7931 
 174   0.0000       0.361075         9.8253 
 175   0.0000       0.364848         9.9280 
 176   0.0000       0.370476        10.0812 
 177   0.0000       0.371969        10.1218 
 178   0.0000       0.377503        10.2724 
 179   0.0000       0.379468        10.3258 
 180   0.0000       0.382587        10.4107 
 181   0.0000       0.383647        10.4396 
 182   0.0000       0.385146        10.4803 
 183   0.0000       0.390477        10.6254 
 184   0.0000       0.392495        10.6803 
 185   0.0000       0.394784        10.7426 
 186   0.0000       0.395498        10.7620 
 187   0.0000       0.402057        10.9405 
 188   0.0000       0.404100        10.9961 
 189   0.0000       0.412453        11.2234 
 190   0.0000       0.415090        11.2952 
 191   0.0000       0.418179        11.3792 
 192   0.0000       0.422688        11.5019 
 193   0.0000       0.422853        11.5064 
 194   0.0000       0.428308        11.6548 
 195   0.0000       0.432376        11.7655 
 196   0.0000       0.434576        11.8254 
 197   0.0000       0.439377        11.9561 
 198   0.0000       0.444356        12.0915 
 199   0.0000       0.452036        12.3005 
 200   0.0000       0.453040        12.3279 
 201   0.0000       0.455031        12.3820 
 202   0.0000       0.457151        12.4397 
 203   0.0000       0.461192        12.5497 
 204   0.0000       0.465616        12.6701 
 205   0.0000       0.469370        12.7722 
 206   0.0000       0.473607        12.8875 
 207   0.0000       0.477384        12.9903 
 208   0.0000       0.480413        13.0727 
 209   0.0000       0.484878        13.1942 
 210   0.0000       0.486133        13.2284 
 211   0.0000       0.488536        13.2937 
 212   0.0000       0.490517        13.3476 
 213   0.0000       0.493342        13.4245 
 214   0.0000       0.497079        13.5262 
 215   0.0000       0.498977        13.5779 
 216   0.0000       0.500445        13.6178 
 217   0.0000       0.505794        13.7634 
 218   0.0000       0.509042        13.8517 
 219   0.0000       0.513126        13.9629 
 220   0.0000       0.516528        14.0554 
 221   0.0000       0.519859        14.1461 
 222   0.0000       0.521967        14.2034 
 223   0.0000       0.524254        14.2657 
 224   0.0000       0.528887        14.3918 
 225   0.0000       0.533051        14.5051 
 226   0.0000       0.536158        14.5896 
 227   0.0000       0.541705        14.7405 
 228   0.0000       0.542647        14.7662 
 229   0.0000       0.550795        14.9879 
 230   0.0000       0.551716        15.0130 
 231   0.0000       0.557130        15.1603 
 232   0.0000       0.560352        15.2479 
 233   0.0000       0.561894        15.2899 
 234   0.0000       0.566496        15.4151 
 235   0.0000       0.571181        15.5426 
 236   0.0000       0.571370        15.5478 
 237   0.0000       0.575054        15.6480 
 238   0.0000       0.581486        15.8230 
 239   0.0000       0.583890        15.8885 
 240   0.0000       0.589599        16.0438 
 241   0.0000       0.594293        16.1715 
 242   0.0000       0.594366        16.1735 
 243   0.0000       0.601568        16.3695 
 244   0.0000       0.602984        16.4080 
 245   0.0000       0.604580        16.4514 
 246   0.0000       0.609199        16.5772 
 247   0.0000       0.614363        16.7177 
 248   0.0000       0.617450        16.8017 
 249   0.0000       0.623666        16.9708 
 250   0.0000       0.627537        17.0761 
 251   0.0000       0.629470        17.1287 
 252   0.0000       0.632854        17.2208 
 253   0.0000       0.638985        17.3877 
 254   0.0000       0.642056        17.4712 
 255   0.0000       0.644775        17.5452 
 256   0.0000       0.648610        17.6496 
 257   0.0000       0.654245        17.8029 
 258   0.0000       0.657360        17.8877 
 259   0.0000       0.660262        17.9666 
 260   0.0000       0.662580        18.0297 
 261   0.0000       0.668697        18.1962 
 262   0.0000       0.673785        18.3346 
 263   0.0000       0.680892        18.5280 
 264   0.0000       0.683067        18.5872 
 265   0.0000       0.691120        18.8063 
 266   0.0000       0.692561        18.8455 
 267   0.0000       0.696127        18.9426 
 268   0.0000       0.698765        19.0144 
 269   0.0000       0.700820        19.0703 
 270   0.0000       0.708306        19.2740 
 271   0.0000       0.712553        19.3895 
 272   0.0000       0.714647        19.4465 
 273   0.0000       0.722155        19.6508 
 274   0.0000       0.727127        19.7861 
 275   0.0000       0.728805        19.8318 
 276   0.0000       0.735474        20.0133 
 277   0.0000       0.737322        20.0636 
 278   0.0000       0.741606        20.1801 
 279   0.0000       0.746749        20.3201 
 280   0.0000       0.753892        20.5145 
 281   0.0000       0.757683        20.6176 
 282   0.0000       0.763084        20.7646 
 283   0.0000       0.767767        20.8920 
 284   0.0000       0.776639        21.1334 
 285   0.0000       0.788111        21.4456 
 286   0.0000       0.793652        21.5964 
 287   0.0000       0.795167        21.6376 
 288   0.0000       0.802975        21.8501 
 289   0.0000       0.804572        21.8935 
 290   0.0000       0.811384        22.0789 
 291   0.0000       0.814425        22.1616 
 292   0.0000       0.824848        22.4453 
 293   0.0000       0.829552        22.5733 
 294   0.0000       0.830840        22.6083 
 295   0.0000       0.839254        22.8373 
 296   0.0000       0.841520        22.8989 
 297   0.0000       0.849187        23.1075 
 298   0.0000       0.851341        23.1662 
 299   0.0000       0.857159        23.3245 
 300   0.0000       0.861017        23.4295 
 301   0.0000       0.865007        23.5380 
 302   0.0000       0.869279        23.6543 
 303   0.0000       0.878674        23.9099 
 304   0.0000       0.885052        24.0835 
 305   0.0000       0.888371        24.1738 
 306   0.0000       0.893502        24.3134 
 307   0.0000       0.897136        24.4123 
 308   0.0000       0.900367        24.5002 
 309   0.0000       0.903732        24.5918 
 310   0.0000       0.910353        24.7720 
 311   0.0000       0.911090        24.7920 
 312   0.0000       0.920212        25.0402 
 313   0.0000       0.923735        25.1361 
 314   0.0000       0.926781        25.2190 
 315   0.0000       0.929743        25.2996 
 316   0.0000       0.931721        25.3534 
 317   0.0000       0.935170        25.4473 
 318   0.0000       0.940432        25.5905 
 319   0.0000       0.945845        25.7378 
 320   0.0000       0.948553        25.8114 
 321   0.0000       0.955791        26.0084 
 322   0.0000       0.960884        26.1470 
 323   0.0000       0.962532        26.1918 
 324   0.0000       0.965168        26.2635 
 325   0.0000       0.967141        26.3172 
 326   0.0000       0.968922        26.3657 
 327   0.0000       0.976457        26.5707 
 328   0.0000       0.980048        26.6685 
 329   0.0000       0.982131        26.7251 
 330   0.0000       0.986612        26.8471 
 331   0.0000       0.987462        26.8702 
 332   0.0000       0.988683        26.9034 
 333   0.0000       0.997309        27.1382 
 334   0.0000       1.003022        27.2936 
 335   0.0000       1.005157        27.3517 
 336   0.0000       1.009369        27.4663 
 337   0.0000       1.013732        27.5851 
 338   0.0000       1.018910        27.7260 
 339   0.0000       1.027070        27.9480 
 340   0.0000       1.028047        27.9746 
 341   0.0000       1.029815        28.0227 
 342   0.0000       1.033038        28.1104 
 343   0.0000       1.039858        28.2960 
 344   0.0000       1.042582        28.3701 
 345   0.0000       1.044249        28.4155 
 346   0.0000       1.047184        28.4953 
 347   0.0000       1.049636        28.5620 
 348   0.0000       1.052985        28.6532 
 349   0.0000       1.054625        28.6978 
 350   0.0000       1.058177        28.7944 
 351   0.0000       1.061280        28.8789 
 352   0.0000       1.066921        29.0324 
 353   0.0000       1.072759        29.1913 
 354   0.0000       1.078267        29.3411 
 355   0.0000       1.080936        29.4138 
 356   0.0000       1.084616        29.5139 
 357   0.0000       1.087254        29.5857 
 358   0.0000       1.092640        29.7323 
 359   0.0000       1.094472        29.7821 
 360   0.0000       1.099754        29.9258 
 361   0.0000       1.110070        30.2065 
 362   0.0000       1.110972        30.2311 
 363   0.0000       1.115602        30.3571 
 364   0.0000       1.117447        30.4073 
 365   0.0000       1.123206        30.5640 
 366   0.0000       1.126133        30.6436 
 367   0.0000       1.130713        30.7683 
 368   0.0000       1.135887        30.9091 
 369   0.0000       1.141090        31.0506 
 370   0.0000       1.143854        31.1259 
 371   0.0000       1.144224        31.1359 
 372   0.0000       1.151875        31.3441 
 373   0.0000       1.155232        31.4355 
 374   0.0000       1.158156        31.5150 
 375   0.0000       1.163865        31.6704 
 376   0.0000       1.167494        31.7691 
 377   0.0000       1.172034        31.8927 
 378   0.0000       1.174396        31.9569 
 379   0.0000       1.182975        32.1904 
 380   0.0000       1.186115        32.2758 
 381   0.0000       1.193243        32.4698 
 382   0.0000       1.196785        32.5662 
 383   0.0000       1.204374        32.7727 
 384   0.0000       1.211333        32.9621 
 385   0.0000       1.213709        33.0267 
 386   0.0000       1.215571        33.0774 
 387   0.0000       1.220508        33.2117 
 388   0.0000       1.225548        33.3489 
 389   0.0000       1.229367        33.4528 
 390   0.0000       1.235338        33.6153 
 391   0.0000       1.240015        33.7425 
 392   0.0000       1.244836        33.8737 
 393   0.0000       1.248051        33.9612 
 394   0.0000       1.254401        34.1340 
 395   0.0000       1.257122        34.2080 
 396   0.0000       1.265712        34.4418 
 397   0.0000       1.272361        34.6227 
 398   0.0000       1.273959        34.6662 
 399   0.0000       1.275737        34.7146 
 400   0.0000       1.281314        34.8663 
 401   0.0000       1.288197        35.0536 
 402   0.0000       1.295371        35.2488 
 403   0.0000       1.299255        35.3545 
 404   0.0000       1.301273        35.4095 
 405   0.0000       1.311047        35.6754 
 406   0.0000       1.311825        35.6966 
 407   0.0000       1.319104        35.8946 
 408   0.0000       1.325449        36.0673 
 409   0.0000       1.329694        36.1828 
 410   0.0000       1.338519        36.4229 
 411   0.0000       1.343759        36.5655 
 412   0.0000       1.345203        36.6048 
 413   0.0000       1.349850        36.7313 
 414   0.0000       1.353513        36.8309 
 415   0.0000       1.356463        36.9112 
 416   0.0000       1.362714        37.0813 
 417   0.0000       1.372074        37.3360 
 418   0.0000       1.378654        37.5151 
 419   0.0000       1.380777        37.5729 
 420   0.0000       1.385115        37.6909 
 421   0.0000       1.388713        37.7888 
 422   0.0000       1.399784        38.0901 
 423   0.0000       1.407539        38.3011 
 424   0.0000       1.413651        38.4674 
 425   0.0000       1.416900        38.5558 
 426   0.0000       1.421404        38.6784 
 427   0.0000       1.428602        38.8742 
 428   0.0000       1.433682        39.0125 
 429   0.0000       1.435588        39.0643 
 430   0.0000       1.438342        39.1393 
 431   0.0000       1.446562        39.3630 
 432   0.0000       1.454127        39.5688 
 433   0.0000       1.462656        39.8009 
 434   0.0000       1.468486        39.9595 
 435   0.0000       1.471655        40.0458 
 436   0.0000       1.475023        40.1374 
 437   0.0000       1.483038        40.3555 
 438   0.0000       1.489965        40.5440 
 439   0.0000       1.494457        40.6663 
 440   0.0000       1.498254        40.7696 
 441   0.0000       1.500542        40.8318 
 442   0.0000       1.506903        41.0049 
 443   0.0000       1.510635        41.1065 
 444   0.0000       1.516674        41.2708 
 445   0.0000       1.523308        41.4513 
 446   0.0000       1.525986        41.5242 
 447   0.0000       1.528846        41.6020 
 448   0.0000       1.533211        41.7208 
 449   0.0000       1.537842        41.8468 
 450   0.0000       1.544614        42.0311 
 451   0.0000       1.552287        42.2399 
 452   0.0000       1.555095        42.3163 
 453   0.0000       1.561980        42.5036 
 454   0.0000       1.569091        42.6971 
 455   0.0000       1.574504        42.8444 
 456   0.0000       1.581542        43.0360 
 457   0.0000       1.582199        43.0538 
 458   0.0000       1.586689        43.1760 
 459   0.0000       1.591138        43.2971 
 460   0.0000       1.596914        43.4542 
 461   0.0000       1.599561        43.5263 
 462   0.0000       1.608048        43.7572 
 463   0.0000       1.615744        43.9666 
 464   0.0000       1.617422        44.0123 
 465   0.0000       1.625270        44.2258 
 466   0.0000       1.626935        44.2712 
 467   0.0000       1.634677        44.4818 
 468   0.0000       1.642089        44.6835 
 469   0.0000       1.642291        44.6890 
 470   0.0000       1.652226        44.9593 
 471   0.0000       1.658925        45.1416 
 472   0.0000       1.669368        45.4258 
 473   0.0000       1.670148        45.4470 
 474   0.0000       1.674167        45.5564 
 475   0.0000       1.678926        45.6859 
 476   0.0000       1.682856        45.7928 
 477   0.0000       1.689477        45.9730 
 478   0.0000       1.689973        45.9865 
 479   0.0000       1.698720        46.2245 
 480   0.0000       1.700897        46.2838 
 481   0.0000       1.708411        46.4882 
 482   0.0000       1.716817        46.7170 
 483   0.0000       1.724181        46.9174 
 484   0.0000       1.727918        47.0190 
 485   0.0000       1.730187        47.0808 
 486   0.0000       1.738069        47.2953 
 487   0.0000       1.742275        47.4097 
 488   0.0000       1.748611        47.5821 
 489   0.0000       1.751700        47.6662 
 490   0.0000       1.755171        47.7606 
 491   0.0000       1.763776        47.9948 
 492   0.0000       1.765654        48.0459 
 493   0.0000       1.775710        48.3195 
 494   0.0000       1.778317        48.3905 
 495   0.0000       1.785296        48.5804 
 496   0.0000       1.790829        48.7309 
 497   0.0000       1.793553        48.8051 
 498   0.0000       1.803594        49.0783 
 499   0.0000       1.807884        49.1950 
 500   0.0000       1.812162        49.3114 
 501   0.0000       1.817358        49.4528 
 502   0.0000       1.824781        49.6548 
 503   0.0000       1.830065        49.7986 
 504   0.0000       1.836116        49.9633 
 505   0.0000       1.840283        50.0766 
 506   0.0000       1.842984        50.1502 
 507   0.0000       1.848132        50.2902 
 508   0.0000       1.850727        50.3609 
 509   0.0000       1.855322        50.4859 
 510   0.0000       1.861256        50.6473 
 511   0.0000       1.863126        50.6982 
 512   0.0000       1.870759        50.9059 
 513   0.0000       1.873055        50.9684 
 514   0.0000       1.879181        51.1351 
 515   0.0000       1.886134        51.3243 
 516   0.0000       1.892041        51.4850 
 517   0.0000       1.895378        51.5759 
 518   0.0000       1.901056        51.7304 
 519   0.0000       1.907133        51.8957 
 520   0.0000       1.910731        51.9936 
 521   0.0000       1.913287        52.0632 
 522   0.0000       1.924851        52.3778 
 523   0.0000       1.926965        52.4354 
 524   0.0000       1.935364        52.6639 
 525   0.0000       1.943496        52.8852 
 526   0.0000       1.949626        53.0520 
 527   0.0000       1.951768        53.1103 
 528   0.0000       1.954985        53.1978 
 529   0.0000       1.959229        53.3133 
 530   0.0000       1.965059        53.4720 
 531   0.0000       1.973752        53.7085 
 532   0.0000       1.979595        53.8675 
 533   0.0000       1.983390        53.9708 
 534   0.0000       1.987417        54.0804 
 535   0.0000       1.993809        54.2543 
 536   0.0000       1.999677        54.4140 
 537   0.0000       2.007291        54.6212 
 538   0.0000       2.010875        54.7187 
 539   0.0000       2.021119        54.9974 
 540   0.0000       2.030843        55.2621 
 541   0.0000       2.034443        55.3600 
 542   0.0000       2.043788        55.6143 
 543   0.0000       2.048933        55.7543 
 544   0.0000       2.057150        55.9779 
 545   0.0000       2.067616        56.2627 
 546   0.0000       2.075596        56.4798 
 547   0.0000       2.081153        56.6311 
 548   0.0000       2.087633        56.8074 
 549   0.0000       2.094832        57.0033 
 550   0.0000       2.104694        57.2716 
 551   0.0000       2.108432        57.3733 
 552   0.0000       2.113154        57.5018 
 553   0.0000       2.119221        57.6669 
 554   0.0000       2.127335        57.8877 
 555   0.0000       2.129935        57.9585 
 556   0.0000       2.135669        58.1145 
 557   0.0000       2.140777        58.2535 
 558   0.0000       2.145003        58.3685 
 559   0.0000       2.153296        58.5942 
 560   0.0000       2.157617        58.7117 
 561   0.0000       2.169013        59.0219 
 562   0.0000       2.175770        59.2057 
 563   0.0000       2.184895        59.4540 
 564   0.0000       2.191598        59.6364 
 565   0.0000       2.196832        59.7788 
 566   0.0000       2.201371        59.9023 
 567   0.0000       2.211627        60.1814 
 568   0.0000       2.216008        60.3006 
 569   0.0000       2.228112        60.6300 
 570   0.0000       2.231250        60.7154 
 571   0.0000       2.240661        60.9715 
 572   0.0000       2.251288        61.2607 
 573   0.0000       2.258383        61.4537 
 574   0.0000       2.262379        61.5625 
 575   0.0000       2.264923        61.6317 
 576   0.0000       2.269172        61.7473 
 577   0.0000       2.279891        62.0390 
 578   0.0000       2.291696        62.3602 
 579   0.0000       2.298798        62.5535 
 580   0.0000       2.302240        62.6471 
 581   0.0000       2.313335        62.9491 
 582   0.0000       2.322015        63.1852 
 583   0.0000       2.330611        63.4191 
 584   0.0000       2.332085        63.4593 
 585   0.0000       2.347491        63.8785 
 586   0.0000       2.348703        63.9115 
 587   0.0000       2.353639        64.0458 
 588   0.0000       2.367684        64.4280 
 589   0.0000       2.377843        64.7044 
 590   0.0000       2.384670        64.8902 
 591   0.0000       2.389115        65.0111 
 592   0.0000       2.397347        65.2351 
 593   0.0000       2.400872        65.3311 
 594   0.0000       2.407476        65.5107 
 595   0.0000       2.412136        65.6376 
 596   0.0000       2.414254        65.6952 
 597   0.0000       2.432828        66.2006 
 598   0.0000       2.436273        66.2944 
 599   0.0000       2.442179        66.4551 
 600   0.0000       2.454265        66.7840 
 601   0.0000       2.466172        67.1080 
 602   0.0000       2.475341        67.3574 
 603   0.0000       2.487353        67.6843 
 604   0.0000       2.492543        67.8255 
 605   0.0000       2.505840        68.1874 
 606   0.0000       2.516634        68.4811 
 607   0.0000       2.526030        68.7368 
 608   0.0000       2.530542        68.8596 
 609   0.0000       2.540244        69.1236 
 610   0.0000       2.553320        69.4794 
 611   0.0000       2.558979        69.6333 
 612   0.0000       2.579838        70.2010 
 613   0.0000       2.589853        70.4735 
 614   0.0000       2.608896        70.9917 
 615   0.0000       2.616070        71.1869 
 616   0.0000       2.627922        71.5094 
 617   0.0000       2.640519        71.8522 
 618   0.0000       2.648661        72.0737 
 619   0.0000       2.654612        72.2357 
 620   0.0000       2.660591        72.3984 
 621   0.0000       2.667923        72.5979 
 622   0.0000       2.677640        72.8623 
 623   0.0000       2.688922        73.1693 
 624   0.0000       2.699519        73.4577 
 625   0.0000       2.708599        73.7047 
 626   0.0000       2.720725        74.0347 
 627   0.0000       2.723525        74.1109 
 628   0.0000       2.745081        74.6974 
 629   0.0000       2.749953        74.8300 
 630   0.0000       2.759690        75.0950 
 631   0.0000       2.770891        75.3998 
 632   0.0000       2.778218        75.5992 
 633   0.0000       2.788035        75.8663 
 634   0.0000       2.792287        75.9820 
 635   0.0000       2.802254        76.2532 
 636   0.0000       2.822446        76.8027 
 637   0.0000       2.829498        76.9946 
 638   0.0000       2.838132        77.2295 
 639   0.0000       2.852036        77.6079 
 640   0.0000       2.871600        78.1402 
 641   0.0000       2.878298        78.3225 
 642   0.0000       2.886802        78.5539 
 643   0.0000       2.899724        78.9055 
 644   0.0000       2.913261        79.2739 
 645   0.0000       2.927264        79.6549 
 646   0.0000       2.940503        80.0152 
 647   0.0000       2.941773        80.0497 
 648   0.0000       2.958367        80.5013 
 649   0.0000       2.969287        80.7984 
 650   0.0000       2.986607        81.2697 
 651   0.0000       2.991072        81.3912 
 652   0.0000       3.041793        82.7714 
 653   0.0000       3.046757        82.9065 
 654   0.0000       3.056465        83.1706 
 655   0.0000       3.080897        83.8355 
 656   0.0000       3.091720        84.1300 
 657   0.0000       3.094669        84.2102 
 658   0.0000       3.113743        84.7293 
 659   0.0000       3.132011        85.2264 
 660   0.0000       3.142080        85.5003 
 661   0.0000       3.158353        85.9432 
 662   0.0000       3.175948        86.4219 
 663   0.0000       3.180291        86.5401 
 664   0.0000       3.184022        86.6416 
 665   0.0000       3.196624        86.9846 
 666   0.0000       3.217590        87.5551 
 667   0.0000       3.223461        87.7148 
 668   0.0000       3.228843        87.8613 
 669   0.0000       3.245749        88.3213 
 670   0.0000       3.251786        88.4856 
 671   0.0000       3.261012        88.7367 
 672   0.0000       3.268582        88.9426 
 673   0.0000       3.281248        89.2873 
 674   0.0000       3.295432        89.6733 
 675   0.0000       3.299683        89.7889 
 676   0.0000       3.303925        89.9044 
 677   0.0000       3.317411        90.2714 
 678   0.0000       3.324924        90.4758 
 679   0.0000       3.333066        90.6973 
 680   0.0000       3.340173        90.8907 
 681   0.0000       3.350931        91.1835 
 682   0.0000       3.356008        91.3216 
 683   0.0000       3.364744        91.5593 
 684   0.0000       3.386415        92.1490 
 685   0.0000       3.389952        92.2453 
 686   0.0000       3.395879        92.4066 
 687   0.0000       3.398607        92.4808 
 688   0.0000       3.429837        93.3306 
 689   0.0000       3.439003        93.5800 
 690   0.0000       3.444477        93.7290 
 691   0.0000       3.448237        93.8313 
 692   0.0000       3.462685        94.2245 
 693   0.0000       3.468994        94.3961 
 694   0.0000       3.479173        94.6731 
 695   0.0000       3.489811        94.9626 
 696   0.0000       3.496521        95.1452 
 697   0.0000       3.503712        95.3408 
 698   0.0000       3.512303        95.5746 
 699   0.0000       3.515210        95.6537 
 700   0.0000       3.525406        95.9312 
 701   0.0000       3.538487        96.2871 
 702   0.0000       3.544656        96.4550 
 703   0.0000       3.556872        96.7874 
 704   0.0000       3.564177        96.9862 
 705   0.0000       3.567469        97.0758 
 706   0.0000       3.576720        97.3275 
 707   0.0000       3.581282        97.4516 
 708   0.0000       3.595260        97.8320 
 709   0.0000       3.595988        97.8518 
 710   0.0000       3.617001        98.4236 
 711   0.0000       3.622258        98.5666 
 712   0.0000       3.630575        98.7930 
 713   0.0000       3.643101        99.1338 
 714   0.0000       3.646892        99.2370 
 715   0.0000       3.663157        99.6796 
 716   0.0000       3.665265        99.7369 
 717   0.0000       3.671560        99.9082 
 718   0.0000       3.680955       100.1639 
 719   0.0000       3.690957       100.4360 
 720   0.0000       3.698574       100.6433 
 721   0.0000       3.702075       100.7386 
 722   0.0000       3.705615       100.8349 
 723   0.0000       3.711713       101.0008 
 724   0.0000       3.719850       101.2223 
 725   0.0000       3.724888       101.3594 
 726   0.0000       3.742833       101.8477 
 727   0.0000       3.744075       101.8815 
 728   0.0000       3.755240       102.1853 
 729   0.0000       3.758295       102.2684 
 730   0.0000       3.766613       102.4947 
 731   0.0000       3.778480       102.8177 
 732   0.0000       3.786165       103.0268 
 733   0.0000       3.794909       103.2647 
 734   0.0000       3.799101       103.3788 
 735   0.0000       3.805095       103.5419 
 736   0.0000       3.817741       103.8860 
 737   0.0000       3.822280       104.0095 
 738   0.0000       3.835770       104.3766 
 739   0.0000       3.837461       104.4226 
 740   0.0000       3.844951       104.6264 
 741   0.0000       3.850622       104.7808 
 742   0.0000       3.852459       104.8307 
 743   0.0000       3.858030       104.9823 
 744   0.0000       3.871815       105.3574 
 745   0.0000       3.876118       105.4745 
 746   0.0000       3.887685       105.7893 
 747   0.0000       3.893915       105.9588 
 748   0.0000       3.898292       106.0779 
 749   0.0000       3.905461       106.2730 
 750   0.0000       3.913223       106.4842 
 751   0.0000       3.917133       106.5906 
 752   0.0000       3.927699       106.8781 
 753   0.0000       3.932038       106.9962 
 754   0.0000       3.938147       107.1624 
 755   0.0000       3.941325       107.2489 
 756   0.0000       3.947525       107.4176 
 757   0.0000       3.949699       107.4768 
 758   0.0000       3.960343       107.7664 
 759   0.0000       3.972717       108.1031 
 760   0.0000       3.977407       108.2307 
 761   0.0000       3.982890       108.3800 
 762   0.0000       3.993318       108.6637 
 763   0.0000       4.008949       109.0890 
 764   0.0000       4.011975       109.1714 
 765   0.0000       4.015618       109.2705 
 766   0.0000       4.025099       109.5285 
 767   0.0000       4.030138       109.6656 
 768   0.0000       4.034344       109.7801 
 769   0.0000       4.043849       110.0387 
 770   0.0000       4.053163       110.2922 
 771   0.0000       4.059356       110.4607 
 772   0.0000       4.066673       110.6598 
 773   0.0000       4.075875       110.9102 
 774   0.0000       4.081086       111.0520 
 775   0.0000       4.086719       111.2053 
 776   0.0000       4.093019       111.3767 
 777   0.0000       4.103687       111.6670 
 778   0.0000       4.110137       111.8425 
 779   0.0000       4.120941       112.1365 
 780   0.0000       4.128847       112.3516 
 781   0.0000       4.137173       112.5782 
 782   0.0000       4.146519       112.8325 
 783   0.0000       4.158845       113.1679 
 784   0.0000       4.165061       113.3371 
 785   0.0000       4.176822       113.6571 
 786   0.0000       4.180708       113.7628 
 787   0.0000       4.187884       113.9581 
 788   0.0000       4.205349       114.4334 
 789   0.0000       4.210543       114.5747 
 790   0.0000       4.220409       114.8432 
 791   0.0000       4.226260       115.0024 
 792   0.0000       4.234017       115.2135 
 793   0.0000       4.248006       115.5941 
 794   0.0000       4.261325       115.9565 
 795   0.0000       4.267535       116.1255 
 796   0.0000       4.268547       116.1531 
 797   0.0000       4.274946       116.3272 
 798   0.0000       4.277125       116.3865 
 799   0.0000       4.290446       116.7490 
 800   0.0000       4.292368       116.8013 
 801   0.0000       4.308259       117.2337 
 802   0.0000       4.317920       117.4966 
 803   0.0000       4.322652       117.6253 
 804   0.0000       4.326807       117.7384 
 805   0.0000       4.348004       118.3152 
 806   0.0000       4.351649       118.4144 
 807   0.0000       4.364632       118.7677 
 808   0.0000       4.376162       119.0814 
 809   0.0000       4.383914       119.2924 
 810   0.0000       4.395839       119.6169 
 811   0.0000       4.404422       119.8504 
 812   0.0000       4.409481       119.9881 
 813   0.0000       4.427092       120.4673 
 814   0.0000       4.430060       120.5481 
 815   0.0000       4.434214       120.6611 
 816   0.0000       4.450556       121.1058 
 817   0.0000       4.454715       121.2189 
 818   0.0000       4.475937       121.7964 
 819   0.0000       4.477980       121.8520 
 820   0.0000       4.486560       122.0855 
 821   0.0000       4.494353       122.2976 
 822   0.0000       4.497805       122.3915 
 823   0.0000       4.507833       122.6644 
 824   0.0000       4.509236       122.7025 
 825   0.0000       4.525013       123.1319 
 826   0.0000       4.532266       123.3292 
 827   0.0000       4.543125       123.6247 
 828   0.0000       4.552172       123.8709 
 829   0.0000       4.559893       124.0810 
 830   0.0000       4.567958       124.3005 
 831   0.0000       4.583387       124.7203 
 832   0.0000       4.590213       124.9061 
 833   0.0000       4.604333       125.2903 
 834   0.0000       4.632641       126.0606 
 835   0.0000       4.636750       126.1724 
 836   0.0000       4.646503       126.4378 
 837   0.0000       4.662506       126.8732 
 838   0.0000       4.665780       126.9623 
 839   0.0000       4.674777       127.2071 
 840   0.0000       4.680423       127.3608 
 841   0.0000       4.690605       127.6379 
 842   0.0000       4.699129       127.8698 
 843   0.0000       4.705179       128.0344 
 844   0.0000       4.735368       128.8559 
 845   0.0000       4.750827       129.2766 
 846   0.0000       4.769849       129.7942 
 847   0.0000       4.779626       130.0602 
 848   0.0000       4.783709       130.1713 
 849   0.0000       4.788096       130.2907 
 850   0.0000       4.805362       130.7606 
 851   0.0000       4.823831       131.2631 
 852   0.0000       4.829853       131.4270 
 853   0.0000       4.834109       131.5428 
 854   0.0000       4.839240       131.6824 
 855   0.0000       4.849303       131.9562 
 856   0.0000       4.870747       132.5398 
 857   0.0000       4.874931       132.6536 
 858   0.0000       4.884449       132.9126 
 859   0.0000       4.895141       133.2036 
 860   0.0000       4.905466       133.4845 
 861   0.0000       4.917409       133.8095 
 862   0.0000       4.930544       134.1669 
 863   0.0000       4.940691       134.4430 
 864   0.0000       4.948905       134.6665 
 865   0.0000       4.954402       134.8161 
 866   0.0000       4.973746       135.3425 
 867   0.0000       4.981253       135.5468 
 868   0.0000       5.004462       136.1783 
 869   0.0000       5.009479       136.3148 
 870   0.0000       5.013906       136.4353 
 871   0.0000       5.030612       136.8899 
 872   0.0000       5.043951       137.2529 
 873   0.0000       5.049377       137.4005 
 874   0.0000       5.073446       138.0555 
 875   0.0000       5.085994       138.3969 
 876   0.0000       5.091610       138.5498 
 877   0.0000       5.098417       138.7350 
 878   0.0000       5.109906       139.0476 
 879   0.0000       5.125527       139.4727 
 880   0.0000       5.139802       139.8611 
 881   0.0000       5.157361       140.3389 
 882   0.0000       5.166146       140.5780 
 883   0.0000       5.178286       140.9083 
 884   0.0000       5.193621       141.3256 
 885   0.0000       5.217261       141.9689 
 886   0.0000       5.219472       142.0291 
 887   0.0000       5.232497       142.3835 
 888   0.0000       5.238214       142.5390 
 889   0.0000       5.256419       143.0344 
 890   0.0000       5.261306       143.1674 
 891   0.0000       5.278289       143.6295 
 892   0.0000       5.279310       143.6573 
 893   0.0000       5.309092       144.4677 
 894   0.0000       5.317259       144.6900 
 895   0.0000       5.332903       145.1157 
 896   0.0000       5.338473       145.2672 
 897   0.0000       5.352789       145.6568 
 898   0.0000       5.369962       146.1241 
 899   0.0000       5.375642       146.2786 
 900   0.0000       5.394159       146.7825 
 901   0.0000       5.402910       147.0206 
 902   0.0000       5.404894       147.0746 
 903   0.0000       5.418432       147.4430 
 904   0.0000       5.428637       147.7207 
 905   0.0000       5.440841       148.0528 
 906   0.0000       5.446471       148.2060 
 907   0.0000       5.453615       148.4004 
 908   0.0000       5.461554       148.6164 
 909   0.0000       5.480216       149.1242 
 910   0.0000       5.490666       149.4086 
 911   0.0000       5.511016       149.9624 
 912   0.0000       5.536206       150.6478 
 913   0.0000       5.546025       150.9150 
 914   0.0000       5.558595       151.2571 
 915   0.0000       5.569769       151.5611 
 916   0.0000       5.585417       151.9869 
 917   0.0000       5.589304       152.0927 
 918   0.0000       5.608596       152.6177 
 919   0.0000       5.617353       152.8560 
 920   0.0000       5.622870       153.0061 
 921   0.0000       5.633646       153.2993 
 922   0.0000       5.643428       153.5655 
 923   0.0000       5.656562       153.9229 
 924   0.0000       5.669037       154.2623 
 925   0.0000       5.676918       154.4768 
 926   0.0000       5.682942       154.6407 
 927   0.0000       5.703792       155.2081 
 928   0.0000       5.716874       155.5640 
 929   0.0000       5.729731       155.9139 
 930   0.0000       5.741420       156.2320 
 931   0.0000       5.748082       156.4133 
 932   0.0000       5.763175       156.8240 
 933   0.0000       5.769246       156.9892 
 934   0.0000       5.780430       157.2935 
 935   0.0000       5.791350       157.5906 
 936   0.0000       5.811256       158.1323 
 937   0.0000       5.832033       158.6977 
 938   0.0000       5.836990       158.8326 
 939   0.0000       5.845373       159.0607 
 940   0.0000       5.852601       159.2574 
 941   0.0000       5.866811       159.6441 
 942   0.0000       5.910703       160.8384 
 943   0.0000       5.914454       160.9405 
 944   0.0000       5.935418       161.5109 
 945   0.0000       5.985789       162.8816 
 946   0.0000       6.073351       165.2643 
 947   0.0000       6.080694       165.4641 
 948   0.0000       6.108038       166.2082 
 949   0.0000       6.125869       166.6934 
 950   0.0000       6.151082       167.3795 
 951   0.0000       6.180776       168.1875 
 952   0.0000       6.189283       168.4189 
 953   0.0000       6.202181       168.7699 
 954   0.0000       6.214160       169.0959 
 955   0.0000       6.223264       169.3436 
 956   0.0000       6.231461       169.5667 
 957   0.0000       6.258326       170.2977 
 958   0.0000       6.278413       170.8443 
 959   0.0000       6.317437       171.9062 
 960   0.0000       6.325025       172.1127 
 961   0.0000       6.344369       172.6391 
 962   0.0000       6.353926       172.8991 
 963   0.0000       6.380184       173.6136 
 964   0.0000       6.392775       173.9563 
 965   0.0000       6.404783       174.2830 
 966   0.0000       6.440573       175.2569 
 967   0.0000       6.458218       175.7371 
 968   0.0000       6.488124       176.5508 
 969   0.0000       6.509341       177.1282 
 970   0.0000       6.618722       180.1046 
 971   0.0000       6.743458       183.4988 
 972   0.0000       6.837739       186.0644 
 973   0.0000       6.852991       186.4794 
 974   0.0000       6.888338       187.4412 
 975   0.0000       6.924199       188.4170 
 976   0.0000       6.937295       188.7734 
 977   0.0000       6.976818       189.8489 
 978   0.0000       6.979663       189.9263 
 979   0.0000       6.989217       190.1863 
 980   0.0000       6.995706       190.3629 
 981   0.0000       7.041435       191.6072 
 982   0.0000       7.085081       192.7949 
 983   0.0000       7.091585       192.9718 
 984   0.0000       7.153031       194.6439 
 985   0.0000       7.204839       196.0536 
 986   0.0000       7.335325       199.6044 
 987   0.0000       7.371968       200.6014 
 988   0.0000       7.472425       203.3350 
 989   0.0000       7.524447       204.7506 
 990   0.0000       7.562573       205.7881 
 991   0.0000       7.669051       208.6855 
 992   0.0000       7.694484       209.3776 
 993   0.0000       7.780331       211.7136 
 994   0.0000       7.837018       213.2561 
 995   0.0000       7.908135       215.1913 
 996   0.0000       8.050238       219.0581 
 997   0.0000       8.112496       220.7522 
 998   0.0000       8.365760       227.6439 
 999   0.0000       9.438002       256.8211 
 1000   0.0000       9.455213       257.2894 
 1001   0.0000       9.474832       257.8233 
 1002   0.0000       9.481335       258.0002 
 1003   0.0000       9.494130       258.3484 
 1004   0.0000       9.531175       259.3565 
 1005   0.0000       9.763458       265.6772 
 1006   0.0000      10.106061       274.9999 
 1007   0.0000      10.130759       275.6720 
 1008   0.0000      10.147895       276.1383 
 1009   0.0000      10.221683       278.1461 
 1010   0.0000      10.232074       278.4289 
 1011   0.0000      10.253561       279.0136 
 1012   0.0000      10.403099       283.0827 
 1013   0.0000      10.441480       284.1271 
 1014   0.0000      10.566002       287.5155 
 1015   0.0000      15.604447       424.6186 
 1016   0.0000      17.644656       480.1355 
 1017   0.0000      18.364418       499.7212 
 1018   0.0000      18.482958       502.9469 
 1019   0.0000      18.698382       508.8089 
 1020   0.0000      18.954454       515.7769 
 1021   0.0000      19.109358       519.9921 
 1022   0.0000      20.177346       549.0535 
 1023   0.0000      20.442373       556.2653 
 1024   0.0000      21.940884       597.0418 

                 SPIN DOWN ORBITALS
  NO   OCC          E(Eh)            E(eV) 
   0   1.0000    -261.545789     -7117.0227 
   1   1.0000    -104.775611     -2851.0893 
   2   1.0000    -104.771970     -2850.9903 
   3   1.0000    -104.770108     -2850.9396 
   4   1.0000     -32.055165      -872.2654 
   5   1.0000     -27.533238      -749.2175 
   6   1.0000     -27.533087      -749.2134 
   7   1.0000     -27.532589      -749.1998 
   8   1.0000     -20.544212      -559.0364 
   9   1.0000     -11.377729      -309.6037 
  10   1.0000     -11.373362      -309.4849 
  11   1.0000     -11.283580      -307.0418 
  12   1.0000     -11.281016      -306.9721 
  13   1.0000     -11.266410      -306.5746 
  14   1.0000     -11.255191      -306.2693 
  15   1.0000     -11.251608      -306.1718 
  16   1.0000     -11.243278      -305.9451 
  17   1.0000     -10.502095      -285.7765 
  18   1.0000     -10.498437      -285.6770 
  19   1.0000     -10.496598      -285.6269 
  20   1.0000      -7.967938      -216.8186 
  21   1.0000      -7.967500      -216.8067 
  22   1.0000      -7.967422      -216.8046 
  23   1.0000      -7.964413      -216.7227 
  24   1.0000      -7.963736      -216.7043 
  25   1.0000      -7.963646      -216.7018 
  26   1.0000      -7.962546      -216.6719 
  27   1.0000      -7.961841      -216.6527 
  28   1.0000      -7.961764      -216.6506 
  29   1.0000      -4.130306      -112.3913 
  30   1.0000      -2.652136       -72.1683 
  31   1.0000      -2.652065       -72.1664 
  32   1.0000      -2.651176       -72.1422 
  33   1.0000      -1.374823       -37.4108 
  34   1.0000      -1.182544       -32.1787 
  35   1.0000      -1.081398       -29.4263 
  36   1.0000      -1.042927       -28.3795 
  37   1.0000      -1.033107       -28.1123 
  38   1.0000      -1.021592       -27.7989 
  39   1.0000      -1.018338       -27.7104 
  40   1.0000      -1.005173       -27.3522 
  41   1.0000      -0.976934       -26.5837 
  42   1.0000      -0.931297       -25.3419 
  43   1.0000      -0.796537       -21.6749 
  44   1.0000      -0.769327       -20.9345 
  45   1.0000      -0.703088       -19.1320 
  46   1.0000      -0.690677       -18.7943 
  47   1.0000      -0.674033       -18.3414 
  48   1.0000      -0.654199       -17.8017 
  49   1.0000      -0.645683       -17.5699 
  50   1.0000      -0.627031       -17.0624 
  51   1.0000      -0.598931       -16.2977 
  52   1.0000      -0.596866       -16.2416 
  53   1.0000      -0.590037       -16.0557 
  54   1.0000      -0.578418       -15.7395 
  55   1.0000      -0.576507       -15.6876 
  56   1.0000      -0.561004       -15.2657 
  57   1.0000      -0.555631       -15.1195 
  58   1.0000      -0.545875       -14.8540 
  59   1.0000      -0.530661       -14.4400 
  60   1.0000      -0.527854       -14.3636 
  61   1.0000      -0.503018       -13.6878 
  62   1.0000      -0.471726       -12.8363 
  63   1.0000      -0.465252       -12.6601 
  64   1.0000      -0.459656       -12.5079 
  65   1.0000      -0.436764       -11.8850 
  66   1.0000      -0.433700       -11.8016 
  67   1.0000      -0.432002       -11.7554 
  68   1.0000      -0.422646       -11.5008 
  69   1.0000      -0.411794       -11.2055 
  70   1.0000      -0.399242       -10.8639 
  71   1.0000      -0.389038       -10.5863 
  72   0.0000       0.007219         0.1964 
  73   0.0000       0.017561         0.4779 
  74   0.0000       0.020552         0.5592 
  75   0.0000       0.021406         0.5825 
  76   0.0000       0.030756         0.8369 
  77   0.0000       0.037864         1.0303 
  78   0.0000       0.039541         1.0760 
  79   0.0000       0.044219         1.2033 
  80   0.0000       0.045408         1.2356 
  81   0.0000       0.046802         1.2735 
  82   0.0000       0.056842         1.5467 
  83   0.0000       0.059105         1.6083 
  84   0.0000       0.061603         1.6763 
  85   0.0000       0.064745         1.7618 
  86   0.0000       0.066011         1.7962 
  87   0.0000       0.071390         1.9426 
  88   0.0000       0.074707         2.0329 
  89   0.0000       0.078164         2.1270 
  90   0.0000       0.088492         2.4080 
  91   0.0000       0.089394         2.4325 
  92   0.0000       0.093953         2.5566 
  93   0.0000       0.095735         2.6051 
  94   0.0000       0.098937         2.6922 
  95   0.0000       0.100329         2.7301 
  96   0.0000       0.109345         2.9754 
  97   0.0000       0.113394         3.0856 
  98   0.0000       0.121127         3.2960 
  99   0.0000       0.121956         3.3186 
 100   0.0000       0.123285         3.3547 
 101   0.0000       0.125041         3.4025 
 102   0.0000       0.125669         3.4196 
 103   0.0000       0.126928         3.4539 
 104   0.0000       0.129470         3.5231 
 105   0.0000       0.130870         3.5612 
 106   0.0000       0.132651         3.6096 
 107   0.0000       0.135165         3.6780 
 108   0.0000       0.137276         3.7355 
 109   0.0000       0.139372         3.7925 
 110   0.0000       0.139724         3.8021 
 111   0.0000       0.140325         3.8184 
 112   0.0000       0.145751         3.9661 
 113   0.0000       0.148738         4.0474 
 114   0.0000       0.152435         4.1480 
 115   0.0000       0.155938         4.2433 
 116   0.0000       0.159215         4.3325 
 117   0.0000       0.164608         4.4792 
 118   0.0000       0.165154         4.4941 
 119   0.0000       0.168009         4.5717 
 120   0.0000       0.169708         4.6180 
 121   0.0000       0.174206         4.7404 
 122   0.0000       0.176206         4.7948 
 123   0.0000       0.179891         4.8951 
 124   0.0000       0.183845         5.0027 
 125   0.0000       0.189757         5.1636 
 126   0.0000       0.190877         5.1940 
 127   0.0000       0.198969         5.4142 
 128   0.0000       0.199694         5.4340 
 129   0.0000       0.202019         5.4972 
 130   0.0000       0.206432         5.6173 
 131   0.0000       0.209160         5.6915 
 132   0.0000       0.210419         5.7258 
 133   0.0000       0.216489         5.8910 
 134   0.0000       0.217548         5.9198 
 135   0.0000       0.221630         6.0309 
 136   0.0000       0.227405         6.1880 
 137   0.0000       0.229255         6.2383 
 138   0.0000       0.230364         6.2685 
 139   0.0000       0.234902         6.3920 
 140   0.0000       0.237119         6.4523 
 141   0.0000       0.242498         6.5987 
 142   0.0000       0.245228         6.6730 
 143   0.0000       0.248753         6.7689 
 144   0.0000       0.249101         6.7784 
 145   0.0000       0.253709         6.9038 
 146   0.0000       0.255181         6.9438 
 147   0.0000       0.259788         7.0692 
 148   0.0000       0.263878         7.1805 
 149   0.0000       0.272872         7.4252 
 150   0.0000       0.275573         7.4987 
 151   0.0000       0.277465         7.5502 
 152   0.0000       0.279735         7.6120 
 153   0.0000       0.286437         7.7943 
 154   0.0000       0.288698         7.8559 
 155   0.0000       0.289862         7.8876 
 156   0.0000       0.298453         8.1213 
 157   0.0000       0.302234         8.2242 
 158   0.0000       0.304026         8.2730 
 159   0.0000       0.308010         8.3814 
 160   0.0000       0.308729         8.4010 
 161   0.0000       0.316710         8.6181 
 162   0.0000       0.324250         8.8233 
 163   0.0000       0.326257         8.8779 
 164   0.0000       0.331136         9.0107 
 165   0.0000       0.332238         9.0407 
 166   0.0000       0.336433         9.1548 
 167   0.0000       0.342743         9.3265 
 168   0.0000       0.344283         9.3684 
 169   0.0000       0.348113         9.4726 
 170   0.0000       0.352569         9.5939 
 171   0.0000       0.356380         9.6976 
 172   0.0000       0.360097         9.7987 
 173   0.0000       0.362153         9.8547 
 174   0.0000       0.363175         9.8825 
 175   0.0000       0.369417        10.0523 
 176   0.0000       0.371931        10.1208 
 177   0.0000       0.375167        10.2088 
 178   0.0000       0.379184        10.3181 
 179   0.0000       0.385301        10.4846 
 180   0.0000       0.388790        10.5795 
 181   0.0000       0.390790        10.6339 
 182   0.0000       0.392485        10.6801 
 183   0.0000       0.393406        10.7051 
 184   0.0000       0.397366        10.8129 
 185   0.0000       0.399761        10.8781 
 186   0.0000       0.402839        10.9618 
 187   0.0000       0.403999        10.9934 
 188   0.0000       0.406025        11.0485 
 189   0.0000       0.416653        11.3377 
 190   0.0000       0.419113        11.4046 
 191   0.0000       0.419734        11.4215 
 192   0.0000       0.425710        11.5842 
 193   0.0000       0.428629        11.6636 
 194   0.0000       0.431571        11.7436 
 195   0.0000       0.436378        11.8744 
 196   0.0000       0.437501        11.9050 
 197   0.0000       0.443351        12.0642 
 198   0.0000       0.448611        12.2073 
 199   0.0000       0.453563        12.3421 
 200   0.0000       0.453986        12.3536 
 201   0.0000       0.457118        12.4388 
 202   0.0000       0.462997        12.5988 
 203   0.0000       0.468313        12.7434 
 204   0.0000       0.471623        12.8335 
 205   0.0000       0.475101        12.9281 
 206   0.0000       0.479125        13.0377 
 207   0.0000       0.480616        13.0782 
 208   0.0000       0.486286        13.2325 
 209   0.0000       0.488944        13.3048 
 210   0.0000       0.490018        13.3341 
 211   0.0000       0.490079        13.3357 
 212   0.0000       0.494439        13.4544 
 213   0.0000       0.498251        13.5581 
 214   0.0000       0.499296        13.5865 
 215   0.0000       0.501585        13.6488 
 216   0.0000       0.503793        13.7089 
 217   0.0000       0.511001        13.9050 
 218   0.0000       0.512888        13.9564 
 219   0.0000       0.516157        14.0454 
 220   0.0000       0.520213        14.1557 
 221   0.0000       0.525246        14.2927 
 222   0.0000       0.526888        14.3374 
 223   0.0000       0.528915        14.3925 
 224   0.0000       0.531598        14.4655 
 225   0.0000       0.536356        14.5950 
 226   0.0000       0.539584        14.6828 
 227   0.0000       0.542325        14.7574 
 228   0.0000       0.546756        14.8780 
 229   0.0000       0.553447        15.0601 
 230   0.0000       0.554740        15.0952 
 231   0.0000       0.560007        15.2386 
 232   0.0000       0.561373        15.2757 
 233   0.0000       0.564859        15.3706 
 234   0.0000       0.569198        15.4887 
 235   0.0000       0.572174        15.5697 
 236   0.0000       0.574082        15.6216 
 237   0.0000       0.576546        15.6886 
 238   0.0000       0.582527        15.8514 
 239   0.0000       0.586727        15.9656 
 240   0.0000       0.592473        16.1220 
 241   0.0000       0.595085        16.1931 
 242   0.0000       0.596908        16.2427 
 243   0.0000       0.603644        16.4260 
 244   0.0000       0.605120        16.4662 
 245   0.0000       0.607261        16.5244 
 246   0.0000       0.609983        16.5985 
 247   0.0000       0.617069        16.7913 
 248   0.0000       0.619175        16.8486 
 249   0.0000       0.625880        17.0311 
 250   0.0000       0.630155        17.1474 
 251   0.0000       0.633037        17.2258 
 252   0.0000       0.635123        17.2826 
 253   0.0000       0.642082        17.4719 
 254   0.0000       0.644134        17.5278 
 255   0.0000       0.646857        17.6019 
 256   0.0000       0.649809        17.6822 
 257   0.0000       0.656851        17.8738 
 258   0.0000       0.661618        18.0036 
 259   0.0000       0.662293        18.0219 
 260   0.0000       0.666226        18.1289 
 261   0.0000       0.671367        18.2688 
 262   0.0000       0.676620        18.4118 
 263   0.0000       0.683453        18.5977 
 264   0.0000       0.684865        18.6361 
 265   0.0000       0.693894        18.8818 
 266   0.0000       0.694439        18.8966 
 267   0.0000       0.698922        19.0186 
 268   0.0000       0.702310        19.1108 
 269   0.0000       0.704868        19.1804 
 270   0.0000       0.712208        19.3802 
 271   0.0000       0.714943        19.4546 
 272   0.0000       0.719554        19.5801 
 273   0.0000       0.729099        19.8398 
 274   0.0000       0.730641        19.8818 
 275   0.0000       0.733646        19.9635 
 276   0.0000       0.738491        20.0954 
 277   0.0000       0.741694        20.1825 
 278   0.0000       0.744520        20.2594 
[...]
  | sigma^2 in % of trace(Dip) retained ...   1.66e+01
  | sigma^2 in % of trace(Dpq) retained ...   1.31e-01
  | Av. % of trace(Di) retained         ...  99.998517661230
  | Av. % of trace(Dp) retained         ...  99.999998731407
  | sigma^2 in % of trace(Di) retained  ...   7.52e-07
  | sigma^2 in % of trace(Dp) retained  ...   4.38e-12
 Distributions of % trace(Dij) recovered:
  |       >= 99.9  ...   104 ( 20.2 % of all IJ-pairs)
  |   [80.0, 90.0) ...    37 (  7.2 % of all IJ-pairs)
  |   [90.0, 99.0) ...   281 ( 54.5 % of all IJ-pairs)
  |   [99.0, 99.9) ...    94 ( 18.2 % of all IJ-pairs)
 Distributions of % trace(Dip) recovered:
  |   [80.0, 90.0) ...    10 (  8.4 % of all IP-pairs)
  |   [90.0, 99.0) ...    67 ( 56.3 % of all IP-pairs)
  |   [99.0, 99.9) ...    42 ( 35.3 % of all IP-pairs)
 Distributions of % trace(Dpq) recovered:
  |       >= 99.9  ...     5 ( 33.3 % of all PQ-pairs)
  |   [99.0, 99.9) ...    10 ( 66.7 % of all PQ-pairs)
 Distributions of % trace(Di) recovered :
  |       >= 99.9  ...    43 (100.0 % of all I-pairs )
 Distributions of % trace(Dp) recovered :
  |       >= 99.9  ...     5 (100.0 % of all P-pairs )

                       ===========================
                       1133 OF 1703 PAIRS ARE KEPT
                       ===========================

 Initial PAO correlation energy (all pairs)    ...  -2.6953261826 Eh
 Energy constituents in PAO basis (Eh):
  | Vijab(+0) ...  -2.2660000751
  | Viab (-1) ...  -0.1753246061
  | Vab  (-2) ...  -0.0573659194
  | Va   (-1) ...  -0.0000411194
  | Vija (+1) ...  -0.0727674337
  | Vij  (+2) ...  -0.0154911106
  | Via  (+0) ...  -0.1081779601
  | Vi   (+1) ...  -0.0001579583
 Initial PNO correlation energy                ...  -2.6608375541 Eh
 Energy constituents in PNO basis (Eh):
  | Vijab(+0) ...  -2.2474891800 (err=  0.0185108950)
  | Viab (-1) ...  -0.1610566836 (err=  0.0142679225)
  | Vab  (-2) ...  -0.0568996063 (err=  0.0004663131)
  | Va   (-1) ...  -0.0000236522 (err=  0.0000174672)
  | Vija (+1) ...  -0.0717028707 (err=  0.0010645629)
  | Vij  (+2) ...  -0.0154297557 (err=  0.0000613549)
  | Via  (+0) ...  -0.1080781444 (err=  0.0000998157)
  | Vi   (+1) ...  -0.0001576612 (err=  0.0000002971)
 Sum of total truncation errors ...   0.0344886285 Eh
  | Pair screening ...   0.0113285952 Eh
  | PNO truncation ...   0.0231600333 Eh

 UMP2 correlation energy (PAO) ...  -2.6904872483
  | alpha-alpha ...  -0.3871400006 (NP_aa=  923)
  | alpha-beta  ...  -1.9957945065 (NP_ab= 1678)
  | beta -beta  ...  -0.3075527412 (NP_bb=  722)
 UMP2 correlation energy (PNO) ...  -2.6556213874
  | alpha-alpha ...  -0.3751039682 (err=  0.0120360324, NP_aa=  602)
  | alpha-beta  ...  -1.9770221685 (err=  0.0187723380, NP_ab= 1108)
  | beta -beta  ...  -0.3034952506 (err=  0.0040574906, NP_bb=  473)
 Sum of total UMP2 truncation errors ...   0.0348658610 Eh
  | Pair screening ...   0.0113501130 Eh
  | PNO truncation ...   0.0235157480 Eh
 Timing for NEV-PNO construction (sec.)
  | Intermediate construction  ..           54.382
  | Amplitude construction     ..           68.343
  | Total time                 ..          122.725
 Making pair pair interaction lists ...      ok
 Total size for 2-ext PNO integrals ...     11.1 MB
Checking the number of SOMO/SOMO doubles PNOs ... 
 #Truncate: (72, 72)[172] -> [85] .. 
 #Truncate: (73, 73)[171] -> [85] .. 
 #Truncate: (74, 74)[170] -> [85] .. 
 #Truncate: (75, 75)[170] -> [85] .. 
 #Truncate: (76, 76)[170] -> [85] .. 

--------------------------------
LOCAL RI TRANSFORMATION (VABPAO)
--------------------------------

Number of PAOs:    1030
Basis functions:   1025 (343 shells)
Aux. functions:    2424 (644 shells)

Processing maps (0.0 sec)
Average map sizes:
   Aux shells -> PAOs           1030.0
   PAOs       -> AO shells       343.0

Calculating integrals (194.4 sec, 37370.165 MB)
Finished
-----------------------------
LOCAL RI TRANSFORMATION (IJV)
-----------------------------

Orbital window:      29 to 76
Basis functions:   1025 (343 shells)
Aux. functions:    2424 (644 shells)

Processing maps (0.0 sec)
Average map sizes:
   Aux shells -> MOs(i)           46.8
   Aux shells -> MOs(j)           48.0
   MOs        -> AO shells       338.9

Calculating integrals (23.1 sec, 41.650 MB)
Sorting integrals (0.3 sec, 41.623 MB)
Total time for the integral transformation: 23.5 sec


-------------------------------------
Pair Pair Term precalculation with     
RI-(ij|mn) and (im|jn) transformation  
ON THE FLY                             
-------------------------------------

   IBatch   1 (of   3)              ... done ( 1158.500 sec)
   IBatch   2 (of   3)              ... done ( 1381.118 sec)
   IBatch   3 (of   3)              ... done (   49.423 sec)
Total EXT                           ...        2589.041 sec

---------------------
RI-PNO TRANSFORMATION
---------------------

Total Number of PNOs                   ... 35194
Total Number of IJ-PNOs                ... 31002
Total Number of IP-PNOs                ...  3243
Total Number of PQ-PNOs                ...   949
Total Number of IJ-pairs               ...   989
Total Number of PI-pairs               ...   119
Total Number of PQ-pairs               ...    25
Average number of PNOs per pair        ...    31
Maximal number of PNOs per pair        ...    85
>> Statistics for ij-pairs..
   #pairs with  1 -  5 PNOs   :    0
   #pairs with  6 - 10 PNOs   :    0
   #pairs with 11 - 15 PNOs   :   52
   #pairs with 16 - 20 PNOs   :  246
   #pairs with 21 - 25 PNOs   :  172
   #pairs with 26 - 30 PNOs   :  156
   #pairs with 31 - 35 PNOs   :   68
   #pairs with 36 - 40 PNOs   :   54
   #pairs with 41 - 45 PNOs   :   50
   #pairs with 46 - 50 PNOs   :   15
   #pairs with 51 - 55 PNOs   :   43
   #pairs with 56 - 60 PNOs   :   47
   #pairs with 61 - 65 PNOs   :   77
   #pairs with 66 - 70 PNOs   :    6
   #pairs with 71 - 75 PNOs   :    1
   #pairs with 76 - 80 PNOs   :    2
>> Statistics for ip-pairs..
   #pairs with  1 -  5 PNOs   :    0
   #pairs with  6 - 10 PNOs   :    2
   #pairs with 11 - 15 PNOs   :   16
   #pairs with 16 - 20 PNOs   :    4
   #pairs with 21 - 25 PNOs   :   26
   #pairs with 26 - 30 PNOs   :   12
   #pairs with 31 - 35 PNOs   :   46
   #pairs with 36 - 40 PNOs   :   13
   #pairs with 41 - 45 PNOs   :    0
   #pairs with 46 - 50 PNOs   :    0
>> Statistics for pq-pairs..
   #pairs with  1 -  5 PNOs   :    0
   #pairs with  6 - 10 PNOs   :    0
   #pairs with 11 - 15 PNOs   :    0
   #pairs with 16 - 20 PNOs   :    0
   #pairs with 21 - 25 PNOs   :   10
   #pairs with 26 - 30 PNOs   :   10
   #pairs with 31 - 35 PNOs   :    0
   #pairs with 36 - 40 PNOs   :    0
   #pairs with 41 - 45 PNOs   :    0
   #pairs with 46 - 50 PNOs   :    0
   #pairs with 81 - 85 PNOs   :    5

Generation of (ij|ab)[P] integrals            ... on
Generation of (ia|bc)[P],(ja|bc)[P] integrals ... on
Storage of 3 and 4 external integrals         ... on
Generation of ALL (ka|bc)[P] integrals        ... on
Keep RI integrals in memory                   ... off

Ibatch:  1 (of  1)
Starting 2-4 index PNO integral generation ... done

Timings:
Total PNO integral transformation time     ...       2382.208 sec
Size of the 3-external file                ...       289 MB
Size of the 4-external file                ...      1957 MB
Size of the IKJL file                      ...        19 MB
Size of the all 3-external file            ...      6952 MB
Size of the 1-external file                ...        22 MB

Size of the PAO/PNO coefficient matrices   ...     229.0 MB

Making pair/pair overlap matrices          ... done (  412.273 sec)
Size of the pair overlap file              ...    2516.0 MB
Total # unrestricted pairs ...       2183
  # of alpha-alpha pairs   ...        602
  # of alpha-beta pairs    ...       1108
  # of beta-beta pairs     ...        473
Constructing the guess amplitudes          ... done (    0.690 sec)

-------------------------
FINAL STARTUP INFORMATION
-------------------------

E(0)                                       ...  -3028.425230849
E(SL-UMP2 in NEV-PNO space)                ...     -2.691497802
Initial E(tot)                             ...  -3031.116728651
<T|T>                                      ...      0.535081385
Number of unrestricted pairs included      ... 2183
Total number of pairs                      ... 4095
----------------------------------------------------------
                     OPEN-SHELL COUPLED CLUSTER ITERATIONS
----------------------------------------------------------

Number of PNO amplitudes to be optimized        ...          2151765
Number of canonical amplitudes for strong pairs ...       1971705100
Untruncated number of canonical amplitudes      ...       3698645738

Iter       E(tot)           E(Corr)          Delta-E          Residual     Time
  0  -3031.123851655     -2.662744391      0.028753412      0.021706405 2095.50
                           *** Turning on DIIS ***
  1  -3031.236280121     -2.775172857     -0.112428467      0.008794731 2095.28
  2  -3031.300324911     -2.839217647     -0.064044790      0.008621699 2095.51
  3  -3031.321122190     -2.860014926     -0.020797279      0.003308265 2089.69
  4  -3031.328086608     -2.866979344     -0.006964418      0.002744957 2093.27
  5  -3031.331703698     -2.870596434     -0.003617090      0.001964004 2080.76
  6  -3031.333042799     -2.871935535     -0.001339101      0.000840372 2078.47
  7  -3031.333830526     -2.872723262     -0.000787727      0.000461823 2078.65
  8  -3031.333980486     -2.872873222     -0.000149959      0.000177660 2097.12
  9  -3031.334026796     -2.872919532     -0.000046310      0.000078266 2081.82
 10  -3031.334022467     -2.872915203      0.000004329      0.000060952 2079.11
 11  -3031.334031492     -2.872924228     -0.000009025      0.000036651 2072.89
 12  -3031.334036911     -2.872929647     -0.000005419      0.000018602 2014.05
 13  -3031.334039099     -2.872931835     -0.000002188      0.000010084 1757.27
 14  -3031.334039702     -2.872932439     -0.000000603      0.000006122 1772.40
               --- The CCSD iterations have converged ---

E(0)                                       ...  -3028.425230849
E(CORR)(strong-pairs)                      ...     -2.872932439
E(CORR)(weak-pairs)                        ...     -0.035876415
E(CORR)(corrected)                         ...     -2.908808854
E(TOT)                                     ...  -3031.334039702
Singles norm <S|S>**1/2                    ...      0.189204623 ( 0.064046003, 0.125158621)  
T1 diagnostic                              ...      0.019834034                              
<S**2>(linearized)                         ...      8.7507318 (ideal value:      8.7500000)

----------------------
LARGEST PNO AMPLITUDES
----------------------
  71a-> 77a  71b-> 77b       0.061424
  50b-> 76b  -1b-> -1b       0.056644
  71a-> 78a  71b-> 78b       0.055236
  51b-> 76b  -1b-> -1b       0.047594
  48b-> 72b  -1b-> -1b       0.047563
  48b-> 74b  -1b-> -1b       0.047029
  29b-> 76b  -1b-> -1b       0.045678
  62a-> 77a  62b-> 77b       0.044578
  66a-> 77a  66b-> 77b       0.044340
  48b-> 75b  -1b-> -1b       0.044179
  70a-> 77a  70b-> 77b       0.043012
  58a-> 77a  58b-> 77b       0.042707
  61a-> 77a  61b-> 77b       0.042301
  64a-> 77a  64b-> 77b       0.042026
  55a-> 78a  55b-> 78b       0.041953
  60a-> 77a  60b-> 77b       0.041874

Total # unrestricted pairs ...       1140
  # of alpha-alpha pairs   ...        321
  # of alpha-beta pairs    ...        570
  # of beta-beta pairs     ...        249

-------------------------------------------
DLPNO BASED TRIPLES CORRECTION
-------------------------------------------

Singles multiplier          ...  1.000000
Fragment selection                          .... not used
TCutTNO                     ... 1.000e-09
TCutMP2Pairs                ... 1.000e-05
TCutDOStrong                ... 2.000e-02
TCutMKNStrong               ... 1.000e-02
TCutDOWeak                  ... 4.000e-02
TCutMKNWeak                 ... 1.000e-01
NTCutTNO                    ... 1

Number of Triples that are to be computed         ...     35424

 . . . . . . . . .
10% done  
20% done  
30% done  
40% done  
50% done  
60% done  
70% done  
80% done  
90% done  
          Batch   1   done (  16611.601 sec)

Triples-Correction TCutTNO=   1.000e-09 (NWeakPairs = 0  1  2  3)  -0.117501520603   -0.001839204974    0.000000000000    0.000000000000
Triples-Correction  -0.119340725577

Triples timings:
Total time                      ... 17293.565 sec

Triples List generation         ...     0.000 sec
TNO generation                  ...   681.713 sec
Pair density generation         ...     0.085 sec
Look up tables                  ...     0.115 sec
Generating 3-index integrals    ... 10490.978 sec
Make 4-ind.int. from 3-ind.int  ...     3.774 sec
Projecting amplitudes (D + S)   ...  5857.594 sec
Sorting integrals for spin cases...    53.545 sec
Calculate W0/W1                 ...   166.316 sec
Energy contr. (sum over a,b,c)  ...    39.238 sec

Everything after 3-index        ...  6258.933 sec

Energy contribution AAA         ...    25.261 sec
Energy contribution AAB         ...   114.710 sec
Energy contribution ABB         ...   104.969 sec
Energy contribution BBB         ...    14.212 sec
prep                ...     3.230 sec
makeTTNO            ...  5798.157 sec
copyij              ...     0.130 sec
copyil              ...     4.168 sec
transposeij         ...     0.078 sec
newMatInDoubleProj  ...    54.623 sec
BlasInDoubleProj    ...  3146.051 sec
ProjSingles         ...    49.276 sec
ProjDoubles         ...  5808.317 sec
overall Doubles for projection      ... 3210936
used Doubles for projection         ... 3210936


Number of Triples   (0, 1, 2, 3 weak pairs; overall):  17265   12101       0       0  ( 29366)
Number of Atoms     (0, 1, 2, 3 weak pairs; overall):   20.3    14.9     0.0     0.0  (    29)
Number of PAOs      (0, 1, 2, 3 weak pairs; overall):  782.9   604.8     0.0     0.0  (  1025)
Number of AuxFcns   (0, 1, 2, 3 weak pairs; overall):  954.0   579.1     0.0     0.0  (  2424)
Number of TNOs (0, 1, 2, 3 weak pairs         ):   79.4    56.0     0.0     0.0
Aver. Number of NTNO, Atoms, PAOs, AuxFcns / Triples:  29366    69.7    18.1   709.5   799.5

Triples Correction (T)                     ...     -0.119340726
    alpha-alpha-alpha ... -0.003929307 (  3.3%)
    alpha-alpha-beta  ... -0.056037029 ( 47.0%)
    alpha-beta -beta  ... -0.055245156 ( 46.3%)
    beta -beta -beta  ... -0.004129234 (  3.5%)
Final correlation energy                   ...     -3.028149579
E(CCSD)                                    ...  -3031.334039702
E(CCSD(T))                                 ...  -3031.453380428

----------------------------
STATISTICS FOR PAIR-ENERGIES
----------------------------
Minimum, maximum and average ratios of UMP and CCSD pair-energies ... 0.53, 1.42, 1.02


------------------------------------------------------------------------------- 
                                     TIMINGS                                   
------------------------------------------------------------------------------- 


Total execution time                   ...    57204.186 sec

Localization of occupied MO's          ...       11.128 sec (  0.0%)
Fock Matrix Formation                  ...     1461.123 sec (  2.6%)
Differential overlap integrals         ...        1.477 sec (  0.0%)
Organizing maps                        ...        1.728 sec (  0.0%)
RI 3-index integral generations        ...      282.309 sec (  0.5%)
RI-PNO integral transformation         ...     5407.702 sec (  9.5%)
Initial Guess                          ...     1872.787 sec (  3.3%)
DIIS Solver                            ...       16.225 sec (  0.0%)
State Vector Update                    ...        0.834 sec (  0.0%)
Sigma-vector construction              ...    30581.799 sec ( 53.5%)
  <0|H|D>                              ...        0.029 sec (  0.0% of sigma)
  <D|H|D>(0-ext)                       ...     5495.254 sec ( 18.0% of sigma)
  <D|H|D>(2-ext Fock)                  ...        1.689 sec (  0.0% of sigma)
  <D|H|D>(2-ext)                       ...     4694.235 sec ( 15.3% of sigma)
  <D|H|D>(4-ext)                       ...      139.321 sec (  0.5% of sigma)
  <D|H|D>(4-ext-corr)                  ...      869.738 sec (  2.8% of sigma)
  CCSD doubles correction              ...      539.331 sec (  1.8% of sigma)
  <S|H|S>                              ...      828.137 sec (  2.7% of sigma)
  <S|H|D>(1-ext)                       ...      292.082 sec (  1.0% of sigma)
  <D|H|S>(1-ext)                       ...        0.934 sec (  0.0% of sigma)
  <S|H|D>(3-ext)                       ...       20.934 sec (  0.1% of sigma)
  CCSD singles correction              ...        0.004 sec (  0.0% of sigma)
  Fock-dressing                        ...     8955.659 sec ( 29.3% of sigma)
  Singles amplitudes                   ...      124.367 sec (  0.4% of sigma)
  (ik|jl)-dressing                     ...     6819.120 sec ( 22.3% of sigma)
  (ij|ab),(ia|jb)-dressing             ...     1724.410 sec (  5.6% of sigma)
  Pair energies                        ...        0.165 sec (  0.0% of sigma)
Total Time for computing (T)           ...    17920.433 sec ( 31.3% of ALL)


-------------------------   --------------------
FINAL SINGLE POINT ENERGY     -3031.453380427999
-------------------------   --------------------


                            ***************************************
                            *     ORCA property calculations      *
                            ***************************************

                                    ---------------------
                                    Active property flags
                                    ---------------------
   (+) Dipole Moment


------------------------------------------------------------------------------
                       ORCA ELECTRIC PROPERTIES CALCULATION
------------------------------------------------------------------------------

Dipole Moment Calculation                       ... on
Quadrupole Moment Calculation                   ... off
Polarizability Calculation                      ... off
GBWName                                         ... simple-grid-190-245-b3lyp_d3bj-631gd-gas-singlepoint-DLPNO_CCSD_T1-NormalPNO-augtz-gas.gbw
Electron density file                           ... simple-grid-190-245-b3lyp_d3bj-631gd-gas-singlepoint-DLPNO_CCSD_T1-NormalPNO-augtz-gas.scfp.tmp
The origin for moment calculation is the CENTER OF MASS  = ( 0.300939,  0.034137  0.014990)

-------------
DIPOLE MOMENT
-------------
                                X             Y             Z
Electronic contribution:     39.99473       5.09079       1.77774
Nuclear contribution   :    -44.83986      -5.08646      -2.23357
                        -----------------------------------------
Total Dipole Moment    :     -4.84512       0.00433      -0.45583
                        -----------------------------------------
Magnitude (a.u.)       :      4.86652
Magnitude (Debye)      :     12.36971



--------------------
Rotational spectrum 
--------------------
 
Rotational constants in cm-1:     0.019086     0.011612     0.010795 
Rotational constants in MHz :   572.174265   348.131113   323.629822 

 Dipole components along the rotational axes: 
x,y,z [a.u.] :    -4.840834    -0.001135    -0.499351 
x,y,z [Debye]:   -12.304423    -0.002886    -1.269249 

 

Timings for individual modules:

Sum of individual times         ...    75396.937 sec (=1256.616 min)
GTO integral calculation        ...       13.732 sec (=   0.229 min)   0.0 %
SCF iterations                  ...    18163.384 sec (= 302.723 min)  24.1 %
MDCI module                     ...    57219.822 sec (= 953.664 min)  75.9 %
                             ****ORCA TERMINATED NORMALLY****
TOTAL RUN TIME: 0 days 20 hours 56 minutes 39 seconds 376 msec
