
                                 *****************
                                 * O   R   C   A *
                                 *****************

           --- An Ab Initio, DFT and Semiempirical electronic structure package ---

                  #######################################################
                  #                        -***-                        #
                  #          Department of theory and spectroscopy      #
                  #               Directorship: Frank Neese             #
                  #        Max Planck Institute fuer Kohlenforschung    #
                  #                Kaiser Wilhelm Platz 1               #
                  #                 D-45470 Muelheim/Ruhr               #
                  #                      Germany                        #
                  #                                                     #
                  #                  All rights reserved                #
                  #                        -***-                        #
                  #######################################################


                         Program Version 4.1.2  - RELEASE  -


 With contributions from (in alphabetic order):
   Daniel Aravena         : Magnetic Properties
   Michael Atanasov       : Ab Initio Ligand Field Theory
   Alexander A. Auer      : GIAO ZORA
   Ute Becker             : Parallelization
   Giovanni Bistoni       : ED, Open-shell LED
   Martin Brehm           : Molecular dynamics
   Dmytro Bykov           : SCF Hessian
   Vijay G. Chilkuri      : MRCI spin determinant printing
   Dipayan Datta          : RHF DLPNO-CCSD density
   Achintya Kumar Dutta   : EOM-CC, STEOM-CC
   Dmitry Ganyushin       : Spin-Orbit,Spin-Spin,Magnetic field MRCI
   Miquel Garcia          : C-PCM Hessian
   Yang Guo               : DLPNO-NEVPT2, CIM, IAO-localization
   Andreas Hansen         : Spin unrestricted coupled pair/coupled cluster methods
   Benjamin Helmich-Paris : CASSCF linear response (MC-RPA)
   Lee Huntington         : MR-EOM, pCC
   Robert Izsak           : Overlap fitted RIJCOSX, COSX-SCS-MP3, EOM
   Christian Kollmar      : KDIIS, OOCD, Brueckner-CCSD(T), CCSD density
   Simone Kossmann        : Meta GGA functionals, TD-DFT gradient, OOMP2, MP2 Hessian
   Martin Krupicka        : AUTO-CI
   Lucas Lang             : DCDCAS
   Dagmar Lenk            : GEPOL surface, SMD
   Dimitrios Liakos       : Extrapolation schemes; parallel MDCI
   Dimitrios Manganas     : ROCIS; embedding schemes
   Dimitrios Pantazis     : SARC Basis sets
   Taras Petrenko         : DFT Hessian,TD-DFT gradient, ASA, ECA, R-Raman, ABS, FL, XAS/XES, NRVS
   Peter Pinski           : DLPNO-MP2, DLPNO-MP2 Gradient
   Christoph Reimann      : Effective Core Potentials
   Marius Retegan         : Local ZFS, SOC
   Christoph Riplinger    : Optimizer, TS searches, QM/MM, DLPNO-CCSD(T), (RO)-DLPNO pert. Triples
   Tobias Risthaus        : Range-separated hybrids, TD-DFT gradient, RPA, STAB
   Michael Roemelt        : Restricted open shell CIS
   Masaaki Saitow         : Open-shell DLPNO
   Barbara Sandhoefer     : DKH picture change effects
   Avijit Sen             : IP-ROCIS
   Kantharuban Sivalingam : CASSCF convergence, NEVPT2, FIC-MRCI
   Bernardo de Souza      : ESD, SOC TD-DFT
   Georgi Stoychev        : AutoAux, RI-MP2 NMR
   Willem Van den Heuvel  : Paramagnetic NMR
   Boris Wezisla          : Elementary symmetry handling
   Frank Wennmohs         : Technical directorship


 We gratefully acknowledge several colleagues who have allowed us to
 interface, adapt or use parts of their codes:
   Stefan Grimme, W. Hujo, H. Kruse,             : VdW corrections, initial TS optimization,
                  C. Bannwarth                     DFT functionals, gCP, sTDA/sTD-DF
   Ed Valeev                                     : LibInt (2-el integral package), F12 methods
   Garnet Chan, S. Sharma, J. Yang, R. Olivares  : DMRG
   Ulf Ekstrom                                   : XCFun DFT Library
   Mihaly Kallay                                 : mrcc  (arbitrary order and MRCC methods)
   Andreas Klamt, Michael Diedenhofen            : otool_cosmo (COSMO solvation model)
   Jiri Pittner, Ondrej Demel                    : Mk-CCSD
   Frank Weinhold                                : gennbo (NPA and NBO analysis)
   Christopher J. Cramer and Donald G. Truhlar   : smd solvation model
   Lars Goerigk                                  : TD-DFT with DH, B97 family of functionals
   V. Asgeirsson, H. Jonsson                     : NEB implementation
   FAccTs GmbH                                   : IRC, NEB, NEB-TS, Multilevel


 Your calculation uses the libint2 library for the computation of 2-el integrals
 For citations please refer to: http://libint.valeyev.net

 This ORCA versions uses:
   CBLAS   interface :  Fast vector & matrix operations
   LAPACKE interface :  Fast linear algebra routines
   SCALAPACK package :  Parallel linear algebra routines


----- Orbital basis set information -----
Your calculation utilizes the basis: aug-cc-pVTZ 
    H, B-Ne : Obtained from the ccRepo (grant-hill.group.shef.ac.uk/ccrepo) Feb. 2017
              R. A. Kendall, T. H. Dunning, Jr., R. J. Harrison, J. Chem. Phys. 96, 6796 (1992)
         He : Obtained from the ccRepo (grant-hill.group.shef.ac.uk/ccrepo) Feb. 2017
              D. E. Woon, T. H. Dunning, Jr., J. Chem. Phys. 100, 2975 (1994)
  Li-Be, Na : Obtained from the ccRepo (grant-hill.group.shef.ac.uk/ccrepo) Feb. 2017
              B. P. Prascher, D. E. Woon, K. A. Peterson, T. H. Dunning, Jr., A. K. Wilson, Theor. Chem. Acc. 128, 69 (2011)
         Mg : Obtained from the Peterson Research Group Website (tyr0.chem.wsu.edu/~kipeters) Feb. 2017
              B. P. Prascher, D. E. Woon, K. A. Peterson, T. H. Dunning, Jr., A. K. Wilson, Theor. Chem. Acc. 128, 69 (2011)
      Al-Ar : Obtained from the ccRepo (grant-hill.group.shef.ac.uk/ccrepo) Feb. 2017
              D. E. Woon, T. H. Dunning, Jr., J. Chem. Phys. 98, 1358 (1993)
      Sc-Zn : Obtained from the ccRepo (grant-hill.group.shef.ac.uk/ccrepo) Feb. 2017
              N. B. Balabanov, K. A. Peterson, J. Chem. Phys. 123, 064107 (2005)
              N. B. Balabanov, K. A. Peterson, J. Chem. Phys. 125, 074110 (2006)
      Ga-Kr : Obtained from the ccRepo (grant-hill.group.shef.ac.uk/ccrepo) Feb. 2017
              A. K. Wilson, D. E. Woon, K. A. Peterson, T. H. Dunning, Jr., J. Chem. Phys. 110, 7667 (1999)
     Ag, Au : Obtained from the Peterson Research Group Website (tyr0.chem.wsu.edu/~kipeters) Feb. 2017
              K. A. Peterson, C. Puzzarini, Theor. Chem. Acc. 114, 283 (2005)

----- AuxJ basis set information -----
Your calculation utilizes the AutoAux generation procedure.
  G. L. Stoychev, A. A. Auer, F. Neese, J. Chem. Theory Comput. 13, 554 (2017)

----- AuxC basis set information -----
Your calculation utilizes the auxiliary basis: aug-cc-pVTZ/C 
  H-He, B-F, Al-Ar, Ga-Kr : Obtained from the EMSL Basis Set Exchange (bse.pnl.gov) Feb. 2017
                            F. Weigend, A. Kohn, C. Hattig, J. Chem. Phys. 116, 3175 (2002)
                   Be, Mg : Obtained from the TURBOMOLE 7.0 basis set library
                            C. Haettig, Phys. Chem. Chem. Phys. 7, 59 (2005)
                       Ne : Obtained from the EMSL Basis Set Exchange (bse.pnl.gov) Feb. 2017
                            C. Haettig, Phys. Chem. Chem. Phys. 7, 59 (2005)
                            F. Weigend, A. Kohn, C. Hattig, J. Chem. Phys. 116, 3175 (2002)
                    Sc-Zn : Obtained from the EMSL Basis Set Exchange (bse.pnl.gov) Feb. 2017
                            J. G. Hill, J. A. Platts, J. Chem. Phys. 128, 044104 (2008)

----- AuxJK basis set information -----
Your calculation utilizes the AutoAux generation procedure.
  G. L. Stoychev, A. A. Auer, F. Neese, J. Chem. Theory Comput. 13, 554 (2017)

================================================================================
                                        WARNINGS
                       Please study these warnings very carefully!
================================================================================


WARNING: your system is open-shell and RHF/RKS was chosen
  ===> : WILL SWITCH to UHF/UKS


WARNING: MDCI localization with Augmented Hessian Foster-Boys
  ===> : Switching off randomization!

WARNING: Post HF methods need fully converged wavefunctions
  ===> : Setting SCFConvForced true
         You can overwrite this default with %scf ConvForced false 


INFO   : the flag for use of LIBINT has been found!

================================================================================
                                       INPUT FILE
================================================================================
NAME = simple-grid-165-285-b3lyp_d3bj-631gd-gas-singlepoint-DLPNO_CCSD_T1-NormalPNO-augtz-gas.inp
|  1> ! aug-cc-pVTZ aug-cc-pVTZ/C DLPNO-CCSD(T1) TightSCF NormalPNO UNO MiniPrint AutoAux
|  2> %pal nproc 10 end
|  3> %maxcore 20000
|  4> %mdci
|  5>      density none
|  6> end
|  7> 
|  8> * xyz 0 6
|  9>  O     -0.30907300     -0.09026300     -0.41023200
| 10>  C     -1.26767400     -1.03892700     -0.21967700
| 11>  C     -2.47838400     -0.41466400      0.71144200
| 12>  C     -3.02443600      0.69296600     -0.04170700
| 13>  C     -4.23425800      0.53403600     -0.88159500
| 14> Fe      1.51040000      0.17162000     -0.08847700
| 15> Cl      1.80338300      2.23143000     -0.82364800
| 16>  C     -2.25455800      1.91946500     -0.11358200
| 17> Cl      2.55798900     -1.41766600     -1.19566100
| 18> Cl      1.83437900      0.02782200      2.10037300
| 19>  H     -3.21040200     -1.22489800      0.77698700
| 20>  H     -2.68176700      2.70483300     -0.73708200
| 21>  H     -1.93465000      2.29979200      0.86135300
| 22>  H     -1.27876800      1.53345100     -0.54034200
| 23>  H     -5.04808200      1.08345200     -0.38003500
| 24>  H     -4.10903200      1.01031200     -1.86093800
| 25>  H     -4.54582900     -0.50531000     -0.99531000
| 26>  C     -1.92706500     -0.03941500      2.09983700
| 27>  H     -2.62455500      0.61840200      2.62762200
| 28>  H     -1.79998000     -0.93944300      2.70298200
| 29>  H     -0.95556700      0.45212300      2.02648600
| 30>  C     -0.73336600     -2.24970700      0.57110400
| 31>  H     -1.53128300     -2.96000700      0.80947300
| 32>  H      0.00601400     -2.74744500     -0.06388400
| 33>  H     -0.22858500     -1.94031300      1.48677400
| 34>  C     -1.81410800     -1.49990700     -1.58014800
| 35>  H     -1.00716800     -2.01478800     -2.10859100
| 36>  H     -2.65821100     -2.19083600     -1.47669400
| 37>  H     -2.11464000     -0.64939600     -2.19868500
| 38> *
| 39> 
| 40> 
| 41>                          ****END OF INPUT****
================================================================================

                       ****************************
                       * Single Point Calculation *
                       ****************************

---------------------------------
CARTESIAN COORDINATES (ANGSTROEM)
---------------------------------
  O     -0.309073   -0.090263   -0.410232
  C     -1.267674   -1.038927   -0.219677
  C     -2.478384   -0.414664    0.711442
  C     -3.024436    0.692966   -0.041707
  C     -4.234258    0.534036   -0.881595
  Fe     1.510400    0.171620   -0.088477
  Cl     1.803383    2.231430   -0.823648
  C     -2.254558    1.919465   -0.113582
  Cl     2.557989   -1.417666   -1.195661
  Cl     1.834379    0.027822    2.100373
  H     -3.210402   -1.224898    0.776987
  H     -2.681767    2.704833   -0.737082
  H     -1.934650    2.299792    0.861353
  H     -1.278768    1.533451   -0.540342
  H     -5.048082    1.083452   -0.380035
  H     -4.109032    1.010312   -1.860938
  H     -4.545829   -0.505310   -0.995310
  C     -1.927065   -0.039415    2.099837
  H     -2.624555    0.618402    2.627622
  H     -1.799980   -0.939443    2.702982
  H     -0.955567    0.452123    2.026486
  C     -0.733366   -2.249707    0.571104
  H     -1.531283   -2.960007    0.809473
  H      0.006014   -2.747445   -0.063884
  H     -0.228585   -1.940313    1.486774
  C     -1.814108   -1.499907   -1.580148
  H     -1.007168   -2.014788   -2.108591
  H     -2.658211   -2.190836   -1.476694
  H     -2.114640   -0.649396   -2.198685

----------------------------
CARTESIAN COORDINATES (A.U.)
----------------------------
  NO LB      ZA    FRAG     MASS         X           Y           Z
   0 O     8.0000    0    15.999   -0.584063   -0.170572   -0.775226
   1 C     6.0000    0    12.011   -2.395557   -1.963288   -0.415129
   2 C     6.0000    0    12.011   -4.683467   -0.783601    1.344431
   3 C     6.0000    0    12.011   -5.715356    1.309516   -0.078815
   4 C     6.0000    0    12.011   -8.001588    1.009182   -1.665973
   5 Fe   26.0000    0    55.850    2.854242    0.324315   -0.167197
   6 Cl   17.0000    0    35.453    3.407900    4.216792   -1.556469
   7 C     6.0000    0    12.011   -4.260497    3.627263   -0.214639
   8 Cl   17.0000    0    35.453    4.833899   -2.679000   -2.259472
   9 Cl   17.0000    0    35.453    3.466474    0.052576    3.969130
  10 H     1.0000    0     1.008   -6.066781   -2.314722    1.468293
  11 H     1.0000    0     1.008   -5.067805    5.111394   -1.392883
  12 H     1.0000    0     1.008   -3.655959    4.345977    1.627721
  13 H     1.0000    0     1.008   -2.416521    2.897802   -1.021098
  14 H     1.0000    0     1.008   -9.539492    2.047428   -0.718162
  15 H     1.0000    0     1.008   -7.764945    1.909213   -3.516663
  16 H     1.0000    0     1.008   -8.590372   -0.954898   -1.880863
  17 C     6.0000    0    12.011   -3.641625   -0.074484    3.968117
  18 H     1.0000    0     1.008   -4.959690    1.168610    4.965486
  19 H     1.0000    0     1.008   -3.401469   -1.775290    5.107896
  20 H     1.0000    0     1.008   -1.805760    0.854389    3.829504
  21 C     6.0000    0    12.011   -1.385861   -4.251330    1.079230
  22 H     1.0000    0     1.008   -2.893706   -5.593603    1.529682
  23 H     1.0000    0     1.008    0.011365   -5.191919   -0.120723
  24 H     1.0000    0     1.008   -0.431963   -3.666660    2.809596
  25 C     6.0000    0    12.011   -3.428167   -2.834413   -2.986047
  26 H     1.0000    0     1.008   -1.903272   -3.807398   -3.984660
  27 H     1.0000    0     1.008   -5.023291   -4.140080   -2.790547
  28 H     1.0000    0     1.008   -3.996090   -1.227181   -4.154913



           ************************************************************
           *        Program running with 10 parallel MPI-processes    *
           *              working on a common directory               *
           ************************************************************


           ************************************************************
           *        Program running with 10 parallel MPI-processes    *
           *              working on a common directory               *
           ************************************************************

Diagonalization of the overlap matrix:
Smallest eigenvalue                        ... 6.070e-07
Time for diagonalization                   ...    0.364 sec
Threshold for overlap eigenvalues          ... 1.000e-08
Number of eigenvalues below threshold      ... 0
Time for construction of square roots      ...    0.284 sec
Total time needed                          ...    0.655 sec

-------------------
DFT GRID GENERATION
-------------------

General Integration Accuracy     IntAcc      ...  4.340
Radial Grid Type                 RadialGrid  ... Gauss-Chebyshev
Angular Grid (max. acc.)         AngularGrid ... Lebedev-110
Angular grid pruning method      GridPruning ... 3 (G Style)
Weight generation scheme         WeightScheme... Becke
Basis function cutoff            BFCut       ...    1.0000e-11
Integration weight cutoff        WCut        ...    1.0000e-14
Grids for H and He will be reduced by one unit

# of grid points (after initial pruning)     ...  36112 (   0.0 sec)
# of grid points (after weights+screening)   ...  32303 (   0.1 sec)
nearest neighbour list constructed           ...    0.0 sec
Grid point re-assignment to atoms done       ...    0.0 sec
Grid point division into batches done        ...    0.0 sec
Reduced shell lists constructed in    0.3 sec

Total number of grid points                  ...    32303
Total number of batches                      ...      522
Average number of points per batch           ...       61
Average number of grid points per atom       ...     1114
Average number of shells per batch           ...   293.93 (85.69%)
Average number of basis functions per batch  ...   873.07 (85.18%)
Average number of large shells per batch     ...   241.46 (82.15%)
Average number of large basis fcns per batch ...   716.94 (82.12%)
Maximum spatial batch extension              ...   2.88,  3.24,  3.66 au
Average spatial batch extension              ...   0.17,  0.17,  0.16 au

Time for grid setup =    0.413 sec

Loading Hartree-Fock densities                     ... done
Calculating cut-offs                               ... done
Setting up the integral package                    ... done
Initializing the effective Hamiltonian             ... done
Starting the Coulomb interaction                   ... done (   1.1 sec)
Reading the grid                                   ... done
Mapping shells                                     ... done
Starting the XC term evaluation                    ... done (   0.9 sec)
Transforming the Hamiltonian                       ... done (   0.2 sec)
Diagonalizing the Hamiltonian                      ... done (   0.4 sec)
Back transforming the eigenvectors                 ... done (   0.1 sec)
Now organizing SCF variables                       ... done
--------------
SCF ITERATIONS
--------------
ITER       Energy         Delta-E        Max-DP      RMS-DP      [F,P]     Damp
               ***  Starting incremental Fock matrix formation  ***
  0  -3027.5554675376   0.000000000000 0.40778580  0.00112617  0.2883034 0.7000
  1  -3027.8073397746  -0.251872237038 0.29742614  0.00088061  0.1644065 0.7000
                               ***Turning on DIIS***
  2  -3027.9759508283  -0.168611053687 0.20428159  0.00064602  0.1098443 0.7000
  3  -3029.6495086719  -1.673557843603 0.42433891  0.00160811  0.0824681 0.0000
  4  -3028.2926699726   1.356838699337 0.04849669  0.00022665  0.0192760 0.0000
  5  -3028.4082256335  -0.115555660872 0.03930987  0.00017201  0.0112846 0.0000
  6  -3028.4360508234  -0.027825189914 0.02096744  0.00007117  0.0052329 0.0000
  7  -3028.4548678509  -0.018817027561 0.00910519  0.00003462  0.0032670 0.0000
  8  -3028.4505801417   0.004287709246 0.00576185  0.00001979  0.0014097 0.0000
  9  -3028.4411766320   0.009403509709 0.00240944  0.00001205  0.0006645 0.0000
 10  -3028.4314148635   0.009761768477 0.00070257  0.00000366  0.0003616 0.0000
 11  -3028.4361419703  -0.004727106767 0.00037636  0.00000228  0.0001291 0.0000
 12  -3028.4326932087   0.003448761576 0.00041894  0.00000180  0.0000289 0.0000
 13  -3028.4330609608  -0.000367752079 0.00024522  0.00000201  0.0000137 0.0000
 14  -3028.4331323765  -0.000071415693 0.00218891  0.00000368  0.0000059 0.0000
 15  -3028.4331054304   0.000026946095 0.00061975  0.00000273  0.0000035 0.0000
 16  -3028.4331618266  -0.000056396262 0.00195661  0.00000326  0.0000026 0.0000
 17  -3028.4331608250   0.000001001615 0.00062525  0.00000260  0.0000017 0.0000
 18  -3028.4331512212   0.000009603774 0.00221090  0.00000424  0.0000013 0.0000
                            ***DIIS convergence achieved***

               *****************************************************
               *                     SUCCESS                       *
               *           SCF CONVERGED AFTER  19 CYCLES          *
               *****************************************************

Total Energy       :        -3028.43316334 Eh          -82407.85591 eV
  Last Energy change         ...   -1.2123e-05  Tolerance :   1.0000e-08
  Last MAX-Density change    ...    1.0240e-03  Tolerance :   1.0000e-07
             **** THE GBW FILE WAS UPDATED (simple-grid-165-285-b3lyp_d3bj-631gd-gas-singlepoint-DLPNO_CCSD_T1-NormalPNO-augtz-gas.gbw) ****
             **** DENSITY FILE WAS UPDATED (simple-grid-165-285-b3lyp_d3bj-631gd-gas-singlepoint-DLPNO_CCSD_T1-NormalPNO-augtz-gas.scfp.tmp) ****
             **** ENERGY FILE WAS UPDATED (simple-grid-165-285-b3lyp_d3bj-631gd-gas-singlepoint-DLPNO_CCSD_T1-NormalPNO-augtz-gas.en.tmp) ****
----------------------
UHF SPIN CONTAMINATION
----------------------

Expectation value of <S**2>     :     8.764391
Ideal value S*(S+1) for S=2.5   :     8.750000
Deviation                       :     0.014391

----------------
ORBITAL ENERGIES
----------------
                 SPIN UP ORBITALS
  NO   OCC          E(Eh)            E(eV) 
   0   1.0000    -261.536462     -7116.7689 
   1   1.0000    -104.765208     -2850.8062 
   2   1.0000    -104.764059     -2850.7750 
   3   1.0000    -104.761842     -2850.7147 
   4   1.0000     -32.204387      -876.3259 
   5   1.0000     -27.680248      -753.2178 
   6   1.0000     -27.680108      -753.2140 
   7   1.0000     -27.679875      -753.2077 
   8   1.0000     -20.534041      -558.7597 
   9   1.0000     -11.407737      -310.4203 
  10   1.0000     -11.341365      -308.6142 
  11   1.0000     -11.312824      -307.8376 
  12   1.0000     -11.293548      -307.3131 
  13   1.0000     -11.282652      -307.0166 
  14   1.0000     -11.256314      -306.2999 
  15   1.0000     -11.244132      -305.9684 
  16   1.0000     -11.231711      -305.6304 
  17   1.0000     -10.491822      -285.4970 
  18   1.0000     -10.490635      -285.4647 
  19   1.0000     -10.488452      -285.4053 
  20   1.0000      -7.958699      -216.5672 
  21   1.0000      -7.957873      -216.5447 
  22   1.0000      -7.957815      -216.5432 
  23   1.0000      -7.957464      -216.5336 
  24   1.0000      -7.956739      -216.5139 
  25   1.0000      -7.956636      -216.5111 
  26   1.0000      -7.955295      -216.4746 
  27   1.0000      -7.954552      -216.4544 
  28   1.0000      -7.954468      -216.4521 
  29   1.0000      -4.559876      -124.0805 
  30   1.0000      -3.172380       -86.3248 
  31   1.0000      -3.172036       -86.3155 
  32   1.0000      -3.171521       -86.3015 
  33   1.0000      -1.362753       -37.0824 
  34   1.0000      -1.207978       -32.8707 
  35   1.0000      -1.091886       -29.7117 
  36   1.0000      -1.048134       -28.5212 
  37   1.0000      -1.035943       -28.1894 
  38   1.0000      -1.030868       -28.0513 
  39   1.0000      -1.028659       -27.9912 
  40   1.0000      -1.024634       -27.8817 
  41   1.0000      -0.966001       -26.2862 
  42   1.0000      -0.932733       -25.3809 
  43   1.0000      -0.902169       -24.5493 
  44   1.0000      -0.889505       -24.2047 
  45   1.0000      -0.889412       -24.2021 
  46   1.0000      -0.881077       -23.9753 
  47   1.0000      -0.880767       -23.9669 
  48   1.0000      -0.808932       -22.0122 
  49   1.0000      -0.768663       -20.9164 
  50   1.0000      -0.718437       -19.5497 
  51   1.0000      -0.698948       -19.0193 
  52   1.0000      -0.679858       -18.4999 
  53   1.0000      -0.650514       -17.7014 
  54   1.0000      -0.645428       -17.5630 
  55   1.0000      -0.637916       -17.3586 
  56   1.0000      -0.614190       -16.7130 
  57   1.0000      -0.600864       -16.3503 
  58   1.0000      -0.593526       -16.1507 
  59   1.0000      -0.581938       -15.8353 
  60   1.0000      -0.574842       -15.6422 
  61   1.0000      -0.562023       -15.2934 
  62   1.0000      -0.551762       -15.0142 
  63   1.0000      -0.538738       -14.6598 
  64   1.0000      -0.528816       -14.3898 
  65   1.0000      -0.515510       -14.0278 
  66   1.0000      -0.497629       -13.5412 
  67   1.0000      -0.461821       -12.5668 
  68   1.0000      -0.457266       -12.4428 
  69   1.0000      -0.436522       -11.8784 
  70   1.0000      -0.429824       -11.6961 
  71   1.0000      -0.416119       -11.3232 
  72   1.0000      -0.411861       -11.2073 
  73   1.0000      -0.407453       -11.0874 
  74   1.0000      -0.403778       -10.9873 
  75   1.0000      -0.402753       -10.9595 
  76   1.0000      -0.401660       -10.9297 
  77   0.0000      -0.008178        -0.2225 
  78   0.0000      -0.000680        -0.0185 
  79   0.0000       0.016110         0.4384 
  80   0.0000       0.016606         0.4519 
  81   0.0000       0.026218         0.7134 
  82   0.0000       0.036640         0.9970 
  83   0.0000       0.037382         1.0172 
  84   0.0000       0.040723         1.1081 
  85   0.0000       0.043536         1.1847 
  86   0.0000       0.049511         1.3473 
  87   0.0000       0.056922         1.5489 
  88   0.0000       0.058517         1.5923 
  89   0.0000       0.059540         1.6202 
  90   0.0000       0.061791         1.6814 
  91   0.0000       0.064345         1.7509 
  92   0.0000       0.071194         1.9373 
  93   0.0000       0.074223         2.0197 
  94   0.0000       0.079412         2.1609 
  95   0.0000       0.085827         2.3355 
  96   0.0000       0.089496         2.4353 
  97   0.0000       0.090444         2.4611 
  98   0.0000       0.092595         2.5196 
  99   0.0000       0.095883         2.6091 
 100   0.0000       0.100101         2.7239 
 101   0.0000       0.105271         2.8646 
 102   0.0000       0.113302         3.0831 
 103   0.0000       0.113914         3.0998 
 104   0.0000       0.119302         3.2464 
 105   0.0000       0.122045         3.3210 
 106   0.0000       0.128996         3.5101 
 107   0.0000       0.130513         3.5514 
 108   0.0000       0.131528         3.5791 
 109   0.0000       0.133171         3.6238 
 110   0.0000       0.140553         3.8246 
 111   0.0000       0.144118         3.9217 
 112   0.0000       0.146584         3.9888 
 113   0.0000       0.149419         4.0659 
 114   0.0000       0.151448         4.1211 
 115   0.0000       0.156059         4.2466 
 116   0.0000       0.157719         4.2918 
 117   0.0000       0.159059         4.3282 
 118   0.0000       0.160702         4.3729 
 119   0.0000       0.161736         4.4011 
 120   0.0000       0.163336         4.4446 
 121   0.0000       0.168621         4.5884 
 122   0.0000       0.175113         4.7651 
 123   0.0000       0.176950         4.8151 
 124   0.0000       0.179470         4.8836 
 125   0.0000       0.185438         5.0460 
 126   0.0000       0.187230         5.0948 
 127   0.0000       0.189557         5.1581 
 128   0.0000       0.195939         5.3318 
 129   0.0000       0.202987         5.5235 
 130   0.0000       0.204868         5.5747 
 131   0.0000       0.208879         5.6839 
 132   0.0000       0.213638         5.8134 
 133   0.0000       0.217012         5.9052 
 134   0.0000       0.217931         5.9302 
 135   0.0000       0.219874         5.9831 
 136   0.0000       0.223697         6.0871 
 137   0.0000       0.227326         6.1859 
 138   0.0000       0.227982         6.2037 
 139   0.0000       0.228813         6.2263 
 140   0.0000       0.236511         6.4358 
 141   0.0000       0.238725         6.4960 
 142   0.0000       0.241199         6.5633 
 143   0.0000       0.247155         6.7254 
 144   0.0000       0.248799         6.7702 
 145   0.0000       0.251119         6.8333 
 146   0.0000       0.255195         6.9442 
 147   0.0000       0.258168         7.0251 
 148   0.0000       0.260494         7.0884 
 149   0.0000       0.266443         7.2503 
 150   0.0000       0.269773         7.3409 
 151   0.0000       0.274117         7.4591 
 152   0.0000       0.278972         7.5912 
 153   0.0000       0.282503         7.6873 
 154   0.0000       0.287785         7.8310 
 155   0.0000       0.291804         7.9404 
 156   0.0000       0.292070         7.9476 
 157   0.0000       0.298508         8.1228 
 158   0.0000       0.303116         8.2482 
 159   0.0000       0.307483         8.3670 
 160   0.0000       0.309141         8.4122 
 161   0.0000       0.313866         8.5407 
 162   0.0000       0.314587         8.5603 
 163   0.0000       0.320984         8.7344 
 164   0.0000       0.324301         8.8247 
 165   0.0000       0.327469         8.9109 
 166   0.0000       0.330836         9.0025 
 167   0.0000       0.332685         9.0528 
 168   0.0000       0.336023         9.1437 
 169   0.0000       0.340040         9.2530 
 170   0.0000       0.346759         9.4358 
 171   0.0000       0.350981         9.5507 
 172   0.0000       0.351922         9.5763 
 173   0.0000       0.355616         9.6768 
 174   0.0000       0.359843         9.7918 
 175   0.0000       0.361177         9.8281 
 176   0.0000       0.364000         9.9049 
 177   0.0000       0.368758        10.0344 
 178   0.0000       0.371453        10.1077 
 179   0.0000       0.376915        10.2564 
 180   0.0000       0.380566        10.3557 
 181   0.0000       0.383980        10.4486 
 182   0.0000       0.385628        10.4935 
 183   0.0000       0.387825        10.5533 
 184   0.0000       0.391931        10.6650 
 185   0.0000       0.394247        10.7280 
 186   0.0000       0.399850        10.8805 
 187   0.0000       0.401746        10.9321 
 188   0.0000       0.404843        11.0163 
 189   0.0000       0.408487        11.1155 
 190   0.0000       0.412102        11.2139 
 191   0.0000       0.413216        11.2442 
 192   0.0000       0.416992        11.3469 
 193   0.0000       0.424955        11.5636 
 194   0.0000       0.427561        11.6345 
 195   0.0000       0.431906        11.7528 
 196   0.0000       0.434282        11.8174 
 197   0.0000       0.436326        11.8730 
 198   0.0000       0.440120        11.9763 
 199   0.0000       0.444087        12.0842 
 200   0.0000       0.446616        12.1530 
 201   0.0000       0.449144        12.2218 
 202   0.0000       0.453197        12.3321 
 203   0.0000       0.459296        12.4981 
 204   0.0000       0.462847        12.5947 
 205   0.0000       0.466154        12.6847 
 206   0.0000       0.473470        12.8838 
 207   0.0000       0.474708        12.9175 
 208   0.0000       0.476743        12.9728 
 209   0.0000       0.479432        13.0460 
 210   0.0000       0.481430        13.1004 
 211   0.0000       0.487474        13.2648 
 212   0.0000       0.488820        13.3015 
 213   0.0000       0.494021        13.4430 
 214   0.0000       0.496533        13.5113 
 215   0.0000       0.499512        13.5924 
 216   0.0000       0.500892        13.6300 
 217   0.0000       0.503502        13.7010 
 218   0.0000       0.507084        13.7985 
 219   0.0000       0.514719        14.0062 
 220   0.0000       0.516305        14.0494 
 221   0.0000       0.518701        14.1146 
 222   0.0000       0.522254        14.2113 
 223   0.0000       0.526235        14.3196 
 224   0.0000       0.527993        14.3674 
 225   0.0000       0.531171        14.4539 
 226   0.0000       0.533538        14.5183 
 227   0.0000       0.534921        14.5560 
 228   0.0000       0.539392        14.6776 
 229   0.0000       0.541313        14.7299 
 230   0.0000       0.543281        14.7834 
 231   0.0000       0.548248        14.9186 
 232   0.0000       0.553019        15.0484 
 233   0.0000       0.557041        15.1579 
 234   0.0000       0.558854        15.2072 
 235   0.0000       0.562776        15.3139 
 236   0.0000       0.571246        15.5444 
 237   0.0000       0.571765        15.5585 
 238   0.0000       0.577585        15.7169 
 239   0.0000       0.582192        15.8422 
 240   0.0000       0.583258        15.8713 
 241   0.0000       0.586501        15.9595 
 242   0.0000       0.592773        16.1302 
 243   0.0000       0.596157        16.2223 
 244   0.0000       0.599206        16.3052 
 245   0.0000       0.601439        16.3660 
 246   0.0000       0.606857        16.5134 
 247   0.0000       0.609226        16.5779 
 248   0.0000       0.614322        16.7165 
 249   0.0000       0.615618        16.7518 
 250   0.0000       0.623502        16.9664 
 251   0.0000       0.624604        16.9963 
 252   0.0000       0.627628        17.0786 
 253   0.0000       0.633673        17.2431 
 254   0.0000       0.635417        17.2906 
 255   0.0000       0.638960        17.3870 
 256   0.0000       0.644627        17.5412 
 257   0.0000       0.650267        17.6947 
 258   0.0000       0.651589        17.7306 
 259   0.0000       0.657667        17.8960 
 260   0.0000       0.662134        18.0176 
 261   0.0000       0.666174        18.1275 
 262   0.0000       0.676111        18.3979 
 263   0.0000       0.680722        18.5234 
 264   0.0000       0.682448        18.5704 
 265   0.0000       0.686432        18.6788 
 266   0.0000       0.688219        18.7274 
 267   0.0000       0.692927        18.8555 
 268   0.0000       0.696296        18.9472 
 269   0.0000       0.703602        19.1460 
 270   0.0000       0.706818        19.2335 
 271   0.0000       0.710288        19.3279 
 272   0.0000       0.713508        19.4155 
 273   0.0000       0.716661        19.5013 
 274   0.0000       0.719342        19.5743 
 275   0.0000       0.723272        19.6812 
 276   0.0000       0.728838        19.8327 
 277   0.0000       0.732537        19.9334 
 278   0.0000       0.739524        20.1235 
 279   0.0000       0.747630        20.3441 
 280   0.0000       0.752771        20.4840 
 281   0.0000       0.756569        20.5873 
 282   0.0000       0.761762        20.7286 
 283   0.0000       0.764084        20.7918 
 284   0.0000       0.771156        20.9842 
 285   0.0000       0.776763        21.1368 
 286   0.0000       0.782495        21.2928 
 287   0.0000       0.788054        21.4440 
 288   0.0000       0.796131        21.6638 
 289   0.0000       0.799081        21.7441 
 290   0.0000       0.806449        21.9446 
 291   0.0000       0.815247        22.1840 
 292   0.0000       0.816877        22.2284 
 293   0.0000       0.825971        22.4758 
 294   0.0000       0.833043        22.6682 
 295   0.0000       0.836590        22.7648 
 296   0.0000       0.842796        22.9336 
 297   0.0000       0.844384        22.9768 
 298   0.0000       0.846385        23.0313 
 299   0.0000       0.854886        23.2626 
 300   0.0000       0.855808        23.2877 
 301   0.0000       0.860308        23.4102 
 302   0.0000       0.870993        23.7009 
 303   0.0000       0.872899        23.7528 
 304   0.0000       0.878255        23.8985 
 305   0.0000       0.882758        24.0211 
 306   0.0000       0.886773        24.1303 
 307   0.0000       0.889681        24.2095 
 308   0.0000       0.897089        24.4110 
 309   0.0000       0.901423        24.5290 
 310   0.0000       0.906227        24.6597 
 311   0.0000       0.906932        24.6789 
 312   0.0000       0.915196        24.9038 
 313   0.0000       0.918623        24.9970 
 314   0.0000       0.927983        25.2517 
 315   0.0000       0.930040        25.3077 
 316   0.0000       0.931112        25.3369 
 317   0.0000       0.935739        25.4628 
 318   0.0000       0.941283        25.6136 
 319   0.0000       0.944278        25.6951 
 320   0.0000       0.950501        25.8644 
 321   0.0000       0.953431        25.9442 
 322   0.0000       0.954504        25.9734 
 323   0.0000       0.956794        26.0357 
 324   0.0000       0.958709        26.0878 
 325   0.0000       0.964982        26.2585 
 326   0.0000       0.973607        26.4932 
 327   0.0000       0.978873        26.6365 
 328   0.0000       0.983184        26.7538 
 329   0.0000       0.985928        26.8285 
 330   0.0000       0.988922        26.9099 
 331   0.0000       0.991388        26.9770 
 332   0.0000       0.993311        27.0294 
 333   0.0000       0.996695        27.1215 
 334   0.0000       1.001917        27.2635 
 335   0.0000       1.005123        27.3508 
 336   0.0000       1.007604        27.4183 
 337   0.0000       1.012800        27.5597 
 338   0.0000       1.014916        27.6173 
 339   0.0000       1.019403        27.7394 
 340   0.0000       1.021734        27.8028 
 341   0.0000       1.023375        27.8474 
 342   0.0000       1.033267        28.1166 
 343   0.0000       1.035782        28.1850 
 344   0.0000       1.037110        28.2212 
 345   0.0000       1.043070        28.3834 
 346   0.0000       1.047859        28.5137 
 347   0.0000       1.050714        28.5914 
 348   0.0000       1.052119        28.6296 
 349   0.0000       1.058282        28.7973 
 350   0.0000       1.062046        28.8997 
 351   0.0000       1.063238        28.9322 
 352   0.0000       1.067736        29.0546 
 353   0.0000       1.070322        29.1249 
 354   0.0000       1.073884        29.2219 
 355   0.0000       1.076856        29.3028 
 356   0.0000       1.084032        29.4980 
 357   0.0000       1.087205        29.5843 
 358   0.0000       1.092431        29.7266 
 359   0.0000       1.095228        29.8027 
 360   0.0000       1.098975        29.9046 
 361   0.0000       1.102994        30.0140 
 362   0.0000       1.107064        30.1247 
 363   0.0000       1.111433        30.2436 
 364   0.0000       1.115506        30.3545 
 365   0.0000       1.120763        30.4975 
 366   0.0000       1.123962        30.5846 
 367   0.0000       1.130200        30.7543 
 368   0.0000       1.132690        30.8221 
 369   0.0000       1.137856        30.9626 
 370   0.0000       1.139967        31.0201 
 371   0.0000       1.143546        31.1175 
 372   0.0000       1.147472        31.2243 
 373   0.0000       1.151555        31.3354 
 374   0.0000       1.155842        31.4521 
 375   0.0000       1.158872        31.5345 
 376   0.0000       1.166097        31.7311 
 377   0.0000       1.170631        31.8545 
 378   0.0000       1.175425        31.9849 
 379   0.0000       1.181077        32.1387 
 380   0.0000       1.186586        32.2886 
 381   0.0000       1.191550        32.4237 
 382   0.0000       1.196685        32.5635 
 383   0.0000       1.197779        32.5932 
 384   0.0000       1.205679        32.8082 
 385   0.0000       1.207795        32.8658 
 386   0.0000       1.210335        32.9349 
 387   0.0000       1.214392        33.0453 
 388   0.0000       1.219207        33.1763 
 389   0.0000       1.223755        33.3001 
 390   0.0000       1.231538        33.5119 
 391   0.0000       1.234007        33.5790 
 392   0.0000       1.242796        33.8182 
 393   0.0000       1.246365        33.9153 
 394   0.0000       1.250060        34.0159 
 395   0.0000       1.253804        34.1177 
 396   0.0000       1.259921        34.2842 
 397   0.0000       1.264107        34.3981 
 398   0.0000       1.273415        34.6514 
 399   0.0000       1.277085        34.7512 
 400   0.0000       1.279130        34.8069 
 401   0.0000       1.286112        34.9969 
 402   0.0000       1.291231        35.1362 
 403   0.0000       1.293291        35.1922 
 404   0.0000       1.303094        35.4590 
 405   0.0000       1.305576        35.5265 
 406   0.0000       1.311117        35.6773 
 407   0.0000       1.312979        35.7280 
 408   0.0000       1.319160        35.8962 
 409   0.0000       1.323887        36.0248 
 410   0.0000       1.324779        36.0491 
 411   0.0000       1.337825        36.4041 
 412   0.0000       1.339570        36.4516 
 413   0.0000       1.342385        36.5282 
 414   0.0000       1.347990        36.6807 
 415   0.0000       1.353707        36.8362 
 416   0.0000       1.359776        37.0014 
 417   0.0000       1.365432        37.1553 
 418   0.0000       1.367092        37.2005 
 419   0.0000       1.371864        37.3303 
 420   0.0000       1.378294        37.5053 
 421   0.0000       1.384484        37.6737 
 422   0.0000       1.393557        37.9206 
 423   0.0000       1.398015        38.0419 
 424   0.0000       1.405823        38.2544 
 425   0.0000       1.407057        38.2880 
 426   0.0000       1.413100        38.4524 
 427   0.0000       1.426857        38.8268 
 428   0.0000       1.429196        38.8904 
 429   0.0000       1.434412        39.0323 
 430   0.0000       1.447641        39.3923 
 431   0.0000       1.452185        39.5160 
 432   0.0000       1.454050        39.5667 
 433   0.0000       1.456928        39.6450 
 434   0.0000       1.463062        39.8119 
 435   0.0000       1.466747        39.9122 
 436   0.0000       1.467799        39.9409 
 437   0.0000       1.470927        40.0260 
 438   0.0000       1.481873        40.3238 
 439   0.0000       1.486115        40.4392 
 440   0.0000       1.486361        40.4460 
 441   0.0000       1.495674        40.6994 
 442   0.0000       1.500773        40.8381 
 443   0.0000       1.502155        40.8757 
 444   0.0000       1.509464        41.0746 
 445   0.0000       1.520894        41.3856 
 446   0.0000       1.525157        41.5016 
 447   0.0000       1.528693        41.5979 
 448   0.0000       1.531171        41.6653 
 449   0.0000       1.538156        41.8554 
 450   0.0000       1.540667        41.9237 
 451   0.0000       1.548691        42.1420 
 452   0.0000       1.552991        42.2590 
 453   0.0000       1.560614        42.4665 
 454   0.0000       1.564104        42.5614 
 455   0.0000       1.571367        42.7591 
 456   0.0000       1.571582        42.7649 
 457   0.0000       1.579845        42.9898 
 458   0.0000       1.587314        43.1930 
 459   0.0000       1.590653        43.2839 
 460   0.0000       1.594577        43.3907 
 461   0.0000       1.602246        43.5993 
 462   0.0000       1.609243        43.7897 
 463   0.0000       1.609944        43.8088 
 464   0.0000       1.615194        43.9517 
 465   0.0000       1.619709        44.0745 
 466   0.0000       1.623729        44.1839 
 467   0.0000       1.632984        44.4357 
 468   0.0000       1.635981        44.5173 
 469   0.0000       1.640348        44.6361 
 470   0.0000       1.644723        44.7552 
 471   0.0000       1.654023        45.0082 
 472   0.0000       1.659228        45.1499 
 473   0.0000       1.660710        45.1902 
 474   0.0000       1.669496        45.4293 
 475   0.0000       1.676621        45.6232 
 476   0.0000       1.678073        45.6627 
 477   0.0000       1.685169        45.8558 
 478   0.0000       1.692235        46.0481 
 479   0.0000       1.693517        46.0830 
 480   0.0000       1.697434        46.1895 
 481   0.0000       1.701921        46.3116 
 482   0.0000       1.706049        46.4240 
 483   0.0000       1.706716        46.4421 
 484   0.0000       1.716032        46.6956 
 485   0.0000       1.724253        46.9193 
 486   0.0000       1.730504        47.0894 
 487   0.0000       1.731306        47.1112 
 488   0.0000       1.738367        47.3034 
 489   0.0000       1.746321        47.5198 
 490   0.0000       1.753128        47.7050 
 491   0.0000       1.755126        47.7594 
 492   0.0000       1.762379        47.9568 
 493   0.0000       1.764268        48.0082 
 494   0.0000       1.768503        48.1234 
 495   0.0000       1.781937        48.4890 
 496   0.0000       1.788013        48.6543 
 497   0.0000       1.793998        48.8172 
 498   0.0000       1.795583        48.8603 
 499   0.0000       1.800766        49.0013 
 500   0.0000       1.805870        49.1402 
 501   0.0000       1.806790        49.1653 
 502   0.0000       1.818334        49.4794 
 503   0.0000       1.826728        49.7078 
 504   0.0000       1.831042        49.8252 
 505   0.0000       1.836371        49.9702 
 506   0.0000       1.846109        50.2352 
 507   0.0000       1.851450        50.3805 
 508   0.0000       1.856591        50.5204 
 509   0.0000       1.857119        50.5348 
 510   0.0000       1.865262        50.7564 
 511   0.0000       1.870856        50.9086 
 512   0.0000       1.871798        50.9342 
 513   0.0000       1.875300        51.0295 
 514   0.0000       1.880707        51.1767 
 515   0.0000       1.884189        51.2714 
 516   0.0000       1.888238        51.3816 
 517   0.0000       1.894773        51.5594 
 518   0.0000       1.898992        51.6742 
 519   0.0000       1.906096        51.8675 
 520   0.0000       1.908855        51.9426 
 521   0.0000       1.913167        52.0599 
 522   0.0000       1.916378        52.1473 
 523   0.0000       1.924394        52.3654 
 524   0.0000       1.925824        52.4043 
 525   0.0000       1.938140        52.7395 
 526   0.0000       1.941097        52.8199 
 527   0.0000       1.946219        52.9593 
 528   0.0000       1.954805        53.1929 
 529   0.0000       1.963049        53.4173 
 530   0.0000       1.966930        53.5229 
 531   0.0000       1.972182        53.6658 
 532   0.0000       1.975507        53.7563 
 533   0.0000       1.981737        53.9258 
 534   0.0000       1.985855        54.0379 
 535   0.0000       1.990746        54.1710 
 536   0.0000       1.994964        54.2857 
 537   0.0000       2.001693        54.4688 
 538   0.0000       2.005477        54.5718 
 539   0.0000       2.022299        55.0295 
 540   0.0000       2.028546        55.1995 
 541   0.0000       2.035742        55.3953 
 542   0.0000       2.042411        55.5768 
 543   0.0000       2.054634        55.9094 
 544   0.0000       2.055388        55.9300 
 545   0.0000       2.061771        56.1036 
 546   0.0000       2.068631        56.2903 
 547   0.0000       2.074560        56.4516 
 548   0.0000       2.080016        56.6001 
 549   0.0000       2.082611        56.6707 
 550   0.0000       2.091528        56.9134 
 551   0.0000       2.096418        57.0464 
 552   0.0000       2.107413        57.3456 
 553   0.0000       2.111906        57.4679 
 554   0.0000       2.121246        57.7220 
 555   0.0000       2.129186        57.9381 
 556   0.0000       2.133112        58.0449 
 557   0.0000       2.149957        58.5033 
 558   0.0000       2.150931        58.5298 
 559   0.0000       2.152174        58.5636 
 560   0.0000       2.164536        58.9000 
 561   0.0000       2.172145        59.1071 
 562   0.0000       2.176714        59.2314 
 563   0.0000       2.180768        59.3417 
 564   0.0000       2.184719        59.4492 
 565   0.0000       2.186952        59.5100 
 566   0.0000       2.194604        59.7182 
 567   0.0000       2.205364        60.0110 
 568   0.0000       2.211833        60.1870 
 569   0.0000       2.219422        60.3935 
 570   0.0000       2.226162        60.5769 
 571   0.0000       2.236918        60.8696 
 572   0.0000       2.248208        61.1768 
 573   0.0000       2.252449        61.2922 
 574   0.0000       2.258005        61.4434 
 575   0.0000       2.261113        61.5280 
 576   0.0000       2.269809        61.7646 
 577   0.0000       2.279001        62.0148 
 578   0.0000       2.289960        62.3130 
 579   0.0000       2.298391        62.5424 
 580   0.0000       2.303001        62.6678 
 581   0.0000       2.312395        62.9235 
 582   0.0000       2.321349        63.1671 
 583   0.0000       2.328557        63.3633 
 584   0.0000       2.330193        63.4078 
 585   0.0000       2.337982        63.6197 
 586   0.0000       2.348720        63.9119 
 587   0.0000       2.359516        64.2057 
 588   0.0000       2.364293        64.3357 
 589   0.0000       2.371887        64.5423 
 590   0.0000       2.374776        64.6209 
 591   0.0000       2.380909        64.7878 
 592   0.0000       2.390392        65.0459 
 593   0.0000       2.402651        65.3794 
 594   0.0000       2.404911        65.4410 
 595   0.0000       2.413994        65.6881 
 596   0.0000       2.428809        66.0913 
 597   0.0000       2.432396        66.1889 
 598   0.0000       2.443950        66.5033 
 599   0.0000       2.448404        66.6245 
 600   0.0000       2.451906        66.7197 
 601   0.0000       2.465050        67.0774 
 602   0.0000       2.475152        67.3523 
 603   0.0000       2.480867        67.5078 
 604   0.0000       2.496741        67.9398 
 605   0.0000       2.500486        68.0417 
 606   0.0000       2.524477        68.6945 
 607   0.0000       2.535329        68.9898 
 608   0.0000       2.539312        69.0982 
 609   0.0000       2.545798        69.2747 
 610   0.0000       2.575469        70.0821 
 611   0.0000       2.580422        70.2169 
 612   0.0000       2.596316        70.6493 
 613   0.0000       2.611476        71.0619 
 614   0.0000       2.620492        71.3072 
 615   0.0000       2.634192        71.6800 
 616   0.0000       2.641346        71.8747 
 617   0.0000       2.654913        72.2439 
 618   0.0000       2.663690        72.4827 
 619   0.0000       2.672552        72.7238 
 620   0.0000       2.685026        73.0633 
 621   0.0000       2.693221        73.2863 
 622   0.0000       2.695289        73.3425 
 623   0.0000       2.703292        73.5603 
 624   0.0000       2.704825        73.6020 
 625   0.0000       2.711955        73.7960 
 626   0.0000       2.727227        74.2116 
 627   0.0000       2.732967        74.3678 
 628   0.0000       2.741653        74.6042 
 629   0.0000       2.746356        74.7322 
 630   0.0000       2.752162        74.8901 
 631   0.0000       2.758116        75.0522 
 632   0.0000       2.763306        75.1934 
 633   0.0000       2.774757        75.5050 
 634   0.0000       2.788495        75.8788 
 635   0.0000       2.792452        75.9865 
 636   0.0000       2.799357        76.1744 
 637   0.0000       2.832262        77.0698 
 638   0.0000       2.840881        77.3043 
 639   0.0000       2.858627        77.7872 
 640   0.0000       2.871586        78.1398 
 641   0.0000       2.886892        78.5563 
 642   0.0000       2.895856        78.8002 
 643   0.0000       2.911566        79.2277 
 644   0.0000       2.925161        79.5977 
 645   0.0000       2.929439        79.7141 
 646   0.0000       2.944866        80.1339 
 647   0.0000       2.954236        80.3889 
 648   0.0000       2.968935        80.7888 
 649   0.0000       2.975578        80.9696 
 650   0.0000       2.994865        81.4944 
 651   0.0000       2.996709        81.5446 
 652   0.0000       3.018794        82.1456 
 653   0.0000       3.022620        82.2497 
 654   0.0000       3.045308        82.8671 
 655   0.0000       3.060188        83.2720 
 656   0.0000       3.083443        83.9047 
 657   0.0000       3.104465        84.4768 
 658   0.0000       3.113027        84.7098 
 659   0.0000       3.121021        84.9273 
 660   0.0000       3.149342        85.6979 
 661   0.0000       3.151865        85.7666 
 662   0.0000       3.164156        86.1011 
 663   0.0000       3.179041        86.5061 
 664   0.0000       3.183475        86.6268 
 665   0.0000       3.202170        87.1355 
 666   0.0000       3.207329        87.2759 
 667   0.0000       3.232506        87.9610 
 668   0.0000       3.241245        88.1988 
 669   0.0000       3.244331        88.2827 
 670   0.0000       3.255055        88.5746 
 671   0.0000       3.258466        88.6674 
 672   0.0000       3.264799        88.8397 
 673   0.0000       3.268253        88.9337 
 674   0.0000       3.285487        89.4027 
 675   0.0000       3.287391        89.4545 
 676   0.0000       3.305175        89.9384 
 677   0.0000       3.308946        90.0410 
 678   0.0000       3.322719        90.4158 
 679   0.0000       3.324622        90.4676 
 680   0.0000       3.337503        90.8181 
 681   0.0000       3.345643        91.0396 
 682   0.0000       3.349531        91.1454 
 683   0.0000       3.362193        91.4899 
 684   0.0000       3.371164        91.7340 
 685   0.0000       3.379082        91.9495 
 686   0.0000       3.388968        92.2185 
 687   0.0000       3.404877        92.6514 
 688   0.0000       3.413590        92.8885 
 689   0.0000       3.426075        93.2283 
 690   0.0000       3.430056        93.3366 
 691   0.0000       3.430754        93.3556 
 692   0.0000       3.441976        93.6609 
 693   0.0000       3.450872        93.9030 
 694   0.0000       3.456394        94.0533 
 695   0.0000       3.472994        94.5050 
 696   0.0000       3.478903        94.6658 
 697   0.0000       3.490518        94.9818 
 698   0.0000       3.495578        95.1195 
 699   0.0000       3.508089        95.4600 
 700   0.0000       3.511599        95.5555 
 701   0.0000       3.517290        95.7103 
 702   0.0000       3.524345        95.9023 
 703   0.0000       3.536698        96.2384 
 704   0.0000       3.538026        96.2746 
 705   0.0000       3.550076        96.6025 
 706   0.0000       3.561276        96.9073 
 707   0.0000       3.575591        97.2968 
 708   0.0000       3.586370        97.5901 
 709   0.0000       3.593730        97.7904 
 710   0.0000       3.602451        98.0277 
 711   0.0000       3.605430        98.1087 
 712   0.0000       3.622234        98.5660 
 713   0.0000       3.625595        98.6575 
 714   0.0000       3.636737        98.9606 
 715   0.0000       3.647462        99.2525 
 716   0.0000       3.652119        99.3792 
 717   0.0000       3.657345        99.5214 
 718   0.0000       3.673633        99.9646 
 719   0.0000       3.679285       100.1184 
 720   0.0000       3.686880       100.3251 
 721   0.0000       3.697379       100.6108 
 722   0.0000       3.707281       100.8803 
 723   0.0000       3.715840       101.1132 
 724   0.0000       3.721979       101.2802 
 725   0.0000       3.723940       101.3336 
 726   0.0000       3.732891       101.5771 
 727   0.0000       3.740363       101.7805 
 728   0.0000       3.747131       101.9646 
 729   0.0000       3.758680       102.2789 
 730   0.0000       3.762550       102.3842 
 731   0.0000       3.765890       102.4751 
 732   0.0000       3.768413       102.5437 
 733   0.0000       3.784560       102.9831 
 734   0.0000       3.787104       103.0523 
 735   0.0000       3.799929       103.4013 
 736   0.0000       3.806790       103.5880 
 737   0.0000       3.817064       103.8676 
 738   0.0000       3.820522       103.9617 
 739   0.0000       3.830593       104.2357 
 740   0.0000       3.837214       104.4159 
 741   0.0000       3.844515       104.6146 
 742   0.0000       3.851833       104.8137 
 743   0.0000       3.859952       105.0346 
 744   0.0000       3.866685       105.2179 
 745   0.0000       3.869469       105.2936 
 746   0.0000       3.876309       105.4797 
 747   0.0000       3.885012       105.7166 
 748   0.0000       3.888187       105.8029 
 749   0.0000       3.897988       106.0696 
 750   0.0000       3.907605       106.3313 
 751   0.0000       3.914425       106.5169 
 752   0.0000       3.921717       106.7153 
 753   0.0000       3.936596       107.1202 
 754   0.0000       3.938474       107.1713 
 755   0.0000       3.943844       107.3174 
 756   0.0000       3.947786       107.4247 
 757   0.0000       3.952512       107.5533 
 758   0.0000       3.955541       107.6357 
 759   0.0000       3.973803       108.1327 
 760   0.0000       3.987479       108.5048 
 761   0.0000       3.988667       108.5372 
 762   0.0000       3.997671       108.7822 
 763   0.0000       4.001244       108.8794 
 764   0.0000       4.009032       109.0913 
 765   0.0000       4.019874       109.3863 
 766   0.0000       4.026153       109.5572 
 767   0.0000       4.035091       109.8004 
 768   0.0000       4.041215       109.9670 
 769   0.0000       4.045184       110.0750 
 770   0.0000       4.045457       110.0825 
 771   0.0000       4.061649       110.5231 
 772   0.0000       4.065685       110.6329 
 773   0.0000       4.077472       110.9536 
 774   0.0000       4.087615       111.2297 
 775   0.0000       4.091011       111.3221 
 776   0.0000       4.100728       111.5865 
 777   0.0000       4.101900       111.6184 
 778   0.0000       4.109346       111.8210 
 779   0.0000       4.119781       112.1050 
 780   0.0000       4.125823       112.2693 
 781   0.0000       4.142052       112.7110 
 782   0.0000       4.142313       112.7181 
 783   0.0000       4.144252       112.7708 
 784   0.0000       4.170450       113.4837 
 785   0.0000       4.177188       113.6671 
 786   0.0000       4.179920       113.7414 
 787   0.0000       4.184590       113.8685 
 788   0.0000       4.192172       114.0748 
 789   0.0000       4.198917       114.2583 
 790   0.0000       4.215870       114.7197 
 791   0.0000       4.220917       114.8570 
 792   0.0000       4.228933       115.0751 
 793   0.0000       4.241626       115.4205 
 794   0.0000       4.250511       115.6623 
 795   0.0000       4.254116       115.7604 
 796   0.0000       4.260036       115.9215 
 797   0.0000       4.271862       116.2433 
 798   0.0000       4.280271       116.4721 
 799   0.0000       4.282737       116.5392 
 800   0.0000       4.289488       116.7229 
 801   0.0000       4.302452       117.0757 
 802   0.0000       4.323736       117.6548 
 803   0.0000       4.324418       117.6734 
 804   0.0000       4.337013       118.0161 
 805   0.0000       4.342397       118.1626 
 806   0.0000       4.362212       118.7018 
 807   0.0000       4.364287       118.7583 
 808   0.0000       4.369878       118.9104 
 809   0.0000       4.374990       119.0495 
 810   0.0000       4.379557       119.1738 
 811   0.0000       4.392125       119.5158 
 812   0.0000       4.410141       120.0060 
 813   0.0000       4.419992       120.2741 
 814   0.0000       4.426386       120.4481 
 815   0.0000       4.428756       120.5126 
 816   0.0000       4.444742       120.9476 
 817   0.0000       4.454326       121.2084 
 818   0.0000       4.461178       121.3948 
 819   0.0000       4.476382       121.8086 
 820   0.0000       4.484296       122.0239 
 821   0.0000       4.489487       122.1651 
 822   0.0000       4.492929       122.2588 
 823   0.0000       4.513757       122.8256 
 824   0.0000       4.516894       122.9109 
 825   0.0000       4.531019       123.2953 
 826   0.0000       4.543398       123.6322 
 827   0.0000       4.552954       123.8922 
 828   0.0000       4.561446       124.1233 
 829   0.0000       4.576727       124.5391 
 830   0.0000       4.581884       124.6794 
 831   0.0000       4.595718       125.0558 
 832   0.0000       4.609503       125.4310 
 833   0.0000       4.612382       125.5093 
 834   0.0000       4.627609       125.9236 
 835   0.0000       4.636206       126.1576 
 836   0.0000       4.643820       126.3648 
 837   0.0000       4.659542       126.7926 
 838   0.0000       4.664731       126.9338 
 839   0.0000       4.685154       127.4895 
 840   0.0000       4.695039       127.7585 
 841   0.0000       4.698042       127.8402 
 842   0.0000       4.717901       128.3806 
 843   0.0000       4.726272       128.6084 
 844   0.0000       4.736786       128.8945 
 845   0.0000       4.744300       129.0990 
 846   0.0000       4.760867       129.5498 
 847   0.0000       4.783589       130.1681 
 848   0.0000       4.794247       130.4581 
 849   0.0000       4.800512       130.6286 
 850   0.0000       4.810801       130.9086 
 851   0.0000       4.812952       130.9671 
 852   0.0000       4.822612       131.2299 
 853   0.0000       4.827419       131.3608 
 854   0.0000       4.851714       132.0219 
 855   0.0000       4.858224       132.1990 
 856   0.0000       4.866123       132.4139 
 857   0.0000       4.879401       132.7753 
 858   0.0000       4.887192       132.9873 
 859   0.0000       4.896345       133.2363 
 860   0.0000       4.906126       133.5025 
 861   0.0000       4.916357       133.7809 
 862   0.0000       4.926650       134.0610 
 863   0.0000       4.950991       134.7233 
 864   0.0000       4.960433       134.9803 
 865   0.0000       4.969635       135.2306 
 866   0.0000       4.979228       135.4917 
 867   0.0000       4.989162       135.7620 
 868   0.0000       5.004371       136.1759 
 869   0.0000       5.010329       136.3380 
 870   0.0000       5.019077       136.5760 
 871   0.0000       5.034714       137.0015 
 872   0.0000       5.043055       137.2285 
 873   0.0000       5.058334       137.6443 
 874   0.0000       5.072787       138.0375 
 875   0.0000       5.085274       138.3773 
 876   0.0000       5.096067       138.6710 
 877   0.0000       5.115919       139.2112 
 878   0.0000       5.124015       139.4315 
 879   0.0000       5.130900       139.6189 
 880   0.0000       5.145215       140.0084 
 881   0.0000       5.161085       140.4403 
 882   0.0000       5.170213       140.6887 
 883   0.0000       5.185050       141.0924 
 884   0.0000       5.198594       141.4609 
 885   0.0000       5.207196       141.6950 
 886   0.0000       5.222566       142.1132 
 887   0.0000       5.225392       142.1901 
 888   0.0000       5.231792       142.3643 
 889   0.0000       5.251045       142.8882 
 890   0.0000       5.268620       143.3665 
 891   0.0000       5.280618       143.6929 
 892   0.0000       5.308547       144.4529 
 893   0.0000       5.314980       144.6280 
 894   0.0000       5.327665       144.9731 
 895   0.0000       5.334165       145.1500 
 896   0.0000       5.341862       145.3595 
 897   0.0000       5.351087       145.6105 
 898   0.0000       5.357159       145.7757 
 899   0.0000       5.377992       146.3426 
 900   0.0000       5.386844       146.5835 
 901   0.0000       5.410056       147.2151 
 902   0.0000       5.411999       147.2680 
 903   0.0000       5.426429       147.6606 
 904   0.0000       5.440979       148.0566 
 905   0.0000       5.445103       148.1688 
 906   0.0000       5.462189       148.6337 
 907   0.0000       5.470915       148.8712 
 908   0.0000       5.472279       148.9083 
 909   0.0000       5.504443       149.7835 
 910   0.0000       5.514502       150.0572 
 911   0.0000       5.520132       150.2104 
 912   0.0000       5.542622       150.8224 
 913   0.0000       5.548353       150.9784 
 914   0.0000       5.556256       151.1934 
 915   0.0000       5.579724       151.8320 
 916   0.0000       5.588182       152.0622 
 917   0.0000       5.594778       152.2416 
 918   0.0000       5.608150       152.6055 
 919   0.0000       5.617176       152.8511 
 920   0.0000       5.630184       153.2051 
 921   0.0000       5.642893       153.5509 
 922   0.0000       5.653572       153.8415 
 923   0.0000       5.672440       154.3549 
 924   0.0000       5.681569       154.6033 
 925   0.0000       5.685777       154.7179 
 926   0.0000       5.694256       154.9486 
 927   0.0000       5.704325       155.2226 
 928   0.0000       5.719110       155.6249 
 929   0.0000       5.737304       156.1200 
 930   0.0000       5.758262       156.6903 
 931   0.0000       5.780984       157.3086 
 932   0.0000       5.787326       157.4812 
 933   0.0000       5.795551       157.7050 
 934   0.0000       5.818055       158.3173 
 935   0.0000       5.820104       158.3731 
 936   0.0000       5.839589       158.9033 
 937   0.0000       5.848234       159.1385 
 938   0.0000       5.852265       159.2482 
 939   0.0000       5.858080       159.4065 
 940   0.0000       5.898696       160.5117 
 941   0.0000       5.901879       160.5983 
 942   0.0000       5.933674       161.4635 
 943   0.0000       5.941296       161.6709 
 944   0.0000       5.951631       161.9521 
 945   0.0000       5.984315       162.8415 
 946   0.0000       6.009344       163.5226 
 947   0.0000       6.050189       164.6340 
 948   0.0000       6.103710       166.0904 
 949   0.0000       6.124258       166.6495 
 950   0.0000       6.151611       167.3939 
 951   0.0000       6.174809       168.0251 
 952   0.0000       6.187979       168.3835 
 953   0.0000       6.197113       168.6320 
 954   0.0000       6.213768       169.0852 
 955   0.0000       6.239807       169.7938 
 956   0.0000       6.245155       169.9393 
 957   0.0000       6.257505       170.2754 
 958   0.0000       6.277187       170.8109 
 959   0.0000       6.291246       171.1935 
 960   0.0000       6.299831       171.4271 
 961   0.0000       6.315975       171.8664 
 962   0.0000       6.348826       172.7603 
 963   0.0000       6.358512       173.0239 
 964   0.0000       6.385591       173.7608 
 965   0.0000       6.414059       174.5354 
 966   0.0000       6.422953       174.7774 
 967   0.0000       6.438842       175.2098 
 968   0.0000       6.460237       175.7920 
 969   0.0000       6.494973       176.7372 
 970   0.0000       6.568228       178.7306 
 971   0.0000       6.738459       183.3628 
 972   0.0000       6.805422       185.1850 
 973   0.0000       6.857165       186.5929 
 974   0.0000       6.889991       187.4862 
 975   0.0000       6.909756       188.0240 
 976   0.0000       6.936435       188.7500 
 977   0.0000       6.943742       188.9488 
 978   0.0000       6.978490       189.8944 
 979   0.0000       7.000281       190.4873 
 980   0.0000       7.032329       191.3594 
 981   0.0000       7.060587       192.1283 
 982   0.0000       7.084960       192.7916 
 983   0.0000       7.106796       193.3858 
 984   0.0000       7.192976       195.7308 
 985   0.0000       7.302622       198.7145 
 986   0.0000       7.315529       199.0657 
 987   0.0000       7.403472       201.4587 
 988   0.0000       7.433955       202.2882 
 989   0.0000       7.531785       204.9503 
 990   0.0000       7.560014       205.7184 
 991   0.0000       7.619948       207.3493 
 992   0.0000       7.734625       210.4699 
 993   0.0000       7.785260       211.8477 
 994   0.0000       7.831637       213.1097 
 995   0.0000       7.882870       214.5038 
 996   0.0000       8.075672       219.7502 
 997   0.0000       8.158895       222.0148 
 998   0.0000       8.387616       228.2386 
 999   0.0000       9.456060       257.3125 
 1000   0.0000       9.467168       257.6147 
 1001   0.0000       9.481567       258.0066 
 1002   0.0000       9.494607       258.3614 
 1003   0.0000       9.499713       258.5003 
 1004   0.0000       9.530711       259.3438 
 1005   0.0000       9.789539       266.3869 
 1006   0.0000      10.116885       275.2944 
 1007   0.0000      10.137854       275.8650 
 1008   0.0000      10.163059       276.5509 
 1009   0.0000      10.236816       278.5579 
 1010   0.0000      10.243978       278.7528 
 1011   0.0000      10.268065       279.4083 
 1012   0.0000      10.425362       283.6885 
 1013   0.0000      10.446610       284.2667 
 1014   0.0000      10.586680       288.0782 
 1015   0.0000      16.866809       458.9692 
 1016   0.0000      17.792464       484.1576 
 1017   0.0000      18.233216       496.1510 
 1018   0.0000      18.487349       503.0663 
 1019   0.0000      18.830259       512.3974 
 1020   0.0000      18.925862       514.9989 
 1021   0.0000      19.092996       519.5468 
 1022   0.0000      19.521238       531.1999 
 1023   0.0000      20.326856       553.1219 
 1024   0.0000      21.773598       592.4897 

                 SPIN DOWN ORBITALS
  NO   OCC          E(Eh)            E(eV) 
   0   1.0000    -261.532914     -7116.6724 
   1   1.0000    -104.763853     -2850.7694 
   2   1.0000    -104.762718     -2850.7385 
   3   1.0000    -104.760432     -2850.6763 
   4   1.0000     -32.042311      -871.9156 
   5   1.0000     -27.520397      -748.8681 
   6   1.0000     -27.520232      -748.8636 
   7   1.0000     -27.519725      -748.8498 
   8   1.0000     -20.528238      -558.6018 
   9   1.0000     -11.407718      -310.4198 
  10   1.0000     -11.341199      -308.6097 
  11   1.0000     -11.312828      -307.8377 
  12   1.0000     -11.293433      -307.3099 
  13   1.0000     -11.282650      -307.0165 
  14   1.0000     -11.256340      -306.3006 
  15   1.0000     -11.244038      -305.9658 
  16   1.0000     -11.231676      -305.6294 
  17   1.0000     -10.490364      -285.4573 
  18   1.0000     -10.489196      -285.4255 
  19   1.0000     -10.486940      -285.3641 
  20   1.0000      -7.956257      -216.5008 
  21   1.0000      -7.955719      -216.4861 
  22   1.0000      -7.955647      -216.4842 
  23   1.0000      -7.955159      -216.4709 
  24   1.0000      -7.954538      -216.4540 
  25   1.0000      -7.954430      -216.4511 
  26   1.0000      -7.952887      -216.4091 
  27   1.0000      -7.952223      -216.3910 
  28   1.0000      -7.952145      -216.3889 
  29   1.0000      -4.117615      -112.0460 
  30   1.0000      -2.639530       -71.8253 
  31   1.0000      -2.639435       -71.8227 
  32   1.0000      -2.638506       -71.7974 
  33   1.0000      -1.348012       -36.6813 
  34   1.0000      -1.206916       -32.8418 
  35   1.0000      -1.089392       -29.6439 
  36   1.0000      -1.047404       -28.5013 
  37   1.0000      -1.024051       -27.8658 
  38   1.0000      -1.021209       -27.7885 
  39   1.0000      -1.010731       -27.5034 
  40   1.0000      -1.008644       -27.4466 
  41   1.0000      -0.965387       -26.2695 
  42   1.0000      -0.932482       -25.3741 
  43   1.0000      -0.813562       -22.1381 
  44   1.0000      -0.776007       -21.1162 
  45   1.0000      -0.719177       -19.5698 
  46   1.0000      -0.698555       -19.0086 
  47   1.0000      -0.680039       -18.5048 
  48   1.0000      -0.650218       -17.6933 
  49   1.0000      -0.647093       -17.6083 
  50   1.0000      -0.636996       -17.3335 
  51   1.0000      -0.614202       -16.7133 
  52   1.0000      -0.600753       -16.3473 
  53   1.0000      -0.593460       -16.1489 
  54   1.0000      -0.580697       -15.8016 
  55   1.0000      -0.573485       -15.6053 
  56   1.0000      -0.561569       -15.2811 
  57   1.0000      -0.551819       -15.0158 
  58   1.0000      -0.538779       -14.6609 
  59   1.0000      -0.526598       -14.3295 
  60   1.0000      -0.511428       -13.9167 
  61   1.0000      -0.492035       -13.3890 
  62   1.0000      -0.459443       -12.5021 
  63   1.0000      -0.457188       -12.4407 
  64   1.0000      -0.442754       -12.0480 
  65   1.0000      -0.437887       -11.9155 
  66   1.0000      -0.426443       -11.6041 
  67   1.0000      -0.423120       -11.5137 
  68   1.0000      -0.422276       -11.4907 
  69   1.0000      -0.401286       -10.9195 
  70   1.0000      -0.394458       -10.7338 
  71   1.0000      -0.388717       -10.5775 
  72   0.0000      -0.008300        -0.2259 
  73   0.0000      -0.000685        -0.0186 
  74   0.0000       0.016101         0.4381 
  75   0.0000       0.016593         0.4515 
  76   0.0000       0.026234         0.7139 
  77   0.0000       0.036629         0.9967 
  78   0.0000       0.037356         1.0165 
  79   0.0000       0.040672         1.1067 
  80   0.0000       0.043492         1.1835 
  81   0.0000       0.049593         1.3495 
  82   0.0000       0.056902         1.5484 
  83   0.0000       0.058437         1.5902 
  84   0.0000       0.059523         1.6197 
  85   0.0000       0.061717         1.6794 
  86   0.0000       0.064321         1.7503 
  87   0.0000       0.071173         1.9367 
  88   0.0000       0.074193         2.0189 
  89   0.0000       0.079403         2.1607 
  90   0.0000       0.085769         2.3339 
  91   0.0000       0.089343         2.4311 
  92   0.0000       0.090363         2.4589 
  93   0.0000       0.092525         2.5177 
  94   0.0000       0.095853         2.6083 
  95   0.0000       0.100082         2.7234 
  96   0.0000       0.105243         2.8638 
  97   0.0000       0.113163         3.0793 
  98   0.0000       0.113672         3.0932 
  99   0.0000       0.119308         3.2465 
 100   0.0000       0.121847         3.3156 
 101   0.0000       0.128423         3.4946 
 102   0.0000       0.130182         3.5424 
 103   0.0000       0.131128         3.5682 
 104   0.0000       0.133244         3.6258 
 105   0.0000       0.136457         3.7132 
 106   0.0000       0.137982         3.7547 
 107   0.0000       0.139973         3.8089 
 108   0.0000       0.143065         3.8930 
 109   0.0000       0.143266         3.8985 
 110   0.0000       0.147079         4.0022 
 111   0.0000       0.149109         4.0575 
 112   0.0000       0.149635         4.0718 
 113   0.0000       0.153537         4.1780 
 114   0.0000       0.156257         4.2520 
 115   0.0000       0.157830         4.2948 
 116   0.0000       0.159299         4.3347 
 117   0.0000       0.160810         4.3759 
 118   0.0000       0.161431         4.3928 
 119   0.0000       0.164004         4.4628 
 120   0.0000       0.165119         4.4931 
 121   0.0000       0.169563         4.6140 
 122   0.0000       0.175510         4.7759 
 123   0.0000       0.178064         4.8454 
 124   0.0000       0.180633         4.9153 
 125   0.0000       0.186093         5.0639 
 126   0.0000       0.188850         5.1389 
 127   0.0000       0.192156         5.2288 
 128   0.0000       0.197016         5.3611 
 129   0.0000       0.204508         5.5650 
 130   0.0000       0.206561         5.6208 
 131   0.0000       0.209828         5.7097 
 132   0.0000       0.216267         5.8849 
 133   0.0000       0.220225         5.9926 
 134   0.0000       0.222291         6.0489 
 135   0.0000       0.222814         6.0631 
 136   0.0000       0.226853         6.1730 
 137   0.0000       0.229468         6.2441 
 138   0.0000       0.230708         6.2779 
 139   0.0000       0.233856         6.3636 
 140   0.0000       0.239768         6.5244 
 141   0.0000       0.240502         6.5444 
 142   0.0000       0.243611         6.6290 
 143   0.0000       0.249995         6.8027 
 144   0.0000       0.251428         6.8417 
 145   0.0000       0.253040         6.8856 
 146   0.0000       0.258765         7.0413 
 147   0.0000       0.263308         7.1650 
 148   0.0000       0.266104         7.2411 
 149   0.0000       0.270091         7.3495 
 150   0.0000       0.276863         7.5338 
 151   0.0000       0.277875         7.5614 
 152   0.0000       0.282846         7.6966 
 153   0.0000       0.286511         7.7963 
 154   0.0000       0.292173         7.9504 
 155   0.0000       0.294080         8.0023 
 156   0.0000       0.300766         8.1843 
 157   0.0000       0.305107         8.3024 
 158   0.0000       0.306400         8.3376 
 159   0.0000       0.311669         8.4809 
 160   0.0000       0.314091         8.5468 
 161   0.0000       0.320222         8.7137 
 162   0.0000       0.322178         8.7669 
 163   0.0000       0.324272         8.8239 
 164   0.0000       0.327107         8.9010 
 165   0.0000       0.330412         8.9910 
 166   0.0000       0.332643         9.0517 
 167   0.0000       0.334072         9.0906 
 168   0.0000       0.344552         9.3757 
 169   0.0000       0.344923         9.3858 
 170   0.0000       0.348719         9.4891 
 171   0.0000       0.352653         9.5962 
 172   0.0000       0.356112         9.6903 
 173   0.0000       0.357941         9.7401 
 174   0.0000       0.360983         9.8229 
 175   0.0000       0.362393         9.8612 
 176   0.0000       0.369469        10.0538 
 177   0.0000       0.371421        10.1069 
 178   0.0000       0.375774        10.2253 
 179   0.0000       0.381138        10.3713 
 180   0.0000       0.382953        10.4207 
 181   0.0000       0.388937        10.5835 
 182   0.0000       0.389784        10.6066 
 183   0.0000       0.392404        10.6778 
 184   0.0000       0.399144        10.8613 
 185   0.0000       0.400375        10.8948 
 186   0.0000       0.404075        10.9954 
 187   0.0000       0.405281        11.0283 
 188   0.0000       0.409213        11.1353 
 189   0.0000       0.412170        11.2157 
 190   0.0000       0.415619        11.3096 
 191   0.0000       0.417682        11.3657 
 192   0.0000       0.419961        11.4277 
 193   0.0000       0.429524        11.6879 
 194   0.0000       0.430084        11.7032 
 195   0.0000       0.434913        11.8346 
 196   0.0000       0.438615        11.9353 
 197   0.0000       0.440915        11.9979 
 198   0.0000       0.444236        12.0883 
 199   0.0000       0.447910        12.1883 
 200   0.0000       0.450821        12.2675 
 201   0.0000       0.456443        12.4204 
 202   0.0000       0.460123        12.5206 
 203   0.0000       0.462947        12.5974 
 204   0.0000       0.465251        12.6601 
 205   0.0000       0.469431        12.7739 
 206   0.0000       0.475015        12.9258 
 207   0.0000       0.478222        13.0131 
 208   0.0000       0.479949        13.0601 
 209   0.0000       0.481587        13.1046 
 210   0.0000       0.486934        13.2502 
 211   0.0000       0.489662        13.3244 
 212   0.0000       0.493126        13.4186 
 213   0.0000       0.500300        13.6139 
 214   0.0000       0.501738        13.6530 
 215   0.0000       0.503958        13.7134 
 216   0.0000       0.504600        13.7309 
 217   0.0000       0.508662        13.8414 
 218   0.0000       0.514766        14.0075 
 219   0.0000       0.516518        14.0552 
 220   0.0000       0.519908        14.1474 
 221   0.0000       0.523451        14.2438 
 222   0.0000       0.526697        14.3322 
 223   0.0000       0.528431        14.3793 
 224   0.0000       0.530475        14.4350 
 225   0.0000       0.533832        14.5263 
 226   0.0000       0.536655        14.6031 
 227   0.0000       0.540203        14.6997 
 228   0.0000       0.542984        14.7753 
 229   0.0000       0.545115        14.8333 
 230   0.0000       0.547299        14.8928 
 231   0.0000       0.554335        15.0842 
 232   0.0000       0.555258        15.1093 
 233   0.0000       0.558897        15.2084 
 234   0.0000       0.561621        15.2825 
 235   0.0000       0.564539        15.3619 
 236   0.0000       0.574421        15.6308 
 237   0.0000       0.576075        15.6758 
 238   0.0000       0.578903        15.7528 
 239   0.0000       0.585064        15.9204 
 240   0.0000       0.587025        15.9738 
 241   0.0000       0.587541        15.9878 
 242   0.0000       0.594451        16.1758 
 243   0.0000       0.597830        16.2678 
 244   0.0000       0.601424        16.3656 
 245   0.0000       0.604022        16.4363 
 246   0.0000       0.608195        16.5498 
 247   0.0000       0.610048        16.6003 
 248   0.0000       0.615676        16.7534 
 249   0.0000       0.617594        16.8056 
 250   0.0000       0.624791        17.0014 
 251   0.0000       0.626814        17.0565 
 252   0.0000       0.629847        17.1390 
 253   0.0000       0.635619        17.2961 
 254   0.0000       0.636436        17.3183 
 255   0.0000       0.641791        17.4640 
 256   0.0000       0.647162        17.6102 
 257   0.0000       0.652628        17.7589 
 258   0.0000       0.655123        17.8268 
 259   0.0000       0.660031        17.9604 
 260   0.0000       0.665210        18.1013 
 261   0.0000       0.668597        18.1934 
 262   0.0000       0.677968        18.4484 
 263   0.0000       0.682620        18.5750 
 264   0.0000       0.686749        18.6874 
 265   0.0000       0.689258        18.7557 
 266   0.0000       0.692000        18.8303 
 267   0.0000       0.696137        18.9429 
 268   0.0000       0.697916        18.9913 
 269   0.0000       0.707637        19.2558 
 270   0.0000       0.711002        19.3473 
 271   0.0000       0.714313        19.4374 
 272   0.0000       0.718090        19.5402 
 273   0.0000       0.718302        19.5460 
 274   0.0000       0.722300        19.6548 
 275   0.0000       0.725690        19.7470 
 276   0.0000       0.734384        19.9836 
 277   0.0000       0.735363        20.0103 
 278   0.0000       0.742829        20.2134 
 279   0.0000       0.750887        20.4327 
 280   0.0000       0.757156        20.6033 
 281   0.0000       0.758013        20.6266 
 282   0.0000       0.765888        20.8409 
 283   0.0000       0.773363        21.0443 
[...]
  | Av. % of trace(Dpq) retained        ...  99.517903752316
  | sigma^2 in % of trace(Dij) retained ...   8.69e+00
  | sigma^2 in % of trace(Dip) retained ...   1.81e+01
  | sigma^2 in % of trace(Dpq) retained ...   1.31e-01
  | Av. % of trace(Di) retained         ...  99.998471766473
  | Av. % of trace(Dp) retained         ...  99.999998523940
  | sigma^2 in % of trace(Di) retained  ...   8.28e-07
  | sigma^2 in % of trace(Dp) retained  ...   2.92e-12
 Distributions of % trace(Dij) recovered:
  |       >= 99.9  ...   105 ( 20.8 % of all IJ-pairs)
  |   [80.0, 90.0) ...    35 (  6.9 % of all IJ-pairs)
  |   [90.0, 99.0) ...   276 ( 54.5 % of all IJ-pairs)
  |   [99.0, 99.9) ...    90 ( 17.8 % of all IJ-pairs)
 Distributions of % trace(Dip) recovered:
  |   [80.0, 90.0) ...    14 ( 11.8 % of all IP-pairs)
  |   [90.0, 99.0) ...    62 ( 52.1 % of all IP-pairs)
  |   [99.0, 99.9) ...    43 ( 36.1 % of all IP-pairs)
 Distributions of % trace(Dpq) recovered:
  |       >= 99.9  ...     5 ( 33.3 % of all PQ-pairs)
  |   [99.0, 99.9) ...    10 ( 66.7 % of all PQ-pairs)
 Distributions of % trace(Di) recovered :
  |       >= 99.9  ...    43 (100.0 % of all I-pairs )
 Distributions of % trace(Dp) recovered :
  |       >= 99.9  ...     5 (100.0 % of all P-pairs )

                       ===========================
                       1113 OF 1663 PAIRS ARE KEPT
                       ===========================

 Initial PAO correlation energy (all pairs)    ...  -2.6932492384 Eh
 Energy constituents in PAO basis (Eh):
  | Vijab(+0) ...  -2.2632827183
  | Viab (-1) ...  -0.1755865814
  | Vab  (-2) ...  -0.0573708726
  | Va   (-1) ...  -0.0000418262
  | Vija (+1) ...  -0.0730605408
  | Vij  (+2) ...  -0.0155101763
  | Via  (+0) ...  -0.1082365981
  | Vi   (+1) ...  -0.0001599248
 Initial PNO correlation energy                ...  -2.6594588220 Eh
 Energy constituents in PNO basis (Eh):
  | Vijab(+0) ...  -2.2453421412 (err=  0.0179405771)
  | Viab (-1) ...  -0.1613325022 (err=  0.0142540791)
  | Vab  (-2) ...  -0.0569032901 (err=  0.0004675826)
  | Va   (-1) ...  -0.0000238909 (err=  0.0000179353)
  | Vija (+1) ...  -0.0721015795 (err=  0.0009589613)
  | Vij  (+2) ...  -0.0154640369 (err=  0.0000461395)
  | Via  (+0) ...  -0.1081317957 (err=  0.0001048024)
  | Vi   (+1) ...  -0.0001595856 (err=  0.0000003392)
 Sum of total truncation errors ...   0.0337904164 Eh
  | Pair screening ...   0.0106225639 Eh
  | PNO truncation ...   0.0231678525 Eh

 UMP2 correlation energy (PAO) ...  -2.6883409454
  | alpha-alpha ...  -0.3869023996 (NP_aa=  900)
  | alpha-beta  ...  -1.9940339870 (NP_ab= 1638)
  | beta -beta  ...  -0.3074045588 (NP_bb=  705)
 UMP2 correlation energy (PNO) ...  -2.6541856855
  | alpha-alpha ...  -0.3749922306 (err=  0.0119101690, NP_aa=  592)
  | alpha-beta  ...  -1.9756421834 (err=  0.0183918036, NP_ab= 1088)
  | beta -beta  ...  -0.3035512714 (err=  0.0038532874, NP_bb=  463)
 Sum of total UMP2 truncation errors ...   0.0341552599 Eh
  | Pair screening ...   0.0106339037 Eh
  | PNO truncation ...   0.0235213562 Eh
 Timing for NEV-PNO construction (sec.)
  | Intermediate construction  ..           50.877
  | Amplitude construction     ..           66.523
  | Total time                 ..          117.400
 Making pair pair interaction lists ...      ok
 Total size for 2-ext PNO integrals ...     11.0 MB
Checking the number of SOMO/SOMO doubles PNOs ... 
 #Truncate: (72, 72)[166] -> [86] .. 
 #Truncate: (73, 73)[168] -> [86] .. 
 #Truncate: (74, 74)[165] -> [86] .. 
 #Truncate: (75, 75)[166] -> [86] .. 
 #Truncate: (76, 76)[166] -> [86] .. 

--------------------------------
LOCAL RI TRANSFORMATION (VABPAO)
--------------------------------

Number of PAOs:    1030
Basis functions:   1025 (343 shells)
Aux. functions:    2424 (644 shells)

Processing maps (0.0 sec)
Average map sizes:
   Aux shells -> PAOs           1030.0
   PAOs       -> AO shells       343.0

Calculating integrals (194.3 sec, 37370.165 MB)
Finished
-----------------------------
LOCAL RI TRANSFORMATION (IJV)
-----------------------------

Orbital window:      29 to 76
Basis functions:   1025 (343 shells)
Aux. functions:    2424 (644 shells)

Processing maps (0.0 sec)
Average map sizes:
   Aux shells -> MOs(i)           45.6
   Aux shells -> MOs(j)           48.0
   MOs        -> AO shells       338.5

Calculating integrals (22.3 sec, 40.604 MB)
Sorting integrals (0.3 sec, 40.577 MB)
Total time for the integral transformation: 22.6 sec


-------------------------------------
Pair Pair Term precalculation with     
RI-(ij|mn) and (im|jn) transformation  
ON THE FLY                             
-------------------------------------

   IBatch   1 (of   2)              ... done ( 1137.664 sec)
   IBatch   2 (of   2)              ... done (  944.644 sec)
Total EXT                           ...        2082.308 sec

---------------------
RI-PNO TRANSFORMATION
---------------------

Total Number of PNOs                   ... 34947
Total Number of IJ-PNOs                ... 30750
Total Number of IP-PNOs                ...  3243
Total Number of PQ-PNOs                ...   954
Total Number of IJ-pairs               ...   969
Total Number of PI-pairs               ...   119
Total Number of PQ-pairs               ...    25
Average number of PNOs per pair        ...    31
Maximal number of PNOs per pair        ...    86
>> Statistics for ij-pairs..
   #pairs with  1 -  5 PNOs   :    0
   #pairs with  6 - 10 PNOs   :    0
   #pairs with 11 - 15 PNOs   :   52
   #pairs with 16 - 20 PNOs   :  216
   #pairs with 21 - 25 PNOs   :  172
   #pairs with 26 - 30 PNOs   :  160
   #pairs with 31 - 35 PNOs   :   74
   #pairs with 36 - 40 PNOs   :   50
   #pairs with 41 - 45 PNOs   :   58
   #pairs with 46 - 50 PNOs   :   17
   #pairs with 51 - 55 PNOs   :   40
   #pairs with 56 - 60 PNOs   :   45
   #pairs with 61 - 65 PNOs   :   72
   #pairs with 66 - 70 PNOs   :   13
>> Statistics for ip-pairs..
   #pairs with  1 -  5 PNOs   :    0
   #pairs with  6 - 10 PNOs   :    2
   #pairs with 11 - 15 PNOs   :   17
   #pairs with 16 - 20 PNOs   :    4
   #pairs with 21 - 25 PNOs   :   22
   #pairs with 26 - 30 PNOs   :   12
   #pairs with 31 - 35 PNOs   :   50
   #pairs with 36 - 40 PNOs   :   12
   #pairs with 41 - 45 PNOs   :    0
   #pairs with 46 - 50 PNOs   :    0
>> Statistics for pq-pairs..
   #pairs with  1 -  5 PNOs   :    0
   #pairs with  6 - 10 PNOs   :    0
   #pairs with 11 - 15 PNOs   :    0
   #pairs with 16 - 20 PNOs   :    0
   #pairs with 21 - 25 PNOs   :   10
   #pairs with 26 - 30 PNOs   :   10
   #pairs with 31 - 35 PNOs   :    0
   #pairs with 36 - 40 PNOs   :    0
   #pairs with 41 - 45 PNOs   :    0
   #pairs with 46 - 50 PNOs   :    0
   #pairs with 86 - 90 PNOs   :    5

Generation of (ij|ab)[P] integrals            ... on
Generation of (ia|bc)[P],(ja|bc)[P] integrals ... on
Storage of 3 and 4 external integrals         ... on
Generation of ALL (ka|bc)[P] integrals        ... on
Keep RI integrals in memory                   ... off

Ibatch:  1 (of  1)
Starting 2-4 index PNO integral generation ... done

Timings:
Total PNO integral transformation time     ...       2048.877 sec
Size of the 3-external file                ...       289 MB
Size of the 4-external file                ...      1960 MB
Size of the IKJL file                      ...        18 MB
Size of the all 3-external file            ...      6956 MB
Size of the 1-external file                ...        22 MB

Size of the PAO/PNO coefficient matrices   ...     226.0 MB

Making pair/pair overlap matrices          ... done (  327.538 sec)
Size of the pair overlap file              ...    2486.0 MB
Total # unrestricted pairs ...       2143
  # of alpha-alpha pairs   ...        592
  # of alpha-beta pairs    ...       1088
  # of beta-beta pairs     ...        463
Constructing the guess amplitudes          ... done (    0.606 sec)

-------------------------
FINAL STARTUP INFORMATION
-------------------------

E(0)                                       ...  -3028.425173939
E(SL-UMP2 in NEV-PNO space)                ...     -2.689336499
Initial E(tot)                             ...  -3031.114510439
<T|T>                                      ...      0.532698737
Number of unrestricted pairs included      ... 2143
Total number of pairs                      ... 4095
----------------------------------------------------------
                     OPEN-SHELL COUPLED CLUSTER ITERATIONS
----------------------------------------------------------

Number of PNO amplitudes to be optimized        ...          2147897
Number of canonical amplitudes for strong pairs ...       1935567090
Untruncated number of canonical amplitudes      ...       3698645738

Iter       E(tot)           E(Corr)          Delta-E          Residual     Time
  0  -3031.121698996     -2.661374243      0.027962257      0.021515878 1849.23
                           *** Turning on DIIS ***
  1  -3031.235321365     -2.774996612     -0.113622370      0.009044040 1819.52
  2  -3031.299300651     -2.838975898     -0.063979286      0.008687308 1966.32
  3  -3031.320199650     -2.859874897     -0.020898999      0.003438846 2133.48
  4  -3031.327343894     -2.867019141     -0.007144244      0.002673206 2139.11
  5  -3031.331033191     -2.870708438     -0.003689297      0.002051511 2156.77
  6  -3031.332400789     -2.872076036     -0.001367598      0.000898762 2133.39
  7  -3031.333198521     -2.872873768     -0.000797733      0.000449248 2139.78
  8  -3031.333350655     -2.873025902     -0.000152134      0.000183887 2128.51
  9  -3031.333396416     -2.873071663     -0.000045761      0.000109826 2146.52
 10  -3031.333393475     -2.873068722      0.000002942      0.000074829 2135.79
 11  -3031.333403249     -2.873078496     -0.000009774      0.000042672 2104.89
 12  -3031.333408788     -2.873084035     -0.000005539      0.000025755 2114.73
 13  -3031.333410799     -2.873086046     -0.000002010      0.000014459 2101.52
 14  -3031.333411098     -2.873086345     -0.000000300      0.000007981 2119.12
               --- The CCSD iterations have converged ---

E(0)                                       ...  -3028.425173939
E(CORR)(strong-pairs)                      ...     -2.873086345
E(CORR)(weak-pairs)                        ...     -0.035150814
E(CORR)(corrected)                         ...     -2.908237159
E(TOT)                                     ...  -3031.333411098
Singles norm <S|S>**1/2                    ...      0.196198568 ( 0.069640758, 0.126557810)  
T1 diagnostic                              ...      0.020567198                              
<S**2>(linearized)                         ...      8.7507293 (ideal value:      8.7500000)

----------------------
LARGEST PNO AMPLITUDES
----------------------
  51b-> 73b  -1b-> -1b       0.055545
  52b-> 73b  -1b-> -1b       0.048047
  29b-> 73b  -1b-> -1b       0.047726
  49b-> 72b  -1b-> -1b       0.047134
  49b-> 74b  -1b-> -1b       0.046358
  67a-> 77a  67b-> 77b       0.044085
  63a-> 77a  63b-> 77b       0.043805
  59a-> 77a  59b-> 77b       0.043580
  69a-> 77a  69b-> 77b       0.043149
  53a-> 77a  53b-> 77b       0.043087
  49b-> 75b  -1b-> -1b       0.043085
  62a-> 77a  62b-> 77b       0.042844
  30b-> 77b  -1b-> -1b       0.042748
  30a-> 77a  -1a-> -1a       0.042417
  66a-> 77a  66b-> 77b       0.042272
  45a-> 77a  -1a-> -1a       0.042170

Total # unrestricted pairs ...       1100
  # of alpha-alpha pairs   ...        308
  # of alpha-beta pairs    ...        550
  # of beta-beta pairs     ...        242

-------------------------------------------
DLPNO BASED TRIPLES CORRECTION
-------------------------------------------

Singles multiplier          ...  1.000000
Fragment selection                          .... not used
TCutTNO                     ... 1.000e-09
TCutMP2Pairs                ... 1.000e-05
TCutDOStrong                ... 2.000e-02
TCutMKNStrong               ... 1.000e-02
TCutDOWeak                  ... 4.000e-02
TCutMKNWeak                 ... 1.000e-01
NTCutTNO                    ... 1

Number of Triples that are to be computed         ...     33908

 . . . . . . . . .
10% done  
20% done  
30% done  
40% done  
50% done  
60% done  
70% done  
80% done  
90% done  
          Batch   1   done (  16407.808 sec)

Triples-Correction TCutTNO=   1.000e-09 (NWeakPairs = 0  1  2  3)  -0.116861965501   -0.001810615949    0.000000000000    0.000000000000
Triples-Correction  -0.118672581451

Triples timings:
Total time                      ... 17084.402 sec

Triples List generation         ...     0.000 sec
TNO generation                  ...   676.352 sec
Pair density generation         ...     0.089 sec
Look up tables                  ...     0.111 sec
Generating 3-index integrals    ... 10507.892 sec
Make 4-ind.int. from 3-ind.int  ...     3.964 sec
Projecting amplitudes (D + S)   ...  5617.518 sec
Sorting integrals for spin cases...    57.385 sec
Calculate W0/W1                 ...   178.284 sec
Energy contr. (sum over a,b,c)  ...    42.625 sec

Everything after 3-index        ...  6049.600 sec

Energy contribution AAA         ...    27.609 sec
Energy contribution AAB         ...   123.126 sec
Energy contribution ABB         ...   112.252 sec
Energy contribution BBB         ...    15.350 sec
prep                ...     3.290 sec
makeTTNO            ...  5559.894 sec
copyij              ...     0.130 sec
copyil              ...     4.168 sec
transposeij         ...     0.081 sec
newMatInDoubleProj  ...    55.028 sec
BlasInDoubleProj    ...  3032.660 sec
ProjSingles         ...    47.518 sec
ProjDoubles         ...  5569.999 sec
overall Doubles for projection      ... 3023386
used Doubles for projection         ... 3023386


Number of Triples   (0, 1, 2, 3 weak pairs; overall):  17086   11003       0       0  ( 28089)
Number of Atoms     (0, 1, 2, 3 weak pairs; overall):   19.5    15.2     0.0     0.0  (    29)
Number of PAOs      (0, 1, 2, 3 weak pairs; overall):  757.3   616.3     0.0     0.0  (  1025)
Number of AuxFcns   (0, 1, 2, 3 weak pairs; overall): 1002.5   573.8     0.0     0.0  (  2424)
Number of TNOs (0, 1, 2, 3 weak pairs         ):   79.7    57.2     0.0     0.0
Aver. Number of NTNO, Atoms, PAOs, AuxFcns / Triples:  28089    70.9    17.8   702.1   834.5

Triples Correction (T)                     ...     -0.118672581
    alpha-alpha-alpha ... -0.003942134 (  3.3%)
    alpha-alpha-beta  ... -0.055687883 ( 46.9%)
    alpha-beta -beta  ... -0.054900398 ( 46.3%)
    beta -beta -beta  ... -0.004142166 (  3.5%)
Final correlation energy                   ...     -3.026909741
E(CCSD)                                    ...  -3031.333411098
E(CCSD(T))                                 ...  -3031.452083680

----------------------------
STATISTICS FOR PAIR-ENERGIES
----------------------------
Minimum, maximum and average ratios of UMP and CCSD pair-energies ... 0.51, 1.41, 1.02


------------------------------------------------------------------------------- 
                                     TIMINGS                                   
------------------------------------------------------------------------------- 


Total execution time                   ...    56233.180 sec

Localization of occupied MO's          ...       11.535 sec (  0.0%)
Fock Matrix Formation                  ...     1356.980 sec (  2.4%)
Differential overlap integrals         ...        1.444 sec (  0.0%)
Organizing maps                        ...        1.680 sec (  0.0%)
RI 3-index integral generations        ...      279.317 sec (  0.5%)
RI-PNO integral transformation         ...     4695.816 sec (  8.4%)
Initial Guess                          ...     1831.062 sec (  3.3%)
DIIS Solver                            ...       16.720 sec (  0.0%)
State Vector Update                    ...        0.760 sec (  0.0%)
Sigma-vector construction              ...    31188.677 sec ( 55.5%)
  <0|H|D>                              ...        0.029 sec (  0.0% of sigma)
  <D|H|D>(0-ext)                       ...     5468.292 sec ( 17.5% of sigma)
  <D|H|D>(2-ext Fock)                  ...        1.523 sec (  0.0% of sigma)
  <D|H|D>(2-ext)                       ...     4628.425 sec ( 14.8% of sigma)
  <D|H|D>(4-ext)                       ...      140.063 sec (  0.4% of sigma)
  <D|H|D>(4-ext-corr)                  ...      877.249 sec (  2.8% of sigma)
  CCSD doubles correction              ...      534.102 sec (  1.7% of sigma)
  <S|H|S>                              ...      869.899 sec (  2.8% of sigma)
  <S|H|D>(1-ext)                       ...      274.313 sec (  0.9% of sigma)
  <D|H|S>(1-ext)                       ...        1.211 sec (  0.0% of sigma)
  <S|H|D>(3-ext)                       ...       20.817 sec (  0.1% of sigma)
  CCSD singles correction              ...        0.004 sec (  0.0% of sigma)
  Fock-dressing                        ...     9776.647 sec ( 31.3% of sigma)
  Singles amplitudes                   ...      119.754 sec (  0.4% of sigma)
  (ik|jl)-dressing                     ...     6766.170 sec ( 21.7% of sigma)
  (ij|ab),(ia|jb)-dressing             ...     1567.194 sec (  5.0% of sigma)
  Pair energies                        ...        0.136 sec (  0.0% of sigma)
Total Time for computing (T)           ...    17186.259 sec ( 30.6% of ALL)


-------------------------   --------------------
FINAL SINGLE POINT ENERGY     -3031.452083679743
-------------------------   --------------------


                            ***************************************
                            *     ORCA property calculations      *
                            ***************************************

                                    ---------------------
                                    Active property flags
                                    ---------------------
   (+) Dipole Moment


------------------------------------------------------------------------------
                       ORCA ELECTRIC PROPERTIES CALCULATION
------------------------------------------------------------------------------

Dipole Moment Calculation                       ... on
Quadrupole Moment Calculation                   ... off
Polarizability Calculation                      ... off
GBWName                                         ... simple-grid-165-285-b3lyp_d3bj-631gd-gas-singlepoint-DLPNO_CCSD_T1-NormalPNO-augtz-gas.gbw
Electron density file                           ... simple-grid-165-285-b3lyp_d3bj-631gd-gas-singlepoint-DLPNO_CCSD_T1-NormalPNO-augtz-gas.scfp.tmp
The origin for moment calculation is the CENTER OF MASS  = ( 0.325726,  0.047414 -0.007412)

-------------
DIPOLE MOMENT
-------------
                                X             Y             Z
Electronic contribution:     42.31555       7.06126      -1.11491
Nuclear contribution   :    -48.53315      -7.06473       1.10438
                        -----------------------------------------
Total Dipole Moment    :     -6.21761      -0.00347      -0.01052
                        -----------------------------------------
Magnitude (a.u.)       :      6.21762
Magnitude (Debye)      :     15.80393



--------------------
Rotational spectrum 
--------------------
 
Rotational constants in cm-1:     0.020243     0.010237     0.009769 
Rotational constants in MHz :   606.865773   306.909302   292.879941 

 Dipole components along the rotational axes: 
x,y,z [a.u.] :    -6.217118    -0.024227    -0.074952 
x,y,z [Debye]:   -15.802659    -0.061581    -0.190513 

 

Timings for individual modules:

Sum of individual times         ...    72954.659 sec (=1215.911 min)
GTO integral calculation        ...       12.674 sec (=   0.211 min)   0.0 %
SCF iterations                  ...    16691.268 sec (= 278.188 min)  22.9 %
MDCI module                     ...    56250.717 sec (= 937.512 min)  77.1 %
                             ****ORCA TERMINATED NORMALLY****
TOTAL RUN TIME: 0 days 20 hours 15 minutes 57 seconds 398 msec
