
                                 *****************
                                 * O   R   C   A *
                                 *****************

           --- An Ab Initio, DFT and Semiempirical electronic structure package ---

                  #######################################################
                  #                        -***-                        #
                  #          Department of theory and spectroscopy      #
                  #               Directorship: Frank Neese             #
                  #        Max Planck Institute fuer Kohlenforschung    #
                  #                Kaiser Wilhelm Platz 1               #
                  #                 D-45470 Muelheim/Ruhr               #
                  #                      Germany                        #
                  #                                                     #
                  #                  All rights reserved                #
                  #                        -***-                        #
                  #######################################################


                         Program Version 4.1.2  - RELEASE  -


 With contributions from (in alphabetic order):
   Daniel Aravena         : Magnetic Properties
   Michael Atanasov       : Ab Initio Ligand Field Theory
   Alexander A. Auer      : GIAO ZORA
   Ute Becker             : Parallelization
   Giovanni Bistoni       : ED, Open-shell LED
   Martin Brehm           : Molecular dynamics
   Dmytro Bykov           : SCF Hessian
   Vijay G. Chilkuri      : MRCI spin determinant printing
   Dipayan Datta          : RHF DLPNO-CCSD density
   Achintya Kumar Dutta   : EOM-CC, STEOM-CC
   Dmitry Ganyushin       : Spin-Orbit,Spin-Spin,Magnetic field MRCI
   Miquel Garcia          : C-PCM Hessian
   Yang Guo               : DLPNO-NEVPT2, CIM, IAO-localization
   Andreas Hansen         : Spin unrestricted coupled pair/coupled cluster methods
   Benjamin Helmich-Paris : CASSCF linear response (MC-RPA)
   Lee Huntington         : MR-EOM, pCC
   Robert Izsak           : Overlap fitted RIJCOSX, COSX-SCS-MP3, EOM
   Christian Kollmar      : KDIIS, OOCD, Brueckner-CCSD(T), CCSD density
   Simone Kossmann        : Meta GGA functionals, TD-DFT gradient, OOMP2, MP2 Hessian
   Martin Krupicka        : AUTO-CI
   Lucas Lang             : DCDCAS
   Dagmar Lenk            : GEPOL surface, SMD
   Dimitrios Liakos       : Extrapolation schemes; parallel MDCI
   Dimitrios Manganas     : ROCIS; embedding schemes
   Dimitrios Pantazis     : SARC Basis sets
   Taras Petrenko         : DFT Hessian,TD-DFT gradient, ASA, ECA, R-Raman, ABS, FL, XAS/XES, NRVS
   Peter Pinski           : DLPNO-MP2, DLPNO-MP2 Gradient
   Christoph Reimann      : Effective Core Potentials
   Marius Retegan         : Local ZFS, SOC
   Christoph Riplinger    : Optimizer, TS searches, QM/MM, DLPNO-CCSD(T), (RO)-DLPNO pert. Triples
   Tobias Risthaus        : Range-separated hybrids, TD-DFT gradient, RPA, STAB
   Michael Roemelt        : Restricted open shell CIS
   Masaaki Saitow         : Open-shell DLPNO
   Barbara Sandhoefer     : DKH picture change effects
   Avijit Sen             : IP-ROCIS
   Kantharuban Sivalingam : CASSCF convergence, NEVPT2, FIC-MRCI
   Bernardo de Souza      : ESD, SOC TD-DFT
   Georgi Stoychev        : AutoAux, RI-MP2 NMR
   Willem Van den Heuvel  : Paramagnetic NMR
   Boris Wezisla          : Elementary symmetry handling
   Frank Wennmohs         : Technical directorship


 We gratefully acknowledge several colleagues who have allowed us to
 interface, adapt or use parts of their codes:
   Stefan Grimme, W. Hujo, H. Kruse,             : VdW corrections, initial TS optimization,
                  C. Bannwarth                     DFT functionals, gCP, sTDA/sTD-DF
   Ed Valeev                                     : LibInt (2-el integral package), F12 methods
   Garnet Chan, S. Sharma, J. Yang, R. Olivares  : DMRG
   Ulf Ekstrom                                   : XCFun DFT Library
   Mihaly Kallay                                 : mrcc  (arbitrary order and MRCC methods)
   Andreas Klamt, Michael Diedenhofen            : otool_cosmo (COSMO solvation model)
   Jiri Pittner, Ondrej Demel                    : Mk-CCSD
   Frank Weinhold                                : gennbo (NPA and NBO analysis)
   Christopher J. Cramer and Donald G. Truhlar   : smd solvation model
   Lars Goerigk                                  : TD-DFT with DH, B97 family of functionals
   V. Asgeirsson, H. Jonsson                     : NEB implementation
   FAccTs GmbH                                   : IRC, NEB, NEB-TS, Multilevel


 Your calculation uses the libint2 library for the computation of 2-el integrals
 For citations please refer to: http://libint.valeyev.net

 This ORCA versions uses:
   CBLAS   interface :  Fast vector & matrix operations
   LAPACKE interface :  Fast linear algebra routines
   SCALAPACK package :  Parallel linear algebra routines


----- Orbital basis set information -----
Your calculation utilizes the basis: aug-cc-pVTZ 
    H, B-Ne : Obtained from the ccRepo (grant-hill.group.shef.ac.uk/ccrepo) Feb. 2017
              R. A. Kendall, T. H. Dunning, Jr., R. J. Harrison, J. Chem. Phys. 96, 6796 (1992)
         He : Obtained from the ccRepo (grant-hill.group.shef.ac.uk/ccrepo) Feb. 2017
              D. E. Woon, T. H. Dunning, Jr., J. Chem. Phys. 100, 2975 (1994)
  Li-Be, Na : Obtained from the ccRepo (grant-hill.group.shef.ac.uk/ccrepo) Feb. 2017
              B. P. Prascher, D. E. Woon, K. A. Peterson, T. H. Dunning, Jr., A. K. Wilson, Theor. Chem. Acc. 128, 69 (2011)
         Mg : Obtained from the Peterson Research Group Website (tyr0.chem.wsu.edu/~kipeters) Feb. 2017
              B. P. Prascher, D. E. Woon, K. A. Peterson, T. H. Dunning, Jr., A. K. Wilson, Theor. Chem. Acc. 128, 69 (2011)
      Al-Ar : Obtained from the ccRepo (grant-hill.group.shef.ac.uk/ccrepo) Feb. 2017
              D. E. Woon, T. H. Dunning, Jr., J. Chem. Phys. 98, 1358 (1993)
      Sc-Zn : Obtained from the ccRepo (grant-hill.group.shef.ac.uk/ccrepo) Feb. 2017
              N. B. Balabanov, K. A. Peterson, J. Chem. Phys. 123, 064107 (2005)
              N. B. Balabanov, K. A. Peterson, J. Chem. Phys. 125, 074110 (2006)
      Ga-Kr : Obtained from the ccRepo (grant-hill.group.shef.ac.uk/ccrepo) Feb. 2017
              A. K. Wilson, D. E. Woon, K. A. Peterson, T. H. Dunning, Jr., J. Chem. Phys. 110, 7667 (1999)
     Ag, Au : Obtained from the Peterson Research Group Website (tyr0.chem.wsu.edu/~kipeters) Feb. 2017
              K. A. Peterson, C. Puzzarini, Theor. Chem. Acc. 114, 283 (2005)

----- AuxJ basis set information -----
Your calculation utilizes the AutoAux generation procedure.
  G. L. Stoychev, A. A. Auer, F. Neese, J. Chem. Theory Comput. 13, 554 (2017)

----- AuxC basis set information -----
Your calculation utilizes the auxiliary basis: aug-cc-pVTZ/C 
  H-He, B-F, Al-Ar, Ga-Kr : Obtained from the EMSL Basis Set Exchange (bse.pnl.gov) Feb. 2017
                            F. Weigend, A. Kohn, C. Hattig, J. Chem. Phys. 116, 3175 (2002)
                   Be, Mg : Obtained from the TURBOMOLE 7.0 basis set library
                            C. Haettig, Phys. Chem. Chem. Phys. 7, 59 (2005)
                       Ne : Obtained from the EMSL Basis Set Exchange (bse.pnl.gov) Feb. 2017
                            C. Haettig, Phys. Chem. Chem. Phys. 7, 59 (2005)
                            F. Weigend, A. Kohn, C. Hattig, J. Chem. Phys. 116, 3175 (2002)
                    Sc-Zn : Obtained from the EMSL Basis Set Exchange (bse.pnl.gov) Feb. 2017
                            J. G. Hill, J. A. Platts, J. Chem. Phys. 128, 044104 (2008)

----- AuxJK basis set information -----
Your calculation utilizes the AutoAux generation procedure.
  G. L. Stoychev, A. A. Auer, F. Neese, J. Chem. Theory Comput. 13, 554 (2017)

================================================================================
                                        WARNINGS
                       Please study these warnings very carefully!
================================================================================


WARNING: your system is open-shell and RHF/RKS was chosen
  ===> : WILL SWITCH to UHF/UKS


WARNING: MDCI localization with Augmented Hessian Foster-Boys
  ===> : Switching off randomization!

WARNING: Post HF methods need fully converged wavefunctions
  ===> : Setting SCFConvForced true
         You can overwrite this default with %scf ConvForced false 


INFO   : the flag for use of LIBINT has been found!

================================================================================
                                       INPUT FILE
================================================================================
NAME = simple-grid-190-215-b3lyp_d3bj-631gd-gas-singlepoint-DLPNO_CCSD_T1-NormalPNO-augtz-gas.inp
|  1> ! aug-cc-pVTZ aug-cc-pVTZ/C DLPNO-CCSD(T1) TightSCF NormalPNO UNO MiniPrint AutoAux
|  2> %pal nproc 10 end
|  3> %maxcore 20000
|  4> %mdci
|  5>      density none
|  6> end
|  7> 
|  8> * xyz 0 6
|  9>  O     -0.36670700     -0.17088700     -0.53179100
| 10>  C     -1.34566100     -1.15413500     -0.42203500
| 11>  C     -2.89606000     -0.09260500     -0.14023200
| 12>  C     -2.08064200      1.09817800     -0.25906200
| 13>  C     -1.93312000      1.77847300     -1.56862200
| 14> Fe      1.39345300      0.04780000      0.04058800
| 15> Cl      1.84886100      2.04683000     -0.80334400
| 16>  C     -1.58154600      1.81695600      0.93752600
| 17> Cl      2.52983800     -1.66919200     -0.73009000
| 18> Cl      1.33107600      0.10517600      2.26041700
| 19>  H     -3.50073100     -0.27356300     -1.02910100
| 20>  H     -2.41732100      2.44103000      1.29541900
| 21>  H     -1.30334400      1.14507100      1.75049500
| 22>  H     -0.73839500      2.46681800      0.69701100
| 23>  H     -2.64128500      2.62375500     -1.56141800
| 24>  H     -0.92517900      2.18493300     -1.68722500
| 25>  H     -2.18943700      1.13123100     -2.40856300
| 26>  C     -3.62966100     -0.39166600      1.15201800
| 27>  H     -4.46879500      0.30070900      1.29405400
| 28>  H     -4.04322200     -1.40365700      1.12155000
| 29>  H     -2.98569900     -0.32154500      2.03126600
| 30>  C     -1.16461200     -2.06615100      0.76524500
| 31>  H     -1.99465300     -2.76959700      0.87151200
| 32>  H     -0.24563400     -2.64204900      0.59009900
| 33>  H     -1.02233900     -1.50862300      1.69218000
| 34>  C     -1.55784900     -1.87130300     -1.73524300
| 35>  H     -0.63209400     -2.41515100     -1.96358100
| 36>  H     -2.38598900     -2.58444100     -1.68050800
| 37>  H     -1.73326700     -1.16493200     -2.55042600
| 38> *
| 39> 
| 40> 
| 41>                          ****END OF INPUT****
================================================================================

                       ****************************
                       * Single Point Calculation *
                       ****************************

---------------------------------
CARTESIAN COORDINATES (ANGSTROEM)
---------------------------------
  O     -0.366707   -0.170887   -0.531791
  C     -1.345661   -1.154135   -0.422035
  C     -2.896060   -0.092605   -0.140232
  C     -2.080642    1.098178   -0.259062
  C     -1.933120    1.778473   -1.568622
  Fe     1.393453    0.047800    0.040588
  Cl     1.848861    2.046830   -0.803344
  C     -1.581546    1.816956    0.937526
  Cl     2.529838   -1.669192   -0.730090
  Cl     1.331076    0.105176    2.260417
  H     -3.500731   -0.273563   -1.029101
  H     -2.417321    2.441030    1.295419
  H     -1.303344    1.145071    1.750495
  H     -0.738395    2.466818    0.697011
  H     -2.641285    2.623755   -1.561418
  H     -0.925179    2.184933   -1.687225
  H     -2.189437    1.131231   -2.408563
  C     -3.629661   -0.391666    1.152018
  H     -4.468795    0.300709    1.294054
  H     -4.043222   -1.403657    1.121550
  H     -2.985699   -0.321545    2.031266
  C     -1.164612   -2.066151    0.765245
  H     -1.994653   -2.769597    0.871512
  H     -0.245634   -2.642049    0.590099
  H     -1.022339   -1.508623    1.692180
  C     -1.557849   -1.871303   -1.735243
  H     -0.632094   -2.415151   -1.963581
  H     -2.385989   -2.584441   -1.680508
  H     -1.733267   -1.164932   -2.550426

----------------------------
CARTESIAN COORDINATES (A.U.)
----------------------------
  NO LB      ZA    FRAG     MASS         X           Y           Z
   0 O     8.0000    0    15.999   -0.692976   -0.322930   -1.004939
   1 C     6.0000    0    12.011   -2.542931   -2.180999   -0.797531
   2 C     6.0000    0    12.011   -5.472760   -0.174998   -0.265000
   3 C     6.0000    0    12.011   -3.931844    2.075256   -0.489556
   4 C     6.0000    0    12.011   -3.653067    3.360827   -2.964266
   5 Fe   26.0000    0    55.850    2.633245    0.090329    0.076700
   6 Cl   17.0000    0    35.453    3.493841    3.867948   -1.518100
   7 C     6.0000    0    12.011   -2.988689    3.433549    1.771667
   8 Cl   17.0000    0    35.453    4.780701   -3.154316   -1.379670
   9 Cl   17.0000    0    35.453    2.515369    0.198754    4.271569
  10 H     1.0000    0     1.008   -6.615423   -0.516959   -1.944719
  11 H     1.0000    0     1.008   -4.568075    4.612878    2.447987
  12 H     1.0000    0     1.008   -2.462963    2.163871    3.307956
  13 H     1.0000    0     1.008   -1.395364    4.661610    1.317160
  14 H     1.0000    0     1.008   -4.991305    4.958178   -2.950652
  15 H     1.0000    0     1.008   -1.748335    4.128925   -3.188393
  16 H     1.0000    0     1.008   -4.137436    2.137717   -4.551524
  17 C     6.0000    0    12.011   -6.859065   -0.740141    2.176999
  18 H     1.0000    0     1.008   -8.444799    0.568258    2.445408
  19 H     1.0000    0     1.008   -7.640582   -2.652527    2.119422
  20 H     1.0000    0     1.008   -5.642153   -0.607632    3.838536
  21 C     6.0000    0    12.011   -2.200798   -3.904460    1.446103
  22 H     1.0000    0     1.008   -3.769348   -5.233780    1.646919
  23 H     1.0000    0     1.008   -0.464181   -4.992749    1.115126
  24 H     1.0000    0     1.008   -1.931941   -2.850884    3.197757
  25 C     6.0000    0    12.011   -2.943908   -3.536250   -3.279134
  26 H     1.0000    0     1.008   -1.194485   -4.563974   -3.710630
  27 H     1.0000    0     1.008   -4.508866   -4.883886   -3.175700
  28 H     1.0000    0     1.008   -3.275400   -2.201402   -4.819607



           ************************************************************
           *        Program running with 10 parallel MPI-processes    *
           *              working on a common directory               *
           ************************************************************


           ************************************************************
           *        Program running with 10 parallel MPI-processes    *
           *              working on a common directory               *
           ************************************************************

Diagonalization of the overlap matrix:
Smallest eigenvalue                        ... 6.891e-07
Time for diagonalization                   ...    0.352 sec
Threshold for overlap eigenvalues          ... 1.000e-08
Number of eigenvalues below threshold      ... 0
Time for construction of square roots      ...    0.301 sec
Total time needed                          ...    0.657 sec

-------------------
DFT GRID GENERATION
-------------------

General Integration Accuracy     IntAcc      ...  4.340
Radial Grid Type                 RadialGrid  ... Gauss-Chebyshev
Angular Grid (max. acc.)         AngularGrid ... Lebedev-110
Angular grid pruning method      GridPruning ... 3 (G Style)
Weight generation scheme         WeightScheme... Becke
Basis function cutoff            BFCut       ...    1.0000e-11
Integration weight cutoff        WCut        ...    1.0000e-14
Grids for H and He will be reduced by one unit

# of grid points (after initial pruning)     ...  36112 (   0.0 sec)
# of grid points (after weights+screening)   ...  32290 (   0.1 sec)
nearest neighbour list constructed           ...    0.0 sec
Grid point re-assignment to atoms done       ...    0.0 sec
Grid point division into batches done        ...    0.0 sec
Reduced shell lists constructed in    0.2 sec

Total number of grid points                  ...    32290
Total number of batches                      ...      520
Average number of points per batch           ...       62
Average number of grid points per atom       ...     1113
Average number of shells per batch           ...   294.25 (85.79%)
Average number of basis functions per batch  ...   875.53 (85.42%)
Average number of large shells per batch     ...   243.58 (82.78%)
Average number of large basis fcns per batch ...   723.55 (82.64%)
Maximum spatial batch extension              ...   3.24,  2.66,  2.54 au
Average spatial batch extension              ...   0.17,  0.18,  0.16 au

Time for grid setup =    0.346 sec

Loading Hartree-Fock densities                     ... done
Calculating cut-offs                               ... done
Setting up the integral package                    ... done
Initializing the effective Hamiltonian             ... done
Starting the Coulomb interaction                   ... done (   1.1 sec)
Reading the grid                                   ... done
Mapping shells                                     ... done
Starting the XC term evaluation                    ... done (   0.8 sec)
Transforming the Hamiltonian                       ... done (   0.2 sec)
Diagonalizing the Hamiltonian                      ... done (   0.3 sec)
Back transforming the eigenvectors                 ... done (   0.1 sec)
Now organizing SCF variables                       ... done
--------------
SCF ITERATIONS
--------------
ITER       Energy         Delta-E        Max-DP      RMS-DP      [F,P]     Damp
               ***  Starting incremental Fock matrix formation  ***
  0  -3027.5624706403   0.000000000000 0.31356348  0.00131280  0.2779336 0.7000
  1  -3027.8111751688  -0.248704528507 0.23038957  0.00100615  0.1632715 0.7000
                               ***Turning on DIIS***
  2  -3027.9786395802  -0.167464411446 0.16214061  0.00073036  0.1094368 0.7000
  3  -3029.6746224611  -1.695982880930 0.37651850  0.00179588  0.0821015 0.0000
  4  -3028.2894520305   1.385170430654 0.04611095  0.00023484  0.0184866 0.0000
  5  -3028.4140320820  -0.124580051544 0.03909254  0.00017383  0.0117836 0.0000
  6  -3028.4327060922  -0.018674010206 0.01972014  0.00006795  0.0054567 0.0000
  7  -3028.4479520070  -0.015245914808 0.00888046  0.00003081  0.0032588 0.0000
  8  -3028.4460800385   0.001871968528 0.00566316  0.00001756  0.0013665 0.0000
  9  -3028.4352791607   0.010800877844 0.00221788  0.00001004  0.0007070 0.0000
 10  -3028.4247393743   0.010539786339 0.00090823  0.00000317  0.0004370 0.0000
 11  -3028.4312550010  -0.006515626713 0.00028465  0.00000176  0.0000693 0.0000
 12  -3028.4290876619   0.002167339156 0.00065998  0.00000159  0.0000214 0.0000
 13  -3028.4291159455  -0.000028283570 0.00106075  0.00000257  0.0000091 0.0000
 14  -3028.4290983721   0.000017573344 0.00152347  0.00000285  0.0000054 0.0000
 15  -3028.4290352501   0.000063121990 0.00117867  0.00000252  0.0000033 0.0000
 16  -3028.4290544938  -0.000019243687 0.00152024  0.00000297  0.0000022 0.0000
 17  -3028.4290719514  -0.000017457585 0.00104857  0.00000225  0.0000012 0.0000
                            ***DIIS convergence achieved***

               *****************************************************
               *                     SUCCESS                       *
               *           SCF CONVERGED AFTER  18 CYCLES          *
               *****************************************************

Total Energy       :        -3028.42905388 Eh          -82407.74408 eV
  Last Energy change         ...    1.8076e-05  Tolerance :   1.0000e-08
  Last MAX-Density change    ...    1.8393e-03  Tolerance :   1.0000e-07
             **** THE GBW FILE WAS UPDATED (simple-grid-190-215-b3lyp_d3bj-631gd-gas-singlepoint-DLPNO_CCSD_T1-NormalPNO-augtz-gas.gbw) ****
             **** DENSITY FILE WAS UPDATED (simple-grid-190-215-b3lyp_d3bj-631gd-gas-singlepoint-DLPNO_CCSD_T1-NormalPNO-augtz-gas.scfp.tmp) ****
             **** ENERGY FILE WAS UPDATED (simple-grid-190-215-b3lyp_d3bj-631gd-gas-singlepoint-DLPNO_CCSD_T1-NormalPNO-augtz-gas.en.tmp) ****
----------------------
UHF SPIN CONTAMINATION
----------------------

Expectation value of <S**2>     :     8.764487
Ideal value S*(S+1) for S=2.5   :     8.750000
Deviation                       :     0.014487

----------------
ORBITAL ENERGIES
----------------
                 SPIN UP ORBITALS
  NO   OCC          E(Eh)            E(eV) 
   0   1.0000    -261.548736     -7117.1029 
   1   1.0000    -104.776160     -2851.1043 
   2   1.0000    -104.774888     -2851.0697 
   3   1.0000    -104.773404     -2851.0293 
   4   1.0000     -32.216635      -876.6592 
   5   1.0000     -27.692503      -753.5513 
   6   1.0000     -27.692396      -753.5484 
   7   1.0000     -27.692089      -753.5401 
   8   1.0000     -20.551574      -559.2368 
   9   1.0000     -11.393909      -310.0440 
  10   1.0000     -11.367531      -309.3262 
  11   1.0000     -11.283942      -307.0517 
  12   1.0000     -11.276802      -306.8574 
  13   1.0000     -11.272992      -306.7537 
  14   1.0000     -11.261706      -306.4466 
  15   1.0000     -11.246585      -306.0351 
  16   1.0000     -11.242303      -305.9186 
  17   1.0000     -10.502670      -285.7922 
  18   1.0000     -10.501485      -285.7599 
  19   1.0000     -10.499953      -285.7182 
  20   1.0000      -7.969495      -216.8610 
  21   1.0000      -7.968754      -216.8408 
  22   1.0000      -7.968671      -216.8386 
  23   1.0000      -7.968380      -216.8306 
  24   1.0000      -7.967528      -216.8074 
  25   1.0000      -7.967479      -216.8061 
  26   1.0000      -7.966758      -216.7865 
  27   1.0000      -7.966065      -216.7676 
  28   1.0000      -7.965985      -216.7655 
  29   1.0000      -4.572100      -124.4132 
  30   1.0000      -3.184620       -86.6579 
  31   1.0000      -3.184286       -86.6488 
  32   1.0000      -3.183663       -86.6319 
  33   1.0000      -1.372244       -37.3407 
  34   1.0000      -1.175358       -31.9831 
  35   1.0000      -1.084999       -29.5243 
  36   1.0000      -1.047321       -28.4991 
  37   1.0000      -1.041599       -28.3434 
  38   1.0000      -1.040845       -28.3228 
  39   1.0000      -1.040073       -28.3018 
  40   1.0000      -1.010017       -27.4839 
  41   1.0000      -0.975035       -26.5321 
  42   1.0000      -0.931400       -25.3447 
  43   1.0000      -0.908718       -24.7275 
  44   1.0000      -0.901713       -24.5369 
  45   1.0000      -0.901514       -24.5314 
  46   1.0000      -0.893334       -24.3088 
  47   1.0000      -0.892868       -24.2962 
  48   1.0000      -0.786122       -21.3915 
  49   1.0000      -0.762521       -20.7492 
  50   1.0000      -0.697958       -18.9924 
  51   1.0000      -0.690323       -18.7846 
  52   1.0000      -0.671681       -18.2774 
  53   1.0000      -0.644679       -17.5426 
  54   1.0000      -0.635547       -17.2941 
  55   1.0000      -0.627062       -17.0632 
  56   1.0000      -0.599350       -16.3091 
  57   1.0000      -0.595148       -16.1948 
  58   1.0000      -0.591907       -16.1066 
  59   1.0000      -0.582278       -15.8446 
  60   1.0000      -0.575117       -15.6497 
  61   1.0000      -0.560888       -15.2625 
  62   1.0000      -0.553735       -15.0679 
  63   1.0000      -0.542227       -14.7547 
  64   1.0000      -0.535715       -14.5775 
  65   1.0000      -0.529715       -14.4143 
  66   1.0000      -0.507593       -13.8123 
  67   1.0000      -0.478040       -13.0081 
  68   1.0000      -0.462609       -12.5882 
  69   1.0000      -0.450571       -12.2607 
  70   1.0000      -0.430134       -11.7045 
  71   1.0000      -0.425988       -11.5917 
  72   1.0000      -0.422637       -11.5005 
  73   1.0000      -0.416384       -11.3304 
  74   1.0000      -0.413959       -11.2644 
  75   1.0000      -0.412599       -11.2274 
  76   1.0000      -0.391823       -10.6621 
  77   0.0000       0.007940         0.2161 
  78   0.0000       0.019534         0.5315 
  79   0.0000       0.021963         0.5977 
  80   0.0000       0.030547         0.8312 
  81   0.0000       0.033996         0.9251 
  82   0.0000       0.037731         1.0267 
  83   0.0000       0.041472         1.1285 
  84   0.0000       0.043911         1.1949 
  85   0.0000       0.044048         1.1986 
  86   0.0000       0.046859         1.2751 
  87   0.0000       0.056277         1.5314 
  88   0.0000       0.060701         1.6518 
  89   0.0000       0.061106         1.6628 
  90   0.0000       0.064921         1.7666 
  91   0.0000       0.066429         1.8076 
  92   0.0000       0.070970         1.9312 
  93   0.0000       0.072835         1.9819 
  94   0.0000       0.081026         2.2048 
  95   0.0000       0.088120         2.3979 
  96   0.0000       0.089690         2.4406 
  97   0.0000       0.091179         2.4811 
  98   0.0000       0.093815         2.5528 
  99   0.0000       0.100139         2.7249 
 100   0.0000       0.102297         2.7836 
 101   0.0000       0.110678         3.0117 
 102   0.0000       0.115369         3.1394 
 103   0.0000       0.119133         3.2418 
 104   0.0000       0.122371         3.3299 
 105   0.0000       0.124055         3.3757 
 106   0.0000       0.128011         3.4834 
 107   0.0000       0.129627         3.5273 
 108   0.0000       0.131365         3.5746 
 109   0.0000       0.132322         3.6007 
 110   0.0000       0.136496         3.7142 
 111   0.0000       0.138022         3.7558 
 112   0.0000       0.145483         3.9588 
 113   0.0000       0.148836         4.0500 
 114   0.0000       0.150754         4.1022 
 115   0.0000       0.153151         4.1674 
 116   0.0000       0.157863         4.2957 
 117   0.0000       0.161266         4.3883 
 118   0.0000       0.163220         4.4414 
 119   0.0000       0.166107         4.5200 
 120   0.0000       0.170570         4.6414 
 121   0.0000       0.175487         4.7752 
 122   0.0000       0.177533         4.8309 
 123   0.0000       0.179850         4.8940 
 124   0.0000       0.183718         4.9992 
 125   0.0000       0.188064         5.1175 
 126   0.0000       0.192776         5.2457 
 127   0.0000       0.194837         5.3018 
 128   0.0000       0.196791         5.3549 
 129   0.0000       0.198015         5.3883 
 130   0.0000       0.201610         5.4861 
 131   0.0000       0.207619         5.6496 
 132   0.0000       0.207921         5.6578 
 133   0.0000       0.209921         5.7122 
 134   0.0000       0.215359         5.8602 
 135   0.0000       0.217962         5.9310 
 136   0.0000       0.221250         6.0205 
 137   0.0000       0.224812         6.1175 
 138   0.0000       0.229527         6.2458 
 139   0.0000       0.232555         6.3281 
 140   0.0000       0.238758         6.4969 
 141   0.0000       0.240988         6.5576 
 142   0.0000       0.241963         6.5842 
 143   0.0000       0.244914         6.6645 
 144   0.0000       0.247581         6.7370 
 145   0.0000       0.251685         6.8487 
 146   0.0000       0.253421         6.8959 
 147   0.0000       0.256422         6.9776 
 148   0.0000       0.257491         7.0067 
 149   0.0000       0.260184         7.0800 
 150   0.0000       0.266973         7.2647 
 151   0.0000       0.275548         7.4980 
 152   0.0000       0.277818         7.5598 
 153   0.0000       0.281408         7.6575 
 154   0.0000       0.284067         7.7298 
 155   0.0000       0.285912         7.7801 
 156   0.0000       0.293488         7.9862 
 157   0.0000       0.296908         8.0793 
 158   0.0000       0.299717         8.1557 
 159   0.0000       0.304057         8.2738 
 160   0.0000       0.306908         8.3514 
 161   0.0000       0.309400         8.4192 
 162   0.0000       0.313417         8.5285 
 163   0.0000       0.317956         8.6520 
 164   0.0000       0.323692         8.8081 
 165   0.0000       0.326003         8.8710 
 166   0.0000       0.331268         9.0143 
 167   0.0000       0.339848         9.2477 
 168   0.0000       0.341120         9.2823 
 169   0.0000       0.348489         9.4829 
 170   0.0000       0.349174         9.5015 
 171   0.0000       0.354194         9.6381 
 172   0.0000       0.359610         9.7855 
 173   0.0000       0.361830         9.8459 
 174   0.0000       0.364506         9.9187 
 175   0.0000       0.365552         9.9472 
 176   0.0000       0.369516        10.0550 
 177   0.0000       0.372690        10.1414 
 178   0.0000       0.375455        10.2167 
 179   0.0000       0.380874        10.3641 
 180   0.0000       0.382404        10.4057 
 181   0.0000       0.384781        10.4704 
 182   0.0000       0.386499        10.5172 
 183   0.0000       0.387877        10.5547 
 184   0.0000       0.390334        10.6215 
 185   0.0000       0.396926        10.8009 
 186   0.0000       0.399208        10.8630 
 187   0.0000       0.401875        10.9356 
 188   0.0000       0.404746        11.0137 
 189   0.0000       0.407367        11.0850 
 190   0.0000       0.414087        11.2679 
 191   0.0000       0.415343        11.3021 
 192   0.0000       0.420382        11.4392 
 193   0.0000       0.423714        11.5298 
 194   0.0000       0.425812        11.5869 
 195   0.0000       0.431532        11.7426 
 196   0.0000       0.435763        11.8577 
 197   0.0000       0.442113        12.0305 
 198   0.0000       0.445897        12.1335 
 199   0.0000       0.448630        12.2078 
 200   0.0000       0.452370        12.3096 
 201   0.0000       0.458387        12.4733 
 202   0.0000       0.460705        12.5364 
 203   0.0000       0.462768        12.5926 
 204   0.0000       0.466374        12.6907 
 205   0.0000       0.467932        12.7331 
 206   0.0000       0.471420        12.8280 
 207   0.0000       0.472315        12.8523 
 208   0.0000       0.475337        12.9346 
 209   0.0000       0.477219        12.9858 
 210   0.0000       0.483073        13.1451 
 211   0.0000       0.486367        13.2347 
 212   0.0000       0.491382        13.3712 
 213   0.0000       0.492637        13.4053 
 214   0.0000       0.495808        13.4916 
 215   0.0000       0.497584        13.5399 
 216   0.0000       0.500943        13.6313 
 217   0.0000       0.503027        13.6880 
 218   0.0000       0.507821        13.8185 
 219   0.0000       0.513063        13.9612 
 220   0.0000       0.513716        13.9789 
 221   0.0000       0.516351        14.0506 
 222   0.0000       0.518793        14.1171 
 223   0.0000       0.522648        14.2220 
 224   0.0000       0.527800        14.3622 
 225   0.0000       0.530401        14.4329 
 226   0.0000       0.534035        14.5318 
 227   0.0000       0.540013        14.6945 
 228   0.0000       0.542209        14.7543 
 229   0.0000       0.547962        14.9108 
 230   0.0000       0.551736        15.0135 
 231   0.0000       0.552780        15.0419 
 232   0.0000       0.558664        15.2020 
 233   0.0000       0.563807        15.3420 
 234   0.0000       0.569737        15.5033 
 235   0.0000       0.570836        15.5332 
 236   0.0000       0.575610        15.6631 
 237   0.0000       0.578297        15.7363 
 238   0.0000       0.579572        15.7709 
 239   0.0000       0.583296        15.8723 
 240   0.0000       0.587297        15.9812 
 241   0.0000       0.591418        16.0933 
 242   0.0000       0.597138        16.2489 
 243   0.0000       0.598523        16.2866 
 244   0.0000       0.605089        16.4653 
 245   0.0000       0.606814        16.5122 
 246   0.0000       0.611561        16.6414 
 247   0.0000       0.614965        16.7340 
 248   0.0000       0.618132        16.8202 
 249   0.0000       0.620257        16.8781 
 250   0.0000       0.623650        16.9704 
 251   0.0000       0.626909        17.0591 
 252   0.0000       0.630369        17.1532 
 253   0.0000       0.636531        17.3209 
 254   0.0000       0.639187        17.3932 
 255   0.0000       0.644930        17.5494 
 256   0.0000       0.648874        17.6568 
 257   0.0000       0.651352        17.7242 
 258   0.0000       0.657683        17.8965 
 259   0.0000       0.658500        17.9187 
 260   0.0000       0.664069        18.0702 
 261   0.0000       0.668655        18.1950 
 262   0.0000       0.672585        18.3020 
 263   0.0000       0.675095        18.3703 
 264   0.0000       0.678788        18.4708 
 265   0.0000       0.686387        18.6776 
 266   0.0000       0.687458        18.7067 
 267   0.0000       0.693949        18.8833 
 268   0.0000       0.695569        18.9274 
 269   0.0000       0.703672        19.1479 
 270   0.0000       0.706999        19.2384 
 271   0.0000       0.710593        19.3362 
 272   0.0000       0.713971        19.4282 
 273   0.0000       0.722403        19.6576 
 274   0.0000       0.725708        19.7475 
 275   0.0000       0.727202        19.7882 
 276   0.0000       0.734412        19.9844 
 277   0.0000       0.740073        20.1384 
 278   0.0000       0.741678        20.1821 
 279   0.0000       0.749933        20.4067 
 280   0.0000       0.758964        20.6525 
 281   0.0000       0.759922        20.6785 
 282   0.0000       0.765484        20.8299 
 283   0.0000       0.775063        21.0905 
 284   0.0000       0.777444        21.1553 
 285   0.0000       0.780042        21.2260 
 286   0.0000       0.784221        21.3397 
 287   0.0000       0.791226        21.5304 
 288   0.0000       0.797631        21.7046 
 289   0.0000       0.805318        21.9138 
 290   0.0000       0.806828        21.9549 
 291   0.0000       0.810354        22.0509 
 292   0.0000       0.818364        22.2688 
 293   0.0000       0.823341        22.4042 
 294   0.0000       0.833144        22.6710 
 295   0.0000       0.836027        22.7494 
 296   0.0000       0.840953        22.8835 
 297   0.0000       0.847317        23.0567 
 298   0.0000       0.856493        23.3063 
 299   0.0000       0.857467        23.3329 
 300   0.0000       0.860862        23.4252 
 301   0.0000       0.867644        23.6098 
 302   0.0000       0.871244        23.7078 
 303   0.0000       0.874683        23.8013 
 304   0.0000       0.880253        23.9529 
 305   0.0000       0.884160        24.0592 
 306   0.0000       0.886088        24.1117 
 307   0.0000       0.891865        24.2689 
 308   0.0000       0.896511        24.3953 
 309   0.0000       0.900699        24.5093 
 310   0.0000       0.907583        24.6966 
 311   0.0000       0.908571        24.7235 
 312   0.0000       0.917727        24.9726 
 313   0.0000       0.923321        25.1248 
 314   0.0000       0.924975        25.1698 
 315   0.0000       0.929688        25.2981 
 316   0.0000       0.932941        25.3866 
 317   0.0000       0.937863        25.5205 
 318   0.0000       0.940589        25.5947 
 319   0.0000       0.941976        25.6325 
 320   0.0000       0.949684        25.8422 
 321   0.0000       0.951832        25.9007 
 322   0.0000       0.957855        26.0645 
 323   0.0000       0.960087        26.1253 
 324   0.0000       0.962851        26.2005 
 325   0.0000       0.965823        26.2814 
 326   0.0000       0.971895        26.4466 
 327   0.0000       0.973448        26.4889 
 328   0.0000       0.975469        26.5439 
 329   0.0000       0.978455        26.6251 
 330   0.0000       0.981282        26.7020 
 331   0.0000       0.987726        26.8774 
 332   0.0000       0.989577        26.9278 
 333   0.0000       0.991449        26.9787 
 334   0.0000       0.996069        27.1044 
 335   0.0000       1.003154        27.2972 
 336   0.0000       1.007172        27.4066 
 337   0.0000       1.008777        27.4502 
 338   0.0000       1.016699        27.6658 
 339   0.0000       1.020532        27.7701 
 340   0.0000       1.022534        27.8246 
 341   0.0000       1.027630        27.9632 
 342   0.0000       1.030393        28.0384 
 343   0.0000       1.032570        28.0977 
 344   0.0000       1.036771        28.2120 
 345   0.0000       1.040420        28.3113 
 346   0.0000       1.043664        28.3996 
 347   0.0000       1.044717        28.4282 
 348   0.0000       1.048663        28.5356 
 349   0.0000       1.056679        28.7537 
 350   0.0000       1.058036        28.7906 
 351   0.0000       1.063246        28.9324 
 352   0.0000       1.064240        28.9595 
 353   0.0000       1.066733        29.0273 
 354   0.0000       1.071792        29.1649 
 355   0.0000       1.075289        29.2601 
 356   0.0000       1.080399        29.3992 
 357   0.0000       1.080732        29.4082 
 358   0.0000       1.087675        29.5971 
 359   0.0000       1.092294        29.7228 
 360   0.0000       1.095422        29.8079 
 361   0.0000       1.102501        30.0006 
 362   0.0000       1.105613        30.0853 
 363   0.0000       1.107683        30.1416 
 364   0.0000       1.116499        30.3815 
 365   0.0000       1.124421        30.5970 
 366   0.0000       1.126139        30.6438 
 367   0.0000       1.129265        30.7289 
 368   0.0000       1.130441        30.7609 
 369   0.0000       1.137076        30.9414 
 370   0.0000       1.144406        31.1409 
 371   0.0000       1.144896        31.1542 
 372   0.0000       1.151975        31.3468 
 373   0.0000       1.156163        31.4608 
 374   0.0000       1.157503        31.4973 
 375   0.0000       1.164504        31.6878 
 376   0.0000       1.168312        31.7914 
 377   0.0000       1.173183        31.9239 
 378   0.0000       1.176151        32.0047 
 379   0.0000       1.182134        32.1675 
 380   0.0000       1.185472        32.2583 
 381   0.0000       1.186573        32.2883 
 382   0.0000       1.191526        32.4231 
 383   0.0000       1.196822        32.5672 
 384   0.0000       1.201656        32.6987 
 385   0.0000       1.205938        32.8153 
 386   0.0000       1.208192        32.8766 
 387   0.0000       1.213109        33.0104 
 388   0.0000       1.213460        33.0199 
 389   0.0000       1.220429        33.2096 
 390   0.0000       1.224266        33.3140 
 391   0.0000       1.234312        33.5873 
 392   0.0000       1.236224        33.6394 
 393   0.0000       1.242154        33.8007 
 394   0.0000       1.245526        33.8925 
 395   0.0000       1.250803        34.0361 
 396   0.0000       1.253636        34.1132 
 397   0.0000       1.258954        34.2579 
 398   0.0000       1.262357        34.3505 
 399   0.0000       1.271749        34.6061 
 400   0.0000       1.276413        34.7330 
 401   0.0000       1.285381        34.9770 
 402   0.0000       1.291186        35.1350 
 403   0.0000       1.294263        35.2187 
 404   0.0000       1.302708        35.4485 
 405   0.0000       1.304907        35.5083 
 406   0.0000       1.314358        35.7655 
 407   0.0000       1.316997        35.8373 
 408   0.0000       1.319472        35.9047 
 409   0.0000       1.322478        35.9864 
 410   0.0000       1.329377        36.1742 
 411   0.0000       1.337763        36.4024 
 412   0.0000       1.339164        36.4405 
 413   0.0000       1.347338        36.6629 
 414   0.0000       1.348557        36.6961 
 415   0.0000       1.352675        36.8082 
 416   0.0000       1.369053        37.2538 
 417   0.0000       1.372729        37.3539 
 418   0.0000       1.376170        37.4475 
 419   0.0000       1.382416        37.6175 
 420   0.0000       1.389139        37.8004 
 421   0.0000       1.391575        37.8667 
 422   0.0000       1.401366        38.1331 
 423   0.0000       1.406200        38.2646 
 424   0.0000       1.411821        38.4176 
 425   0.0000       1.417667        38.5767 
 426   0.0000       1.423092        38.7243 
 427   0.0000       1.425233        38.7826 
 428   0.0000       1.434388        39.0317 
 429   0.0000       1.436890        39.0998 
 430   0.0000       1.442901        39.2633 
 431   0.0000       1.447027        39.3756 
 432   0.0000       1.453317        39.5468 
 433   0.0000       1.458392        39.6849 
 434   0.0000       1.461468        39.7686 
 435   0.0000       1.467533        39.9336 
 436   0.0000       1.475516        40.1508 
 437   0.0000       1.477392        40.2019 
 438   0.0000       1.480524        40.2871 
 439   0.0000       1.483505        40.3682 
 440   0.0000       1.492694        40.6183 
 441   0.0000       1.498196        40.7680 
 442   0.0000       1.503724        40.9184 
 443   0.0000       1.505765        40.9739 
 444   0.0000       1.512287        41.1514 
 445   0.0000       1.514520        41.2122 
 446   0.0000       1.523583        41.4588 
 447   0.0000       1.527229        41.5580 
 448   0.0000       1.528572        41.5945 
 449   0.0000       1.536431        41.8084 
 450   0.0000       1.544189        42.0195 
 451   0.0000       1.551556        42.2200 
 452   0.0000       1.556237        42.3474 
 453   0.0000       1.559330        42.4315 
 454   0.0000       1.563859        42.5548 
 455   0.0000       1.565859        42.6092 
 456   0.0000       1.569857        42.7180 
 457   0.0000       1.576320        42.8938 
 458   0.0000       1.579762        42.9875 
 459   0.0000       1.584482        43.1160 
 460   0.0000       1.587532        43.1990 
 461   0.0000       1.593272        43.3551 
 462   0.0000       1.597351        43.4661 
 463   0.0000       1.613615        43.9087 
 464   0.0000       1.614237        43.9256 
 465   0.0000       1.618348        44.0375 
 466   0.0000       1.626593        44.2618 
 467   0.0000       1.636459        44.5303 
 468   0.0000       1.641608        44.6704 
 469   0.0000       1.646185        44.7950 
 470   0.0000       1.647106        44.8200 
 471   0.0000       1.656090        45.0645 
 472   0.0000       1.660963        45.1971 
 473   0.0000       1.665672        45.3252 
 474   0.0000       1.671371        45.4803 
 475   0.0000       1.678428        45.6723 
 476   0.0000       1.687714        45.9250 
 477   0.0000       1.689001        45.9600 
 478   0.0000       1.692842        46.0646 
 479   0.0000       1.695255        46.1302 
 480   0.0000       1.705118        46.3986 
 481   0.0000       1.708927        46.5023 
 482   0.0000       1.715468        46.6803 
 483   0.0000       1.718387        46.7597 
 484   0.0000       1.724125        46.9158 
 485   0.0000       1.732173        47.1348 
 486   0.0000       1.733107        47.1602 
 487   0.0000       1.735736        47.2318 
 488   0.0000       1.744956        47.4827 
 489   0.0000       1.749087        47.5951 
 490   0.0000       1.754169        47.7334 
 491   0.0000       1.759073        47.8668 
 492   0.0000       1.764385        48.0114 
 493   0.0000       1.771703        48.2105 
 494   0.0000       1.775843        48.3232 
 495   0.0000       1.776875        48.3512 
 496   0.0000       1.784939        48.5707 
 497   0.0000       1.787092        48.6293 
 498   0.0000       1.789986        48.7080 
 499   0.0000       1.795414        48.8557 
 500   0.0000       1.801119        49.0109 
 501   0.0000       1.811762        49.3006 
 502   0.0000       1.816477        49.4289 
 503   0.0000       1.822990        49.6061 
 504   0.0000       1.827705        49.7344 
 505   0.0000       1.829738        49.7897 
 506   0.0000       1.838257        50.0215 
 507   0.0000       1.845201        50.2105 
 508   0.0000       1.852517        50.4096 
 509   0.0000       1.854373        50.4600 
 510   0.0000       1.857894        50.5559 
 511   0.0000       1.864860        50.7454 
 512   0.0000       1.867103        50.8064 
 513   0.0000       1.869853        50.8813 
 514   0.0000       1.877864        51.0993 
 515   0.0000       1.881427        51.1962 
 516   0.0000       1.881651        51.2023 
 517   0.0000       1.890554        51.4446 
 518   0.0000       1.894187        51.5435 
 519   0.0000       1.897374        51.6302 
 520   0.0000       1.905201        51.8432 
 521   0.0000       1.909671        51.9648 
 522   0.0000       1.916621        52.1539 
 523   0.0000       1.924151        52.3588 
 524   0.0000       1.929029        52.4916 
 525   0.0000       1.931654        52.5630 
 526   0.0000       1.937712        52.7278 
 527   0.0000       1.942126        52.8479 
 528   0.0000       1.944787        52.9203 
 529   0.0000       1.958070        53.2818 
 530   0.0000       1.962853        53.4119 
 531   0.0000       1.969584        53.5951 
 532   0.0000       1.970958        53.6325 
 533   0.0000       1.979291        53.8592 
 534   0.0000       1.985322        54.0234 
 535   0.0000       1.990107        54.1536 
 536   0.0000       2.003702        54.5235 
 537   0.0000       2.006036        54.5870 
 538   0.0000       2.007273        54.6207 
 539   0.0000       2.019711        54.9591 
 540   0.0000       2.029250        55.2187 
 541   0.0000       2.033648        55.3384 
 542   0.0000       2.036362        55.4122 
 543   0.0000       2.039545        55.4988 
 544   0.0000       2.047696        55.7206 
 545   0.0000       2.063173        56.1418 
 546   0.0000       2.069391        56.3110 
 547   0.0000       2.075272        56.4710 
 548   0.0000       2.081271        56.6343 
 549   0.0000       2.088826        56.8399 
 550   0.0000       2.093141        56.9572 
 551   0.0000       2.097120        57.0655 
 552   0.0000       2.104768        57.2736 
 553   0.0000       2.114052        57.5263 
 554   0.0000       2.115180        57.5570 
 555   0.0000       2.121427        57.7270 
 556   0.0000       2.139960        58.2313 
 557   0.0000       2.140258        58.2394 
 558   0.0000       2.156634        58.6850 
 559   0.0000       2.163827        58.8807 
 560   0.0000       2.173337        59.1395 
 561   0.0000       2.175910        59.2095 
 562   0.0000       2.180837        59.3436 
 563   0.0000       2.187611        59.5279 
 564   0.0000       2.191309        59.6286 
 565   0.0000       2.200758        59.8857 
 566   0.0000       2.207149        60.0596 
 567   0.0000       2.220632        60.4265 
 568   0.0000       2.221895        60.4608 
 569   0.0000       2.227575        60.6154 
 570   0.0000       2.238899        60.9235 
 571   0.0000       2.242279        61.0155 
 572   0.0000       2.252289        61.2879 
 573   0.0000       2.259174        61.4753 
 574   0.0000       2.262218        61.5581 
 575   0.0000       2.268732        61.7353 
 576   0.0000       2.278749        62.0079 
 577   0.0000       2.283024        62.1242 
 578   0.0000       2.288166        62.2642 
 579   0.0000       2.288786        62.2810 
 580   0.0000       2.298434        62.5436 
 581   0.0000       2.307858        62.8000 
 582   0.0000       2.311197        62.8909 
 583   0.0000       2.314961        62.9933 
 584   0.0000       2.322578        63.2006 
 585   0.0000       2.343317        63.7649 
 586   0.0000       2.348192        63.8975 
 587   0.0000       2.350875        63.9706 
 588   0.0000       2.367360        64.4191 
 589   0.0000       2.373132        64.5762 
 590   0.0000       2.381508        64.8041 
 591   0.0000       2.388131        64.9843 
 592   0.0000       2.392340        65.0989 
 593   0.0000       2.397355        65.2354 
 594   0.0000       2.402381        65.3721 
 595   0.0000       2.411028        65.6074 
 596   0.0000       2.419984        65.8511 
 597   0.0000       2.432896        66.2025 
 598   0.0000       2.435578        66.2754 
 599   0.0000       2.442696        66.4691 
 600   0.0000       2.447406        66.5973 
 601   0.0000       2.462964        67.0206 
 602   0.0000       2.467685        67.1491 
 603   0.0000       2.479908        67.4817 
 604   0.0000       2.488010        67.7022 
 605   0.0000       2.496647        67.9372 
 606   0.0000       2.505831        68.1871 
 607   0.0000       2.512082        68.3572 
 608   0.0000       2.521047        68.6012 
 609   0.0000       2.533314        68.9350 
 610   0.0000       2.540622        69.1338 
 611   0.0000       2.561132        69.6919 
 612   0.0000       2.568043        69.8800 
 613   0.0000       2.582292        70.2677 
 614   0.0000       2.600267        70.7569 
 615   0.0000       2.616135        71.1886 
 616   0.0000       2.632464        71.6330 
 617   0.0000       2.642504        71.9062 
 618   0.0000       2.654959        72.2451 
 619   0.0000       2.657471        72.3135 
 620   0.0000       2.668914        72.6248 
 621   0.0000       2.684023        73.0360 
 622   0.0000       2.691785        73.2472 
 623   0.0000       2.697460        73.4016 
 624   0.0000       2.712539        73.8119 
 625   0.0000       2.713087        73.8269 
 626   0.0000       2.720330        74.0240 
 627   0.0000       2.731538        74.3289 
 628   0.0000       2.735605        74.4396 
 629   0.0000       2.740709        74.5785 
 630   0.0000       2.753475        74.9259 
 631   0.0000       2.771387        75.4133 
 632   0.0000       2.779651        75.6381 
 633   0.0000       2.787943        75.8638 
 634   0.0000       2.791030        75.9478 
 635   0.0000       2.797257        76.1172 
 636   0.0000       2.815738        76.6201 
 637   0.0000       2.832459        77.0751 
 638   0.0000       2.840781        77.3016 
 639   0.0000       2.853707        77.6533 
 640   0.0000       2.861861        77.8752 
 641   0.0000       2.876099        78.2626 
 642   0.0000       2.888803        78.6083 
 643   0.0000       2.907004        79.1036 
 644   0.0000       2.917247        79.3823 
 645   0.0000       2.927039        79.6488 
 646   0.0000       2.941449        80.0409 
 647   0.0000       2.952127        80.3314 
 648   0.0000       2.970013        80.8182 
 649   0.0000       2.975376        80.9641 
 650   0.0000       2.987574        81.2960 
 651   0.0000       3.005497        81.7837 
 652   0.0000       3.019642        82.1686 
 653   0.0000       3.047110        82.9161 
 654   0.0000       3.055092        83.1333 
 655   0.0000       3.070877        83.5628 
 656   0.0000       3.073674        83.6389 
 657   0.0000       3.100539        84.3699 
 658   0.0000       3.105541        84.5061 
 659   0.0000       3.129069        85.1463 
 660   0.0000       3.142208        85.5038 
 661   0.0000       3.165570        86.1395 
 662   0.0000       3.169817        86.2551 
 663   0.0000       3.175409        86.4073 
 664   0.0000       3.188375        86.7601 
 665   0.0000       3.197925        87.0200 
 666   0.0000       3.205481        87.2256 
 667   0.0000       3.220922        87.6457 
 668   0.0000       3.222804        87.6970 
 669   0.0000       3.226871        87.8076 
 670   0.0000       3.237274        88.0907 
 671   0.0000       3.248967        88.4089 
 672   0.0000       3.258613        88.6714 
 673   0.0000       3.274668        89.1083 
 674   0.0000       3.282648        89.3254 
 675   0.0000       3.300769        89.8185 
 676   0.0000       3.311062        90.0986 
 677   0.0000       3.312461        90.1367 
 678   0.0000       3.316286        90.2407 
 679   0.0000       3.323317        90.4320 
 680   0.0000       3.335191        90.7551 
 681   0.0000       3.343156        90.9719 
 682   0.0000       3.353992        91.2667 
 683   0.0000       3.366578        91.6092 
 684   0.0000       3.378528        91.9344 
 685   0.0000       3.384513        92.0973 
 686   0.0000       3.397110        92.4401 
 687   0.0000       3.408067        92.7382 
 688   0.0000       3.411942        92.8437 
 689   0.0000       3.418632        93.0257 
 690   0.0000       3.426753        93.2467 
 691   0.0000       3.436384        93.5088 
 692   0.0000       3.447941        93.8232 
 693   0.0000       3.462484        94.2190 
 694   0.0000       3.473938        94.5306 
 695   0.0000       3.477942        94.6396 
 696   0.0000       3.484111        94.8075 
 697   0.0000       3.486418        94.8702 
 698   0.0000       3.511967        95.5655 
 699   0.0000       3.515887        95.6722 
 700   0.0000       3.524092        95.8954 
 701   0.0000       3.532588        96.1266 
 702   0.0000       3.537648        96.2643 
 703   0.0000       3.546325        96.5004 
 704   0.0000       3.547587        96.5348 
 705   0.0000       3.565890        97.0328 
 706   0.0000       3.577777        97.3563 
 707   0.0000       3.582823        97.4936 
 708   0.0000       3.590879        97.7128 
 709   0.0000       3.591730        97.7360 
 710   0.0000       3.603311        98.0511 
 711   0.0000       3.610096        98.2357 
 712   0.0000       3.618074        98.4528 
 713   0.0000       3.624095        98.6166 
 714   0.0000       3.633146        98.8629 
 715   0.0000       3.652389        99.3866 
 716   0.0000       3.654555        99.4455 
 717   0.0000       3.661901        99.6454 
 718   0.0000       3.667006        99.7843 
 719   0.0000       3.678201       100.0889 
 720   0.0000       3.688336       100.3647 
 721   0.0000       3.693860       100.5150 
 722   0.0000       3.701560       100.7246 
 723   0.0000       3.711036       100.9824 
 724   0.0000       3.719172       101.2038 
 725   0.0000       3.721960       101.2797 
 726   0.0000       3.730567       101.5139 
 727   0.0000       3.739290       101.7512 
 728   0.0000       3.753424       102.1359 
 729   0.0000       3.758665       102.2785 
 730   0.0000       3.766565       102.4934 
 731   0.0000       3.771347       102.6236 
 732   0.0000       3.780138       102.8628 
 733   0.0000       3.786376       103.0325 
 734   0.0000       3.792438       103.1975 
 735   0.0000       3.796549       103.3093 
 736   0.0000       3.804883       103.5361 
 737   0.0000       3.820253       103.9544 
 738   0.0000       3.824367       104.0663 
 739   0.0000       3.835116       104.3588 
 740   0.0000       3.844697       104.6195 
 741   0.0000       3.848473       104.7223 
 742   0.0000       3.851066       104.7928 
 743   0.0000       3.859558       105.0239 
 744   0.0000       3.869305       105.2891 
 745   0.0000       3.875413       105.4553 
 746   0.0000       3.885100       105.7189 
 747   0.0000       3.890955       105.8783 
 748   0.0000       3.895538       106.0030 
 749   0.0000       3.897593       106.0589 
 750   0.0000       3.903659       106.2239 
 751   0.0000       3.914017       106.5058 
 752   0.0000       3.922495       106.7365 
 753   0.0000       3.923891       106.7745 
 754   0.0000       3.929443       106.9256 
 755   0.0000       3.934470       107.0624 
 756   0.0000       3.942130       107.2708 
 757   0.0000       3.947192       107.4086 
 758   0.0000       3.955553       107.6361 
 759   0.0000       3.960694       107.7760 
 760   0.0000       3.974500       108.1516 
 761   0.0000       3.976238       108.1989 
 762   0.0000       3.989884       108.5703 
 763   0.0000       3.991237       108.6071 
 764   0.0000       4.007876       109.0598 
 765   0.0000       4.014702       109.2456 
 766   0.0000       4.022235       109.4506 
 767   0.0000       4.037892       109.8766 
 768   0.0000       4.041031       109.9620 
 769   0.0000       4.047439       110.1364 
 770   0.0000       4.058919       110.4488 
 771   0.0000       4.065982       110.6410 
 772   0.0000       4.068770       110.7169 
 773   0.0000       4.073675       110.8503 
 774   0.0000       4.080004       111.0225 
 775   0.0000       4.089448       111.2795 
 776   0.0000       4.102367       111.6311 
 777   0.0000       4.104755       111.6961 
 778   0.0000       4.114115       111.9508 
 779   0.0000       4.126437       112.2861 
 780   0.0000       4.129254       112.3627 
 781   0.0000       4.134359       112.5016 
 782   0.0000       4.140130       112.6587 
 783   0.0000       4.145461       112.8037 
 784   0.0000       4.153883       113.0329 
 785   0.0000       4.171457       113.5111 
 786   0.0000       4.174121       113.5836 
 787   0.0000       4.183390       113.8358 
 788   0.0000       4.190592       114.0318 
 789   0.0000       4.196368       114.1890 
 790   0.0000       4.214556       114.6839 
 791   0.0000       4.220273       114.8395 
 792   0.0000       4.228276       115.0573 
 793   0.0000       4.231694       115.1503 
 794   0.0000       4.241841       115.4264 
 795   0.0000       4.251625       115.6926 
 796   0.0000       4.256799       115.8334 
 797   0.0000       4.269412       116.1766 
 798   0.0000       4.271522       116.2340 
 799   0.0000       4.280467       116.4774 
 800   0.0000       4.290479       116.7499 
 801   0.0000       4.301161       117.0406 
 802   0.0000       4.307059       117.2010 
 803   0.0000       4.309950       117.2797 
 804   0.0000       4.328792       117.7924 
 805   0.0000       4.330863       117.8488 
 806   0.0000       4.336603       118.0050 
 807   0.0000       4.344618       118.2231 
 808   0.0000       4.357018       118.5605 
 809   0.0000       4.367117       118.8353 
 810   0.0000       4.376008       119.0772 
 811   0.0000       4.385118       119.3251 
 812   0.0000       4.402957       119.8105 
 813   0.0000       4.407788       119.9420 
 814   0.0000       4.424730       120.4030 
 815   0.0000       4.427571       120.4803 
 816   0.0000       4.439911       120.8161 
 817   0.0000       4.443523       120.9144 
 818   0.0000       4.451537       121.1325 
 819   0.0000       4.459904       121.3602 
 820   0.0000       4.467433       121.5650 
 821   0.0000       4.477000       121.8254 
 822   0.0000       4.480549       121.9219 
 823   0.0000       4.485864       122.0666 
 824   0.0000       4.500964       122.4775 
 825   0.0000       4.517002       122.9139 
 826   0.0000       4.523149       123.0811 
 827   0.0000       4.529640       123.2578 
 828   0.0000       4.541479       123.5799 
 829   0.0000       4.560395       124.0946 
 830   0.0000       4.571350       124.3927 
 831   0.0000       4.579270       124.6083 
 832   0.0000       4.586136       124.7951 
 833   0.0000       4.602920       125.2518 
 834   0.0000       4.611734       125.4917 
 835   0.0000       4.613602       125.5425 
 836   0.0000       4.628728       125.9541 
 837   0.0000       4.637709       126.1985 
 838   0.0000       4.643781       126.3637 
 839   0.0000       4.654120       126.6450 
 840   0.0000       4.683042       127.4320 
 841   0.0000       4.688912       127.5918 
 842   0.0000       4.699687       127.8850 
 843   0.0000       4.708471       128.1240 
 844   0.0000       4.716087       128.3313 
 845   0.0000       4.735830       128.8685 
 846   0.0000       4.757465       129.4572 
 847   0.0000       4.765262       129.6694 
 848   0.0000       4.779989       130.0701 
 849   0.0000       4.785188       130.2116 
 850   0.0000       4.798750       130.5806 
 851   0.0000       4.808000       130.8323 
 852   0.0000       4.813656       130.9862 
 853   0.0000       4.831996       131.4853 
 854   0.0000       4.839824       131.6983 
 855   0.0000       4.847835       131.9163 
 856   0.0000       4.858763       132.2137 
 857   0.0000       4.875964       132.6817 
 858   0.0000       4.889787       133.0579 
 859   0.0000       4.906849       133.5222 
 860   0.0000       4.918971       133.8520 
 861   0.0000       4.924897       134.0132 
 862   0.0000       4.931968       134.2057 
 863   0.0000       4.941006       134.4516 
 864   0.0000       4.943938       134.5314 
 865   0.0000       4.956383       134.8700 
 866   0.0000       4.964096       135.0799 
 867   0.0000       4.971493       135.2812 
 868   0.0000       4.995832       135.9435 
 869   0.0000       5.003109       136.1415 
 870   0.0000       5.019139       136.5777 
 871   0.0000       5.019903       136.5985 
 872   0.0000       5.030689       136.8920 
 873   0.0000       5.040396       137.1561 
 874   0.0000       5.053316       137.5077 
 875   0.0000       5.059335       137.6715 
 876   0.0000       5.079772       138.2276 
 877   0.0000       5.094322       138.6235 
 878   0.0000       5.112660       139.1226 
 879   0.0000       5.124222       139.4372 
 880   0.0000       5.129372       139.5773 
 881   0.0000       5.140809       139.8885 
 882   0.0000       5.147686       140.0756 
 883   0.0000       5.169751       140.6761 
 884   0.0000       5.178950       140.9264 
 885   0.0000       5.185680       141.1095 
 886   0.0000       5.209635       141.7614 
 887   0.0000       5.225332       142.1885 
 888   0.0000       5.237902       142.5306 
 889   0.0000       5.242045       142.6433 
 890   0.0000       5.259730       143.1245 
 891   0.0000       5.267425       143.3339 
 892   0.0000       5.284600       143.8013 
 893   0.0000       5.296502       144.1251 
 894   0.0000       5.313108       144.5770 
 895   0.0000       5.324221       144.8794 
 896   0.0000       5.341071       145.3379 
 897   0.0000       5.350481       145.5940 
 898   0.0000       5.366454       146.0286 
 899   0.0000       5.368319       146.0794 
 900   0.0000       5.388106       146.6178 
 901   0.0000       5.394950       146.8041 
 902   0.0000       5.409346       147.1958 
 903   0.0000       5.413390       147.3058 
 904   0.0000       5.435256       147.9008 
 905   0.0000       5.438185       147.9805 
 906   0.0000       5.442306       148.0927 
 907   0.0000       5.457324       148.5013 
 908   0.0000       5.473194       148.9332 
 909   0.0000       5.483069       149.2019 
 910   0.0000       5.504482       149.7846 
 911   0.0000       5.516210       150.1037 
 912   0.0000       5.536643       150.6597 
 913   0.0000       5.543034       150.8336 
 914   0.0000       5.558347       151.2503 
 915   0.0000       5.567828       151.5083 
 916   0.0000       5.585366       151.9855 
 917   0.0000       5.592467       152.1788 
 918   0.0000       5.599897       152.3809 
 919   0.0000       5.608266       152.6087 
 920   0.0000       5.614783       152.7860 
 921   0.0000       5.638584       153.4337 
 922   0.0000       5.644047       153.5823 
 923   0.0000       5.654069       153.8550 
 924   0.0000       5.664411       154.1365 
 925   0.0000       5.671370       154.3258 
 926   0.0000       5.679138       154.5372 
 927   0.0000       5.696922       155.0211 
 928   0.0000       5.702306       155.1676 
 929   0.0000       5.712711       155.4508 
 930   0.0000       5.717663       155.5855 
 931   0.0000       5.738261       156.1460 
 932   0.0000       5.747144       156.3877 
 933   0.0000       5.750167       156.4700 
 934   0.0000       5.760895       156.7619 
 935   0.0000       5.772416       157.0754 
 936   0.0000       5.787648       157.4899 
 937   0.0000       5.822669       158.4429 
 938   0.0000       5.834356       158.7609 
 939   0.0000       5.847979       159.1316 
 940   0.0000       5.853544       159.2830 
 941   0.0000       5.873848       159.8355 
 942   0.0000       5.884240       160.1183 
 943   0.0000       5.898267       160.5000 
 944   0.0000       5.923607       161.1895 
 945   0.0000       5.970983       162.4787 
 946   0.0000       6.004152       163.3813 
 947   0.0000       6.045651       164.5105 
 948   0.0000       6.122248       166.5949 
 949   0.0000       6.139521       167.0649 
 950   0.0000       6.154487       167.4721 
 951   0.0000       6.164090       167.7334 
 952   0.0000       6.183195       168.2533 
 953   0.0000       6.188003       168.3841 
 954   0.0000       6.205037       168.8476 
 955   0.0000       6.211946       169.0356 
 956   0.0000       6.225571       169.4064 
 957   0.0000       6.238947       169.7704 
 958   0.0000       6.246118       169.9655 
 959   0.0000       6.264782       170.4734 
 960   0.0000       6.271463       170.6552 
 961   0.0000       6.322940       172.0559 
 962   0.0000       6.339615       172.5097 
 963   0.0000       6.366040       173.2288 
 964   0.0000       6.387905       173.8237 
 965   0.0000       6.392304       173.9434 
 966   0.0000       6.415907       174.5857 
 967   0.0000       6.448275       175.4665 
 968   0.0000       6.475101       176.1965 
 969   0.0000       6.526566       177.5969 
 970   0.0000       6.609229       179.8463 
 971   0.0000       6.682739       181.8466 
 972   0.0000       6.823373       185.6734 
 973   0.0000       6.870309       186.9506 
 974   0.0000       6.883897       187.3204 
 975   0.0000       6.907833       187.9717 
 976   0.0000       6.931597       188.6183 
 977   0.0000       6.951794       189.1679 
 978   0.0000       6.952987       189.2004 
 979   0.0000       6.983554       190.0322 
 980   0.0000       6.996903       190.3954 
 981   0.0000       7.024951       191.1586 
 982   0.0000       7.068014       192.3304 
 983   0.0000       7.110207       193.4786 
 984   0.0000       7.165005       194.9697 
 985   0.0000       7.220027       196.4669 
 986   0.0000       7.368806       200.5154 
 987   0.0000       7.448403       202.6814 
 988   0.0000       7.505016       204.2219 
 989   0.0000       7.557399       205.6473 
 990   0.0000       7.582257       206.3237 
 991   0.0000       7.588319       206.4886 
 992   0.0000       7.750199       210.8936 
 993   0.0000       7.793961       212.0845 
 994   0.0000       7.809108       212.4966 
 995   0.0000       7.885634       214.5790 
 996   0.0000       8.060771       219.3447 
 997   0.0000       8.163771       222.1475 
 998   0.0000       8.335703       226.8260 
 999   0.0000       9.437993       256.8209 
 1000   0.0000       9.454224       257.2625 
 1001   0.0000       9.472764       257.7670 
 1002   0.0000       9.487144       258.1583 
 1003   0.0000       9.492558       258.3056 
 1004   0.0000       9.526527       259.2300 
 1005   0.0000       9.762313       265.6460 
 1006   0.0000      10.100245       274.8416 
 1007   0.0000      10.136234       275.8209 
 1008   0.0000      10.150602       276.2119 
 1009   0.0000      10.224336       278.2183 
 1010   0.0000      10.226329       278.2726 
 1011   0.0000      10.262987       279.2701 
 1012   0.0000      10.403343       283.0894 
 1013   0.0000      10.441069       284.1159 
 1014   0.0000      10.567197       287.5480 
 1015   0.0000      17.250838       469.4192 
 1016   0.0000      17.710802       481.9354 
 1017   0.0000      18.379932       500.1434 
 1018   0.0000      18.811265       511.8805 
 1019   0.0000      18.901874       514.3461 
 1020   0.0000      19.038790       518.0718 
 1021   0.0000      19.828376       539.5575 
 1022   0.0000      20.211354       549.9789 
 1023   0.0000      20.825832       566.6997 
 1024   0.0000      21.846538       594.4745 

                 SPIN DOWN ORBITALS
  NO   OCC          E(Eh)            E(eV) 
   0   1.0000    -261.545189     -7117.0064 
   1   1.0000    -104.774850     -2851.0686 
   2   1.0000    -104.773523     -2851.0325 
   3   1.0000    -104.771973     -2850.9903 
   4   1.0000     -32.054633      -872.2509 
   5   1.0000     -27.532706      -749.2030 
   6   1.0000     -27.532524      -749.1981 
   7   1.0000     -27.532054      -749.1853 
   8   1.0000     -20.545852      -559.0811 
   9   1.0000     -11.393945      -310.0450 
  10   1.0000     -11.367461      -309.3243 
  11   1.0000     -11.283624      -307.0430 
  12   1.0000     -11.276782      -306.8568 
  13   1.0000     -11.273004      -306.7540 
  14   1.0000     -11.261730      -306.4473 
  15   1.0000     -11.246510      -306.0331 
  16   1.0000     -11.242271      -305.9178 
  17   1.0000     -10.501264      -285.7539 
  18   1.0000     -10.500016      -285.7200 
  19   1.0000     -10.498422      -285.6766 
  20   1.0000      -7.967222      -216.7991 
  21   1.0000      -7.966615      -216.7826 
  22   1.0000      -7.966530      -216.7803 
  23   1.0000      -7.965894      -216.7630 
  24   1.0000      -7.965372      -216.7488 
  25   1.0000      -7.965301      -216.7469 
  26   1.0000      -7.964394      -216.7222 
  27   1.0000      -7.963653      -216.7020 
  28   1.0000      -7.963588      -216.7003 
  29   1.0000      -4.129964      -112.3820 
  30   1.0000      -2.651794       -72.1590 
  31   1.0000      -2.651718       -72.1569 
  32   1.0000      -2.651025       -72.1381 
  33   1.0000      -1.357312       -36.9343 
  34   1.0000      -1.174079       -31.9483 
  35   1.0000      -1.082230       -29.4490 
  36   1.0000      -1.039764       -28.2934 
  37   1.0000      -1.032886       -28.1063 
  38   1.0000      -1.022133       -27.8136 
  39   1.0000      -1.020021       -27.7562 
  40   1.0000      -1.009585       -27.4722 
  41   1.0000      -0.974414       -26.5152 
  42   1.0000      -0.927728       -25.2448 
  43   1.0000      -0.792665       -21.5695 
  44   1.0000      -0.766600       -20.8603 
  45   1.0000      -0.698102       -18.9963 
  46   1.0000      -0.689609       -18.7652 
  47   1.0000      -0.672927       -18.3113 
  48   1.0000      -0.646352       -17.5881 
  49   1.0000      -0.633487       -17.2381 
  50   1.0000      -0.627130       -17.0651 
  51   1.0000      -0.598436       -16.2843 
  52   1.0000      -0.595252       -16.1976 
  53   1.0000      -0.591792       -16.1035 
  54   1.0000      -0.580736       -15.8026 
  55   1.0000      -0.574997       -15.6465 
  56   1.0000      -0.560914       -15.2633 
  57   1.0000      -0.552449       -15.0329 
  58   1.0000      -0.541485       -14.7345 
  59   1.0000      -0.534743       -14.5511 
  60   1.0000      -0.524093       -14.2613 
  61   1.0000      -0.502775       -13.6812 
  62   1.0000      -0.474281       -12.9058 
  63   1.0000      -0.466301       -12.6887 
  64   1.0000      -0.460888       -12.5414 
  65   1.0000      -0.437210       -11.8971 
  66   1.0000      -0.434032       -11.8106 
  67   1.0000      -0.432617       -11.7721 
  68   1.0000      -0.423281       -11.5180 
  69   1.0000      -0.411871       -11.2076 
  70   1.0000      -0.400218       -10.8905 
  71   1.0000      -0.388954       -10.5840 
  72   0.0000       0.007926         0.2157 
  73   0.0000       0.019408         0.5281 
  74   0.0000       0.021945         0.5971 
  75   0.0000       0.030583         0.8322 
  76   0.0000       0.033232         0.9043 
  77   0.0000       0.037655         1.0247 
  78   0.0000       0.041335         1.1248 
  79   0.0000       0.043790         1.1916 
  80   0.0000       0.043929         1.1954 
  81   0.0000       0.046816         1.2739 
  82   0.0000       0.056249         1.5306 
  83   0.0000       0.060706         1.6519 
  84   0.0000       0.061036         1.6609 
  85   0.0000       0.064848         1.7646 
  86   0.0000       0.066435         1.8078 
  87   0.0000       0.070890         1.9290 
  88   0.0000       0.072750         1.9796 
  89   0.0000       0.080825         2.1994 
  90   0.0000       0.087861         2.3908 
  91   0.0000       0.089569         2.4373 
  92   0.0000       0.091054         2.4777 
  93   0.0000       0.093740         2.5508 
  94   0.0000       0.099991         2.7209 
  95   0.0000       0.102277         2.7831 
  96   0.0000       0.110092         2.9957 
  97   0.0000       0.115270         3.1367 
  98   0.0000       0.118880         3.2349 
  99   0.0000       0.121389         3.3032 
 100   0.0000       0.122820         3.3421 
 101   0.0000       0.125324         3.4102 
 102   0.0000       0.126071         3.4306 
 103   0.0000       0.126312         3.4371 
 104   0.0000       0.129638         3.5276 
 105   0.0000       0.130895         3.5618 
 106   0.0000       0.131560         3.5799 
 107   0.0000       0.134273         3.6538 
 108   0.0000       0.137646         3.7455 
 109   0.0000       0.138284         3.7629 
 110   0.0000       0.138894         3.7795 
 111   0.0000       0.143663         3.9093 
 112   0.0000       0.148567         4.0427 
 113   0.0000       0.149328         4.0634 
 114   0.0000       0.152722         4.1558 
 115   0.0000       0.154296         4.1986 
 116   0.0000       0.158150         4.3035 
 117   0.0000       0.162576         4.4239 
 118   0.0000       0.163748         4.4558 
 119   0.0000       0.167262         4.5514 
 120   0.0000       0.171396         4.6639 
 121   0.0000       0.175815         4.7842 
 122   0.0000       0.177956         4.8424 
 123   0.0000       0.180985         4.9248 
 124   0.0000       0.186535         5.0759 
 125   0.0000       0.188758         5.1364 
 126   0.0000       0.194177         5.2838 
 127   0.0000       0.195851         5.3294 
 128   0.0000       0.199639         5.4324 
 129   0.0000       0.201853         5.4927 
 130   0.0000       0.205190         5.5835 
 131   0.0000       0.208657         5.6779 
 132   0.0000       0.209482         5.7003 
 133   0.0000       0.212633         5.7861 
 134   0.0000       0.217775         5.9259 
 135   0.0000       0.222755         6.0615 
 136   0.0000       0.225639         6.1399 
 137   0.0000       0.228702         6.2233 
 138   0.0000       0.235582         6.4105 
 139   0.0000       0.236838         6.4447 
 140   0.0000       0.240017         6.5312 
 141   0.0000       0.243544         6.6272 
 142   0.0000       0.245169         6.6714 
 143   0.0000       0.247841         6.7441 
 144   0.0000       0.250606         6.8193 
 145   0.0000       0.252995         6.8843 
 146   0.0000       0.257487         7.0066 
 147   0.0000       0.259823         7.0701 
 148   0.0000       0.260437         7.0868 
 149   0.0000       0.267770         7.2864 
 150   0.0000       0.268470         7.3054 
 151   0.0000       0.280468         7.6319 
 152   0.0000       0.283025         7.7015 
 153   0.0000       0.286219         7.7884 
 154   0.0000       0.287716         7.8292 
 155   0.0000       0.294359         8.0099 
 156   0.0000       0.300698         8.1824 
 157   0.0000       0.302435         8.2297 
 158   0.0000       0.306543         8.3415 
 159   0.0000       0.308282         8.3888 
 160   0.0000       0.312789         8.5114 
 161   0.0000       0.315992         8.5986 
 162   0.0000       0.316943         8.6245 
 163   0.0000       0.320126         8.7111 
 164   0.0000       0.328075         8.9274 
 165   0.0000       0.329703         8.9717 
 166   0.0000       0.338294         9.2055 
 167   0.0000       0.344622         9.3776 
 168   0.0000       0.346413         9.4264 
 169   0.0000       0.350912         9.5488 
 170   0.0000       0.353106         9.6085 
 171   0.0000       0.356309         9.6957 
 172   0.0000       0.361960         9.8494 
 173   0.0000       0.364690         9.9237 
 174   0.0000       0.366919         9.9844 
 175   0.0000       0.370976        10.0948 
 176   0.0000       0.373182        10.1548 
 177   0.0000       0.376108        10.2344 
 178   0.0000       0.379884        10.3372 
 179   0.0000       0.385636        10.4937 
 180   0.0000       0.386427        10.5152 
 181   0.0000       0.386720        10.5232 
 182   0.0000       0.389151        10.5893 
 183   0.0000       0.392460        10.6794 
 184   0.0000       0.396556        10.7908 
 185   0.0000       0.400579        10.9003 
 186   0.0000       0.404055        10.9949 
 187   0.0000       0.406284        11.0556 
 188   0.0000       0.410502        11.1703 
 189   0.0000       0.411547        11.1988 
 190   0.0000       0.417352        11.3567 
 191   0.0000       0.419967        11.4279 
 192   0.0000       0.423768        11.5313 
 193   0.0000       0.426643        11.6096 
 194   0.0000       0.427467        11.6320 
 195   0.0000       0.435586        11.8529 
 196   0.0000       0.440252        11.9799 
 197   0.0000       0.444425        12.0934 
 198   0.0000       0.450393        12.2558 
 199   0.0000       0.454411        12.3651 
 200   0.0000       0.459797        12.5117 
 201   0.0000       0.462693        12.5905 
 202   0.0000       0.465159        12.6576 
 203   0.0000       0.467129        12.7112 
 204   0.0000       0.469544        12.7770 
 205   0.0000       0.472776        12.8649 
 206   0.0000       0.474336        12.9073 
 207   0.0000       0.476461        12.9652 
 208   0.0000       0.480418        13.0729 
 209   0.0000       0.481436        13.1005 
 210   0.0000       0.486786        13.2461 
 211   0.0000       0.491498        13.3743 
 212   0.0000       0.492812        13.4101 
 213   0.0000       0.494385        13.4529 
 214   0.0000       0.499270        13.5858 
 215   0.0000       0.500985        13.6325 
 216   0.0000       0.504084        13.7168 
 217   0.0000       0.507207        13.8018 
 218   0.0000       0.511756        13.9256 
 219   0.0000       0.514428        13.9983 
 220   0.0000       0.516918        14.0661 
 221   0.0000       0.517952        14.0942 
 222   0.0000       0.523261        14.2387 
 223   0.0000       0.528617        14.3844 
 224   0.0000       0.532154        14.4807 
 225   0.0000       0.535745        14.5783 
 226   0.0000       0.539608        14.6835 
 227   0.0000       0.542910        14.7733 
 228   0.0000       0.545890        14.8544 
 229   0.0000       0.550142        14.9701 
 230   0.0000       0.553401        15.0588 
 231   0.0000       0.555035        15.1033 
 232   0.0000       0.562026        15.2935 
 233   0.0000       0.566587        15.4176 
 234   0.0000       0.572513        15.5789 
 235   0.0000       0.572589        15.5809 
 236   0.0000       0.576482        15.6869 
 237   0.0000       0.580315        15.7912 
 238   0.0000       0.582422        15.8485 
 239   0.0000       0.584679        15.9099 
 240   0.0000       0.589838        16.0503 
 241   0.0000       0.593038        16.1374 
 242   0.0000       0.600213        16.3326 
 243   0.0000       0.601899        16.3785 
 244   0.0000       0.606768        16.5110 
 245   0.0000       0.608232        16.5508 
 246   0.0000       0.613807        16.7026 
 247   0.0000       0.616714        16.7816 
 248   0.0000       0.620160        16.8754 
 249   0.0000       0.621810        16.9203 
 250   0.0000       0.624649        16.9976 
 251   0.0000       0.628655        17.1066 
 252   0.0000       0.634236        17.2584 
 253   0.0000       0.639379        17.3984 
 254   0.0000       0.641938        17.4680 
 255   0.0000       0.647628        17.6229 
 256   0.0000       0.650298        17.6955 
 257   0.0000       0.653012        17.7694 
 258   0.0000       0.659140        17.9361 
 259   0.0000       0.660846        17.9825 
 260   0.0000       0.666628        18.1399 
 261   0.0000       0.670809        18.2537 
 262   0.0000       0.675199        18.3731 
 263   0.0000       0.676723        18.4146 
 264   0.0000       0.683908        18.6101 
 265   0.0000       0.690556        18.7910 
 266   0.0000       0.691320        18.8118 
 267   0.0000       0.698506        19.0073 
 268   0.0000       0.699602        19.0371 
 269   0.0000       0.704831        19.1794 
 270   0.0000       0.709339        19.3021 
 271   0.0000       0.713013        19.4021 
 272   0.0000       0.717473        19.5234 
 273   0.0000       0.726072        19.7574 
 274   0.0000       0.731405        19.9025 
 275   0.0000       0.733804        19.9678 
 276   0.0000       0.737710        20.0741 
 277   0.0000       0.743197        20.2234 
 278   0.0000       0.744952        20.2712 
 279   0.0000       0.752358        20.4727 
 280   0.0000       0.762361        20.7449 
 281   0.0000       0.764926        20.8147 
 282   0.0000       0.769208        20.9312 
 283   0.0000       0.777710        21.1626 
 284   0.0000       0.781435        21.2639 
[...]
  | Av. % of trace(Dpq) retained        ...  99.525111885413
  | sigma^2 in % of trace(Dij) retained ...   8.56e+00
  | sigma^2 in % of trace(Dip) retained ...   1.47e+01
  | sigma^2 in % of trace(Dpq) retained ...   1.26e-01
  | Av. % of trace(Di) retained         ...  99.998496632046
  | Av. % of trace(Dp) retained         ...  99.999998828179
  | sigma^2 in % of trace(Di) retained  ...   7.88e-07
  | sigma^2 in % of trace(Dp) retained  ...   1.20e-12
 Distributions of % trace(Dij) recovered:
  |       >= 99.9  ...   105 ( 20.2 % of all IJ-pairs)
  |   [80.0, 90.0) ...    34 (  6.6 % of all IJ-pairs)
  |   [90.0, 99.0) ...   288 ( 55.5 % of all IJ-pairs)
  |   [99.0, 99.9) ...    92 ( 17.7 % of all IJ-pairs)
 Distributions of % trace(Dip) recovered:
  |   [70.0, 80.0) ...     1 (  0.9 % of all IP-pairs)
  |   [80.0, 90.0) ...     8 (  6.9 % of all IP-pairs)
  |   [90.0, 99.0) ...    63 ( 54.3 % of all IP-pairs)
  |   [99.0, 99.9) ...    44 ( 37.9 % of all IP-pairs)
 Distributions of % trace(Dpq) recovered:
  |       >= 99.9  ...     5 ( 33.3 % of all PQ-pairs)
  |   [99.0, 99.9) ...    10 ( 66.7 % of all PQ-pairs)
 Distributions of % trace(Di) recovered :
  |       >= 99.9  ...    43 (100.0 % of all I-pairs )
 Distributions of % trace(Dp) recovered :
  |       >= 99.9  ...     5 (100.0 % of all P-pairs )

                       ===========================
                       1136 OF 1731 PAIRS ARE KEPT
                       ===========================

 Initial PAO correlation energy (all pairs)    ...  -2.6919507545 Eh
 Energy constituents in PAO basis (Eh):
  | Vijab(+0) ...  -2.2613544020
  | Viab (-1) ...  -0.1758983673
  | Vab  (-2) ...  -0.0573605461
  | Va   (-1) ...  -0.0000420210
  | Vija (+1) ...  -0.0733169103
  | Vij  (+2) ...  -0.0155107493
  | Via  (+0) ...  -0.1083078594
  | Vi   (+1) ...  -0.0001598991
 Initial PNO correlation energy                ...  -2.6574068908 Eh
 Energy constituents in PNO basis (Eh):
  | Vijab(+0) ...  -2.2429138543 (err=  0.0184405476)
  | Viab (-1) ...  -0.1614445787 (err=  0.0144537886)
  | Vab  (-2) ...  -0.0569086559 (err=  0.0004518903)
  | Va   (-1) ...  -0.0000240987 (err=  0.0000179223)
  | Vija (+1) ...  -0.0723140684 (err=  0.0010028419)
  | Vij  (+2) ...  -0.0154576215 (err=  0.0000531278)
  | Via  (+0) ...  -0.1081846100 (err=  0.0001232494)
  | Vi   (+1) ...  -0.0001594034 (err=  0.0000004957)
 Sum of total truncation errors ...   0.0345438637 Eh
  | Pair screening ...   0.0114448599 Eh
  | PNO truncation ...   0.0230990037 Eh

 UMP2 correlation energy (PAO) ...  -2.6870616586
  | alpha-alpha ...  -0.3858529605 (NP_aa=  942)
  | alpha-beta  ...  -1.9948630063 (NP_ab= 1706)
  | beta -beta  ...  -0.3063456918 (NP_bb=  731)
 UMP2 correlation energy (PNO) ...  -2.6521555444
  | alpha-alpha ...  -0.3737712686 (err=  0.0120816919, NP_aa=  602)
  | alpha-beta  ...  -1.9760357705 (err=  0.0188272358, NP_ab= 1111)
  | beta -beta  ...  -0.3023485053 (err=  0.0039971866, NP_bb=  476)
 Sum of total UMP2 truncation errors ...   0.0349061142 Eh
  | Pair screening ...   0.0114529189 Eh
  | PNO truncation ...   0.0234531953 Eh
 Timing for NEV-PNO construction (sec.)
  | Intermediate construction  ..           54.627
  | Amplitude construction     ..           69.908
  | Total time                 ..          124.535
 Making pair pair interaction lists ...      ok
 Total size for 2-ext PNO integrals ...     11.0 MB
Checking the number of SOMO/SOMO doubles PNOs ... 
 #Truncate: (72, 72)[169] -> [84] .. 
 #Truncate: (73, 73)[173] -> [84] .. 
 #Truncate: (74, 74)[171] -> [84] .. 
 #Truncate: (75, 75)[171] -> [84] .. 
 #Truncate: (76, 76)[171] -> [84] .. 

--------------------------------
LOCAL RI TRANSFORMATION (VABPAO)
--------------------------------

Number of PAOs:    1030
Basis functions:   1025 (343 shells)
Aux. functions:    2424 (644 shells)

Processing maps (0.0 sec)
Average map sizes:
   Aux shells -> PAOs           1030.0
   PAOs       -> AO shells       343.0

Calculating integrals (199.1 sec, 37370.165 MB)
Finished
-----------------------------
LOCAL RI TRANSFORMATION (IJV)
-----------------------------

Orbital window:      29 to 76
Basis functions:   1025 (343 shells)
Aux. functions:    2424 (644 shells)

Processing maps (0.0 sec)
Average map sizes:
   Aux shells -> MOs(i)           46.5
   Aux shells -> MOs(j)           48.0
   MOs        -> AO shells       341.0

Calculating integrals (23.5 sec, 41.358 MB)
Sorting integrals (0.5 sec, 41.330 MB)
Total time for the integral transformation: 24.1 sec


-------------------------------------
Pair Pair Term precalculation with     
RI-(ij|mn) and (im|jn) transformation  
ON THE FLY                             
-------------------------------------

   IBatch   1 (of   2)              ... done ( 1707.809 sec)
   IBatch   2 (of   2)              ... done ( 1185.165 sec)
Total EXT                           ...        2892.974 sec

---------------------
RI-PNO TRANSFORMATION
---------------------

Total Number of PNOs                   ... 35021
Total Number of IJ-PNOs                ... 30854
Total Number of IP-PNOs                ...  3219
Total Number of PQ-PNOs                ...   948
Total Number of IJ-pairs               ...   995
Total Number of PI-pairs               ...   116
Total Number of PQ-pairs               ...    25
Average number of PNOs per pair        ...    30
Maximal number of PNOs per pair        ...    84
>> Statistics for ij-pairs..
   #pairs with  1 -  5 PNOs   :    0
   #pairs with  6 - 10 PNOs   :    0
   #pairs with 11 - 15 PNOs   :   66
   #pairs with 16 - 20 PNOs   :  236
   #pairs with 21 - 25 PNOs   :  186
   #pairs with 26 - 30 PNOs   :  140
   #pairs with 31 - 35 PNOs   :   70
   #pairs with 36 - 40 PNOs   :   64
   #pairs with 41 - 45 PNOs   :   40
   #pairs with 46 - 50 PNOs   :   23
   #pairs with 51 - 55 PNOs   :   35
   #pairs with 56 - 60 PNOs   :   52
   #pairs with 61 - 65 PNOs   :   78
   #pairs with 66 - 70 PNOs   :    2
   #pairs with 71 - 75 PNOs   :    3
>> Statistics for ip-pairs..
   #pairs with  1 -  5 PNOs   :    0
   #pairs with  6 - 10 PNOs   :    1
   #pairs with 11 - 15 PNOs   :   12
   #pairs with 16 - 20 PNOs   :    6
   #pairs with 21 - 25 PNOs   :   24
   #pairs with 26 - 30 PNOs   :   14
   #pairs with 31 - 35 PNOs   :   47
   #pairs with 36 - 40 PNOs   :   12
   #pairs with 41 - 45 PNOs   :    0
   #pairs with 46 - 50 PNOs   :    0
>> Statistics for pq-pairs..
   #pairs with  1 -  5 PNOs   :    0
   #pairs with  6 - 10 PNOs   :    0
   #pairs with 11 - 15 PNOs   :    0
   #pairs with 16 - 20 PNOs   :    0
   #pairs with 21 - 25 PNOs   :    8
   #pairs with 26 - 30 PNOs   :   12
   #pairs with 31 - 35 PNOs   :    0
   #pairs with 36 - 40 PNOs   :    0
   #pairs with 41 - 45 PNOs   :    0
   #pairs with 46 - 50 PNOs   :    0
   #pairs with 81 - 85 PNOs   :    5

Generation of (ij|ab)[P] integrals            ... on
Generation of (ia|bc)[P],(ja|bc)[P] integrals ... on
Storage of 3 and 4 external integrals         ... on
Generation of ALL (ka|bc)[P] integrals        ... on
Keep RI integrals in memory                   ... off

Ibatch:  1 (of  1)
Starting 2-4 index PNO integral generation ... done

Timings:
Total PNO integral transformation time     ...       2105.662 sec
Size of the 3-external file                ...       284 MB
Size of the 4-external file                ...      1904 MB
Size of the IKJL file                      ...        19 MB
Size of the all 3-external file            ...      6818 MB
Size of the 1-external file                ...        22 MB

Size of the PAO/PNO coefficient matrices   ...     230.8 MB

Making pair/pair overlap matrices          ... done (  340.188 sec)
Size of the pair overlap file              ...    2491.0 MB
Total # unrestricted pairs ...       2189
  # of alpha-alpha pairs   ...        602
  # of alpha-beta pairs    ...       1111
  # of beta-beta pairs     ...        476
Constructing the guess amplitudes          ... done (    0.610 sec)

-------------------------
FINAL STARTUP INFORMATION
-------------------------

E(0)                                       ...  -3028.421044314
E(SL-UMP2 in NEV-PNO space)                ...     -2.688014384
Initial E(tot)                             ...  -3031.109058698
<T|T>                                      ...      0.535274192
Number of unrestricted pairs included      ... 2189
Total number of pairs                      ... 4095
----------------------------------------------------------
                     OPEN-SHELL COUPLED CLUSTER ITERATIONS
----------------------------------------------------------

Number of PNO amplitudes to be optimized        ...          2122128
Number of canonical amplitudes for strong pairs ...       1977140059
Untruncated number of canonical amplitudes      ...       3698645738

Iter       E(tot)           E(Corr)          Delta-E          Residual     Time
  0  -3031.116208859     -2.659305706      0.028708678      0.022871821 2166.30
                           *** Turning on DIIS ***
  1  -3031.229664611     -2.772761457     -0.113455751      0.009936447 2208.74
  2  -3031.294133620     -2.837230466     -0.064469009      0.009041838 2209.48
  3  -3031.315173025     -2.858269872     -0.021039405      0.003521481 2219.32
  4  -3031.322213037     -2.865309884     -0.007040012      0.002850313 2217.72
  5  -3031.325792277     -2.868889124     -0.003579240      0.002175447 2220.93
  6  -3031.327089015     -2.870185861     -0.001296738      0.000976398 2220.90
  7  -3031.327866345     -2.870963192     -0.000777330      0.000554283 2223.17
  8  -3031.328027987     -2.871124833     -0.000161642      0.000199173 2221.83
  9  -3031.328070164     -2.871167010     -0.000042177      0.000085141 2218.85
 10  -3031.328066280     -2.871163126      0.000003884      0.000063694 2220.94
 11  -3031.328075459     -2.871172305     -0.000009179      0.000033003 2220.59
 12  -3031.328080301     -2.871177148     -0.000004843      0.000018612 2214.89
 13  -3031.328082691     -2.871179537     -0.000002390      0.000009428 2164.15
               --- The CCSD iterations have converged ---

E(0)                                       ...  -3028.421044314
E(CORR)(strong-pairs)                      ...     -2.871179537
E(CORR)(weak-pairs)                        ...     -0.035858839
E(CORR)(corrected)                         ...     -2.907038376
E(TOT)                                     ...  -3031.328082691
Singles norm <S|S>**1/2                    ...      0.185823129 ( 0.061190726, 0.124632403)  
T1 diagnostic                              ...      0.019479557                              
<S**2>(linearized)                         ...      8.7507364 (ideal value:      8.7500000)

----------------------
LARGEST PNO AMPLITUDES
----------------------
  45a-> 78a  45b-> 78b       0.063230
  51b-> 76b  -1b-> -1b       0.059022
  49b-> 72b  -1b-> -1b       0.046987
  44a-> 78a  44b-> 78b       0.046806
  29b-> 76b  -1b-> -1b       0.046223
  56a-> 77a  56b-> 77b       0.045523
  45a-> 77a  45b-> 77b       0.045161
  52b-> 76b  -1b-> -1b       0.044704
  49b-> 74b  -1b-> -1b       0.044571
  67a-> 77a  67b-> 77b       0.043766
  59a-> 77a  59b-> 77b       0.043253
  63a-> 77a  63b-> 77b       0.043237
  39b-> 73b  -1b-> -1b       0.042740
  49b-> 75b  -1b-> -1b       0.042354
  71a-> 77a  71b-> 77b       0.042244
  65a-> 77a  65b-> 77b       0.042159

Total # unrestricted pairs ...       1190
  # of alpha-alpha pairs   ...        340
  # of alpha-beta pairs    ...        595
  # of beta-beta pairs     ...        255

-------------------------------------------
DLPNO BASED TRIPLES CORRECTION
-------------------------------------------

Singles multiplier          ...  1.000000
Fragment selection                          .... not used
TCutTNO                     ... 1.000e-09
TCutMP2Pairs                ... 1.000e-05
TCutDOStrong                ... 2.000e-02
TCutMKNStrong               ... 1.000e-02
TCutDOWeak                  ... 4.000e-02
TCutMKNWeak                 ... 1.000e-01
NTCutTNO                    ... 1

Number of Triples that are to be computed         ...     35986

 . . . . . . . . .
10% done  
20% done  
30% done  
40% done  
50% done  
60% done  
70% done  
80% done  
90% done  
          Batch   1   done (  17518.899 sec)

Triples-Correction TCutTNO=   1.000e-09 (NWeakPairs = 0  1  2  3)  -0.117060891357   -0.001825873540    0.000000000000    0.000000000000
Triples-Correction  -0.118886764897

Triples timings:
Total time                      ... 18198.582 sec

Triples List generation         ...     0.000 sec
TNO generation                  ...   679.157 sec
Pair density generation         ...     0.089 sec
Look up tables                  ...     0.122 sec
Generating 3-index integrals    ... 11176.787 sec
Make 4-ind.int. from 3-ind.int  ...     3.997 sec
Projecting amplitudes (D + S)   ...  6084.673 sec
Sorting integrals for spin cases...    52.755 sec
Calculate W0/W1                 ...   161.477 sec
Energy contr. (sum over a,b,c)  ...    39.287 sec

Everything after 3-index        ...  6488.487 sec

Energy contribution AAA         ...    24.527 sec
Energy contribution AAB         ...   113.009 sec
Energy contribution ABB         ...   102.637 sec
Energy contribution BBB         ...    13.384 sec
prep                ...     3.322 sec
makeTTNO            ...  6023.396 sec
copyij              ...     0.131 sec
copyil              ...     4.249 sec
transposeij         ...     0.080 sec
newMatInDoubleProj  ...    57.310 sec
BlasInDoubleProj    ...  3230.920 sec
ProjSingles         ...    50.876 sec
ProjDoubles         ...  6033.797 sec
overall Doubles for projection      ... 3308660
used Doubles for projection         ... 3308660


Number of Triples   (0, 1, 2, 3 weak pairs; overall):  17608   12239       0       0  ( 29847)
Number of Atoms     (0, 1, 2, 3 weak pairs; overall):   20.5    14.7     0.0     0.0  (    29)
Number of PAOs      (0, 1, 2, 3 weak pairs; overall):  786.2   595.5     0.0     0.0  (  1025)
Number of AuxFcns   (0, 1, 2, 3 weak pairs; overall):  984.3   568.9     0.0     0.0  (  2424)
Number of TNOs (0, 1, 2, 3 weak pairs         ):   78.3    56.0     0.0     0.0
Aver. Number of NTNO, Atoms, PAOs, AuxFcns / Triples:  29847    69.1    18.1   708.0   813.9

Triples Correction (T)                     ...     -0.118886765
    alpha-alpha-alpha ... -0.003897905 (  3.3%)
    alpha-alpha-beta  ... -0.055812861 ( 46.9%)
    alpha-beta -beta  ... -0.055058960 ( 46.3%)
    beta -beta -beta  ... -0.004117039 (  3.5%)
Final correlation energy                   ...     -3.025925141
E(CCSD)                                    ...  -3031.328082691
E(CCSD(T))                                 ...  -3031.446969456

----------------------------
STATISTICS FOR PAIR-ENERGIES
----------------------------
Minimum, maximum and average ratios of UMP and CCSD pair-energies ... 0.50, 1.43, 1.02


------------------------------------------------------------------------------- 
                                     TIMINGS                                   
------------------------------------------------------------------------------- 


Total execution time                   ...    58366.324 sec

Localization of occupied MO's          ...       10.223 sec (  0.0%)
Fock Matrix Formation                  ...     1414.849 sec (  2.4%)
Differential overlap integrals         ...        1.371 sec (  0.0%)
Organizing maps                        ...        1.700 sec (  0.0%)
RI 3-index integral generations        ...      286.442 sec (  0.5%)
RI-PNO integral transformation         ...     5460.475 sec (  9.4%)
Initial Guess                          ...     1888.351 sec (  3.2%)
DIIS Solver                            ...       16.638 sec (  0.0%)
State Vector Update                    ...        0.788 sec (  0.0%)
Sigma-vector construction              ...    30947.835 sec ( 53.0%)
  <0|H|D>                              ...        0.032 sec (  0.0% of sigma)
  <D|H|D>(0-ext)                       ...     5737.292 sec ( 18.5% of sigma)
  <D|H|D>(2-ext Fock)                  ...        1.743 sec (  0.0% of sigma)
  <D|H|D>(2-ext)                       ...     4048.790 sec ( 13.1% of sigma)
  <D|H|D>(4-ext)                       ...      160.451 sec (  0.5% of sigma)
  <D|H|D>(4-ext-corr)                  ...      992.486 sec (  3.2% of sigma)
  CCSD doubles correction              ...      548.315 sec (  1.8% of sigma)
  <S|H|S>                              ...      787.873 sec (  2.5% of sigma)
  <S|H|D>(1-ext)                       ...      265.309 sec (  0.9% of sigma)
  <D|H|S>(1-ext)                       ...        0.615 sec (  0.0% of sigma)
  <S|H|D>(3-ext)                       ...       21.505 sec (  0.1% of sigma)
  CCSD singles correction              ...        0.004 sec (  0.0% of sigma)
  Fock-dressing                        ...    10101.071 sec ( 32.6% of sigma)
  Singles amplitudes                   ...      117.350 sec (  0.4% of sigma)
  (ik|jl)-dressing                     ...     6492.673 sec ( 21.0% of sigma)
  (ij|ab),(ia|jb)-dressing             ...     1587.056 sec (  5.1% of sigma)
  Pair energies                        ...        0.153 sec (  0.0% of sigma)
Total Time for computing (T)           ...    18696.477 sec ( 32.0% of ALL)


-------------------------   --------------------
FINAL SINGLE POINT ENERGY     -3031.446969455715
-------------------------   --------------------


                            ***************************************
                            *     ORCA property calculations      *
                            ***************************************

                                    ---------------------
                                    Active property flags
                                    ---------------------
   (+) Dipole Moment


------------------------------------------------------------------------------
                       ORCA ELECTRIC PROPERTIES CALCULATION
------------------------------------------------------------------------------

Dipole Moment Calculation                       ... on
Quadrupole Moment Calculation                   ... off
Polarizability Calculation                      ... off
GBWName                                         ... simple-grid-190-215-b3lyp_d3bj-631gd-gas-singlepoint-DLPNO_CCSD_T1-NormalPNO-augtz-gas.gbw
Electron density file                           ... simple-grid-190-215-b3lyp_d3bj-631gd-gas-singlepoint-DLPNO_CCSD_T1-NormalPNO-augtz-gas.scfp.tmp
The origin for moment calculation is the CENTER OF MASS  = ( 0.302207,  0.023709  0.017725)

-------------
DIPOLE MOMENT
-------------
                                X             Y             Z
Electronic contribution:     40.38240       3.81477       2.16558
Nuclear contribution   :    -45.02888      -3.53262      -2.64101
                        -----------------------------------------
Total Dipole Moment    :     -4.64648       0.28215      -0.47543
                        -----------------------------------------
Magnitude (a.u.)       :      4.67926
Magnitude (Debye)      :     11.89372



--------------------
Rotational spectrum 
--------------------
 
Rotational constants in cm-1:     0.019085     0.011771     0.010725 
Rotational constants in MHz :   572.148500   352.875552   321.539500 

 Dipole components along the rotational axes: 
x,y,z [a.u.] :     4.648997     0.252357    -0.467524 
x,y,z [Debye]:    11.816812     0.641441    -1.188352 

 

Timings for individual modules:

Sum of individual times         ...    74837.102 sec (=1247.285 min)
GTO integral calculation        ...       12.773 sec (=   0.213 min)   0.0 %
SCF iterations                  ...    16442.246 sec (= 274.037 min)  22.0 %
MDCI module                     ...    58382.083 sec (= 973.035 min)  78.0 %
                             ****ORCA TERMINATED NORMALLY****
TOTAL RUN TIME: 0 days 20 hours 47 minutes 20 seconds 739 msec
