
                                 *****************
                                 * O   R   C   A *
                                 *****************

           --- An Ab Initio, DFT and Semiempirical electronic structure package ---

                  #######################################################
                  #                        -***-                        #
                  #          Department of theory and spectroscopy      #
                  #               Directorship: Frank Neese             #
                  #        Max Planck Institute fuer Kohlenforschung    #
                  #                Kaiser Wilhelm Platz 1               #
                  #                 D-45470 Muelheim/Ruhr               #
                  #                      Germany                        #
                  #                                                     #
                  #                  All rights reserved                #
                  #                        -***-                        #
                  #######################################################


                         Program Version 4.1.2  - RELEASE  -


 With contributions from (in alphabetic order):
   Daniel Aravena         : Magnetic Properties
   Michael Atanasov       : Ab Initio Ligand Field Theory
   Alexander A. Auer      : GIAO ZORA
   Ute Becker             : Parallelization
   Giovanni Bistoni       : ED, Open-shell LED
   Martin Brehm           : Molecular dynamics
   Dmytro Bykov           : SCF Hessian
   Vijay G. Chilkuri      : MRCI spin determinant printing
   Dipayan Datta          : RHF DLPNO-CCSD density
   Achintya Kumar Dutta   : EOM-CC, STEOM-CC
   Dmitry Ganyushin       : Spin-Orbit,Spin-Spin,Magnetic field MRCI
   Miquel Garcia          : C-PCM Hessian
   Yang Guo               : DLPNO-NEVPT2, CIM, IAO-localization
   Andreas Hansen         : Spin unrestricted coupled pair/coupled cluster methods
   Benjamin Helmich-Paris : CASSCF linear response (MC-RPA)
   Lee Huntington         : MR-EOM, pCC
   Robert Izsak           : Overlap fitted RIJCOSX, COSX-SCS-MP3, EOM
   Christian Kollmar      : KDIIS, OOCD, Brueckner-CCSD(T), CCSD density
   Simone Kossmann        : Meta GGA functionals, TD-DFT gradient, OOMP2, MP2 Hessian
   Martin Krupicka        : AUTO-CI
   Lucas Lang             : DCDCAS
   Dagmar Lenk            : GEPOL surface, SMD
   Dimitrios Liakos       : Extrapolation schemes; parallel MDCI
   Dimitrios Manganas     : ROCIS; embedding schemes
   Dimitrios Pantazis     : SARC Basis sets
   Taras Petrenko         : DFT Hessian,TD-DFT gradient, ASA, ECA, R-Raman, ABS, FL, XAS/XES, NRVS
   Peter Pinski           : DLPNO-MP2, DLPNO-MP2 Gradient
   Christoph Reimann      : Effective Core Potentials
   Marius Retegan         : Local ZFS, SOC
   Christoph Riplinger    : Optimizer, TS searches, QM/MM, DLPNO-CCSD(T), (RO)-DLPNO pert. Triples
   Tobias Risthaus        : Range-separated hybrids, TD-DFT gradient, RPA, STAB
   Michael Roemelt        : Restricted open shell CIS
   Masaaki Saitow         : Open-shell DLPNO
   Barbara Sandhoefer     : DKH picture change effects
   Avijit Sen             : IP-ROCIS
   Kantharuban Sivalingam : CASSCF convergence, NEVPT2, FIC-MRCI
   Bernardo de Souza      : ESD, SOC TD-DFT
   Georgi Stoychev        : AutoAux, RI-MP2 NMR
   Willem Van den Heuvel  : Paramagnetic NMR
   Boris Wezisla          : Elementary symmetry handling
   Frank Wennmohs         : Technical directorship


 We gratefully acknowledge several colleagues who have allowed us to
 interface, adapt or use parts of their codes:
   Stefan Grimme, W. Hujo, H. Kruse,             : VdW corrections, initial TS optimization,
                  C. Bannwarth                     DFT functionals, gCP, sTDA/sTD-DF
   Ed Valeev                                     : LibInt (2-el integral package), F12 methods
   Garnet Chan, S. Sharma, J. Yang, R. Olivares  : DMRG
   Ulf Ekstrom                                   : XCFun DFT Library
   Mihaly Kallay                                 : mrcc  (arbitrary order and MRCC methods)
   Andreas Klamt, Michael Diedenhofen            : otool_cosmo (COSMO solvation model)
   Jiri Pittner, Ondrej Demel                    : Mk-CCSD
   Frank Weinhold                                : gennbo (NPA and NBO analysis)
   Christopher J. Cramer and Donald G. Truhlar   : smd solvation model
   Lars Goerigk                                  : TD-DFT with DH, B97 family of functionals
   V. Asgeirsson, H. Jonsson                     : NEB implementation
   FAccTs GmbH                                   : IRC, NEB, NEB-TS, Multilevel


 Your calculation uses the libint2 library for the computation of 2-el integrals
 For citations please refer to: http://libint.valeyev.net

 This ORCA versions uses:
   CBLAS   interface :  Fast vector & matrix operations
   LAPACKE interface :  Fast linear algebra routines
   SCALAPACK package :  Parallel linear algebra routines


----- Orbital basis set information -----
Your calculation utilizes the basis: aug-cc-pVTZ 
    H, B-Ne : Obtained from the ccRepo (grant-hill.group.shef.ac.uk/ccrepo) Feb. 2017
              R. A. Kendall, T. H. Dunning, Jr., R. J. Harrison, J. Chem. Phys. 96, 6796 (1992)
         He : Obtained from the ccRepo (grant-hill.group.shef.ac.uk/ccrepo) Feb. 2017
              D. E. Woon, T. H. Dunning, Jr., J. Chem. Phys. 100, 2975 (1994)
  Li-Be, Na : Obtained from the ccRepo (grant-hill.group.shef.ac.uk/ccrepo) Feb. 2017
              B. P. Prascher, D. E. Woon, K. A. Peterson, T. H. Dunning, Jr., A. K. Wilson, Theor. Chem. Acc. 128, 69 (2011)
         Mg : Obtained from the Peterson Research Group Website (tyr0.chem.wsu.edu/~kipeters) Feb. 2017
              B. P. Prascher, D. E. Woon, K. A. Peterson, T. H. Dunning, Jr., A. K. Wilson, Theor. Chem. Acc. 128, 69 (2011)
      Al-Ar : Obtained from the ccRepo (grant-hill.group.shef.ac.uk/ccrepo) Feb. 2017
              D. E. Woon, T. H. Dunning, Jr., J. Chem. Phys. 98, 1358 (1993)
      Sc-Zn : Obtained from the ccRepo (grant-hill.group.shef.ac.uk/ccrepo) Feb. 2017
              N. B. Balabanov, K. A. Peterson, J. Chem. Phys. 123, 064107 (2005)
              N. B. Balabanov, K. A. Peterson, J. Chem. Phys. 125, 074110 (2006)
      Ga-Kr : Obtained from the ccRepo (grant-hill.group.shef.ac.uk/ccrepo) Feb. 2017
              A. K. Wilson, D. E. Woon, K. A. Peterson, T. H. Dunning, Jr., J. Chem. Phys. 110, 7667 (1999)
     Ag, Au : Obtained from the Peterson Research Group Website (tyr0.chem.wsu.edu/~kipeters) Feb. 2017
              K. A. Peterson, C. Puzzarini, Theor. Chem. Acc. 114, 283 (2005)

----- AuxJ basis set information -----
Your calculation utilizes the AutoAux generation procedure.
  G. L. Stoychev, A. A. Auer, F. Neese, J. Chem. Theory Comput. 13, 554 (2017)

----- AuxC basis set information -----
Your calculation utilizes the auxiliary basis: aug-cc-pVTZ/C 
  H-He, B-F, Al-Ar, Ga-Kr : Obtained from the EMSL Basis Set Exchange (bse.pnl.gov) Feb. 2017
                            F. Weigend, A. Kohn, C. Hattig, J. Chem. Phys. 116, 3175 (2002)
                   Be, Mg : Obtained from the TURBOMOLE 7.0 basis set library
                            C. Haettig, Phys. Chem. Chem. Phys. 7, 59 (2005)
                       Ne : Obtained from the EMSL Basis Set Exchange (bse.pnl.gov) Feb. 2017
                            C. Haettig, Phys. Chem. Chem. Phys. 7, 59 (2005)
                            F. Weigend, A. Kohn, C. Hattig, J. Chem. Phys. 116, 3175 (2002)
                    Sc-Zn : Obtained from the EMSL Basis Set Exchange (bse.pnl.gov) Feb. 2017
                            J. G. Hill, J. A. Platts, J. Chem. Phys. 128, 044104 (2008)

----- AuxJK basis set information -----
Your calculation utilizes the AutoAux generation procedure.
  G. L. Stoychev, A. A. Auer, F. Neese, J. Chem. Theory Comput. 13, 554 (2017)

================================================================================
                                        WARNINGS
                       Please study these warnings very carefully!
================================================================================


WARNING: your system is open-shell and RHF/RKS was chosen
  ===> : WILL SWITCH to UHF/UKS


WARNING: MDCI localization with Augmented Hessian Foster-Boys
  ===> : Switching off randomization!

WARNING: Post HF methods need fully converged wavefunctions
  ===> : Setting SCFConvForced true
         You can overwrite this default with %scf ConvForced false 


INFO   : the flag for use of LIBINT has been found!

================================================================================
                                       INPUT FILE
================================================================================
NAME = simple-grid-275-300-b3lyp_d3bj-631gd-gas-singlepoint-DLPNO_CCSD_T1-NormalPNO-augtz-gas.inp
|  1> ! aug-cc-pVTZ aug-cc-pVTZ/C DLPNO-CCSD(T1) TightSCF NormalPNO UNO MiniPrint AutoAux
|  2> %pal nproc 10 end
|  3> %maxcore 20000
|  4> %mdci
|  5>      density none
|  6> end
|  7> 
|  8> * xyz 0 6
|  9>  O      0.14958000      0.41888200     -0.89837400
| 10>  C      0.94407700      1.36554500     -0.69129500
| 11>  C      3.06484500      0.16175100      0.57981800
| 12>  C      2.73150400     -0.91714800     -0.15761100
| 13>  C      3.26933600     -1.11383600     -1.54929900
| 14> Fe     -1.50115900     -0.17708200      0.00614200
| 15> Cl     -2.04595000     -2.00932600     -1.02842400
| 16>  C      1.81637500     -2.01018200      0.31341900
| 17> Cl     -2.79284500      1.55283700     -0.34295800
| 18> Cl     -1.04841900     -0.45639500      2.13460900
| 19>  H      3.77372500      0.86432600      0.14009400
| 20>  H      2.34389900     -2.97317200      0.30587300
| 21>  H      1.41779600     -1.84719000      1.31448000
| 22>  H      0.96961800     -2.12048200     -0.37743600
| 23>  H      3.83969300     -2.05037800     -1.60352100
| 24>  H      2.45124200     -1.21096800     -2.27595000
| 25>  H      3.92976300     -0.30006400     -1.86236800
| 26>  C      2.77460400      0.37240500      2.04287400
| 27>  H      3.56694900     -0.08300700      2.65257000
| 28>  H      2.75810000      1.43612900      2.29918500
| 29>  H      1.82471200     -0.06486800      2.35936900
| 30>  C      0.77286000      2.26546900      0.49147600
| 31>  H      1.66015900      2.86989200      0.68185100
| 32>  H     -0.06291300      2.93662800      0.24248400
| 33>  H      0.48460200      1.70927800      1.38396200
| 34>  C      1.79715600      1.82663100     -1.83342000
| 35>  H      1.22841400      2.62257400     -2.33681800
| 36>  H      2.74180900      2.25525100     -1.49674000
| 37>  H      1.96402300      1.02434500     -2.55036200
| 38> *
| 39> 
| 40> 
| 41>                          ****END OF INPUT****
================================================================================

                       ****************************
                       * Single Point Calculation *
                       ****************************

---------------------------------
CARTESIAN COORDINATES (ANGSTROEM)
---------------------------------
  O      0.149580    0.418882   -0.898374
  C      0.944077    1.365545   -0.691295
  C      3.064845    0.161751    0.579818
  C      2.731504   -0.917148   -0.157611
  C      3.269336   -1.113836   -1.549299
  Fe    -1.501159   -0.177082    0.006142
  Cl    -2.045950   -2.009326   -1.028424
  C      1.816375   -2.010182    0.313419
  Cl    -2.792845    1.552837   -0.342958
  Cl    -1.048419   -0.456395    2.134609
  H      3.773725    0.864326    0.140094
  H      2.343899   -2.973172    0.305873
  H      1.417796   -1.847190    1.314480
  H      0.969618   -2.120482   -0.377436
  H      3.839693   -2.050378   -1.603521
  H      2.451242   -1.210968   -2.275950
  H      3.929763   -0.300064   -1.862368
  C      2.774604    0.372405    2.042874
  H      3.566949   -0.083007    2.652570
  H      2.758100    1.436129    2.299185
  H      1.824712   -0.064868    2.359369
  C      0.772860    2.265469    0.491476
  H      1.660159    2.869892    0.681851
  H     -0.062913    2.936628    0.242484
  H      0.484602    1.709278    1.383962
  C      1.797156    1.826631   -1.833420
  H      1.228414    2.622574   -2.336818
  H      2.741809    2.255251   -1.496740
  H      1.964023    1.024345   -2.550362

----------------------------
CARTESIAN COORDINATES (A.U.)
----------------------------
  NO LB      ZA    FRAG     MASS         X           Y           Z
   0 O     8.0000    0    15.999    0.282665    0.791572   -1.697681
   1 C     6.0000    0    12.011    1.784047    2.580506   -1.306358
   2 C     6.0000    0    12.011    5.791718    0.305665    1.095697
   3 C     6.0000    0    12.011    5.161794   -1.733159   -0.297842
   4 C     6.0000    0    12.011    6.178150   -2.104845   -2.927751
   5 Fe   26.0000    0    55.850   -2.836779   -0.334636    0.011607
   6 Cl   17.0000    0    35.453   -3.866285   -3.797076   -1.943440
   7 C     6.0000    0    12.011    3.432451   -3.798693    0.592276
   8 Cl   17.0000    0    35.453   -5.277712    2.934437   -0.648097
   9 Cl   17.0000    0    35.453   -1.981225   -0.862462    4.033826
  10 H     1.0000    0     1.008    7.131307    1.633339    0.264739
  11 H     1.0000    0     1.008    4.429327   -5.618481    0.578016
  12 H     1.0000    0     1.008    2.679246   -3.490683    2.484007
  13 H     1.0000    0     1.008    1.832312   -4.007130   -0.713251
  14 H     1.0000    0     1.008    7.255968   -3.874653   -3.030216
  15 H     1.0000    0     1.008    4.632176   -2.288398   -4.300922
  16 H     1.0000    0     1.008    7.426176   -0.567039   -3.519365
  17 C     6.0000    0    12.011    5.243242    0.703743    3.860472
  18 H     1.0000    0     1.008    6.740557   -0.156860    5.012631
  19 H     1.0000    0     1.008    5.212054    2.713891    4.344830
  20 H     1.0000    0     1.008    3.448206   -0.122583    4.458561
  21 C     6.0000    0    12.011    1.460494    4.281116    0.928755
  22 H     1.0000    0     1.008    3.137246    5.423310    1.288512
  23 H     1.0000    0     1.008   -0.118888    5.549423    0.458228
  24 H     1.0000    0     1.008    0.915765    3.230067    2.615309
  25 C     6.0000    0    12.011    3.396133    3.451832   -3.464662
  26 H     1.0000    0     1.008    2.321366    4.955947   -4.415946
  27 H     1.0000    0     1.008    5.181268    4.261807   -2.828429
  28 H     1.0000    0     1.008    3.711466    1.935732   -4.819486



           ************************************************************
           *        Program running with 10 parallel MPI-processes    *
           *              working on a common directory               *
           ************************************************************


           ************************************************************
           *        Program running with 10 parallel MPI-processes    *
           *              working on a common directory               *
           ************************************************************

Diagonalization of the overlap matrix:
Smallest eigenvalue                        ... 9.646e-07
Time for diagonalization                   ...    0.345 sec
Threshold for overlap eigenvalues          ... 1.000e-08
Number of eigenvalues below threshold      ... 0
Time for construction of square roots      ...    0.285 sec
Total time needed                          ...    0.634 sec

-------------------
DFT GRID GENERATION
-------------------

General Integration Accuracy     IntAcc      ...  4.340
Radial Grid Type                 RadialGrid  ... Gauss-Chebyshev
Angular Grid (max. acc.)         AngularGrid ... Lebedev-110
Angular grid pruning method      GridPruning ... 3 (G Style)
Weight generation scheme         WeightScheme... Becke
Basis function cutoff            BFCut       ...    1.0000e-11
Integration weight cutoff        WCut        ...    1.0000e-14
Grids for H and He will be reduced by one unit

# of grid points (after initial pruning)     ...  36112 (   0.0 sec)
# of grid points (after weights+screening)   ...  32467 (   0.1 sec)
nearest neighbour list constructed           ...    0.0 sec
Grid point re-assignment to atoms done       ...    0.0 sec
Grid point division into batches done        ...    0.0 sec
Reduced shell lists constructed in    0.3 sec

Total number of grid points                  ...    32467
Total number of batches                      ...      522
Average number of points per batch           ...       62
Average number of grid points per atom       ...     1120
Average number of shells per batch           ...   284.20 (82.86%)
Average number of basis functions per batch  ...   841.72 (82.12%)
Average number of large shells per batch     ...   229.26 (80.67%)
Average number of large basis fcns per batch ...   680.37 (80.83%)
Maximum spatial batch extension              ...   7.21,  5.93,  9.42 au
Average spatial batch extension              ...   0.20,  0.19,  0.20 au

Time for grid setup =    0.384 sec

Loading Hartree-Fock densities                     ... done
Calculating cut-offs                               ... done
Setting up the integral package                    ... done
Initializing the effective Hamiltonian             ... done
Starting the Coulomb interaction                   ... done (   1.1 sec)
Reading the grid                                   ... done
Mapping shells                                     ... done
Starting the XC term evaluation                    ... done (   0.9 sec)
Transforming the Hamiltonian                       ... done (   0.2 sec)
Diagonalizing the Hamiltonian                      ... done (   0.4 sec)
Back transforming the eigenvectors                 ... done (   0.1 sec)
Now organizing SCF variables                       ... done
--------------
SCF ITERATIONS
--------------
ITER       Energy         Delta-E        Max-DP      RMS-DP      [F,P]     Damp
               ***  Starting incremental Fock matrix formation  ***
  0  -3027.6012130632   0.000000000000 0.15645727  0.00085779  0.2421917 0.7000
  1  -3027.8548870250  -0.253673961798 0.11881816  0.00067744  0.1538923 0.7000
                               ***Turning on DIIS***
  2  -3028.0246422470  -0.169755222025 0.08540018  0.00050263  0.1095010 0.7000
  3  -3029.6057202462  -1.581077999219 0.24002006  0.00128512  0.0817381 0.0000
  4  -3028.3184738129   1.287246433255 0.04057199  0.00021267  0.0192492 0.0000
  5  -3028.4411193922  -0.122645579283 0.03939718  0.00016821  0.0107859 0.0000
  6  -3028.4895774113  -0.048458019068 0.02005684  0.00006864  0.0052419 0.0000
  7  -3028.5023663700  -0.012788958666 0.00877364  0.00003157  0.0029941 0.0000
  8  -3028.4908682561   0.011498113890 0.00652526  0.00001820  0.0015869 0.0000
  9  -3028.4874073178   0.003460938296 0.00226144  0.00001052  0.0006569 0.0000
 10  -3028.4750512926   0.012356025146 0.00092691  0.00000325  0.0004095 0.0000
 11  -3028.4805172950  -0.005466002401 0.00027063  0.00000165  0.0000881 0.0000
 12  -3028.4785241419   0.001993153107 0.00019851  0.00000119  0.0000214 0.0000
 13  -3028.4784755626   0.000048579307 0.00027816  0.00000148  0.0000090 0.0000
 14  -3028.4784861179  -0.000010555304 0.00034014  0.00000163  0.0000058 0.0000
 15  -3028.4784446056   0.000041512364 0.00028370  0.00000135  0.0000037 0.0000
 16  -3028.4784469379  -0.000002332394 0.00041944  0.00000183  0.0000031 0.0000
 17  -3028.4784622895  -0.000015351520 0.00047565  0.00000158  0.0000021 0.0000
 18  -3028.4784457601   0.000016529361 0.00058556  0.00000253  0.0000015 0.0000
                            ***DIIS convergence achieved***

               *****************************************************
               *                     SUCCESS                       *
               *           SCF CONVERGED AFTER  19 CYCLES          *
               *****************************************************

Total Energy       :        -3028.47845065 Eh          -82409.08824 eV
  Last Energy change         ...   -4.8871e-06  Tolerance :   1.0000e-08
  Last MAX-Density change    ...    2.2209e-04  Tolerance :   1.0000e-07
             **** THE GBW FILE WAS UPDATED (simple-grid-275-300-b3lyp_d3bj-631gd-gas-singlepoint-DLPNO_CCSD_T1-NormalPNO-augtz-gas.gbw) ****
             **** DENSITY FILE WAS UPDATED (simple-grid-275-300-b3lyp_d3bj-631gd-gas-singlepoint-DLPNO_CCSD_T1-NormalPNO-augtz-gas.scfp.tmp) ****
             **** ENERGY FILE WAS UPDATED (simple-grid-275-300-b3lyp_d3bj-631gd-gas-singlepoint-DLPNO_CCSD_T1-NormalPNO-augtz-gas.en.tmp) ****
----------------------
UHF SPIN CONTAMINATION
----------------------

Expectation value of <S**2>     :     8.765058
Ideal value S*(S+1) for S=2.5   :     8.750000
Deviation                       :     0.015058

----------------
ORBITAL ENERGIES
----------------
                 SPIN UP ORBITALS
  NO   OCC          E(Eh)            E(eV) 
   0   1.0000    -261.576697     -7117.8638 
   1   1.0000    -104.794840     -2851.6126 
   2   1.0000    -104.791490     -2851.5214 
   3   1.0000    -104.789228     -2851.4599 
   4   1.0000     -32.244399      -877.4147 
   5   1.0000     -27.720911      -754.3243 
   6   1.0000     -27.719726      -754.2921 
   7   1.0000     -27.719513      -754.2863 
   8   1.0000     -20.624604      -561.2240 
   9   1.0000     -11.422039      -310.8095 
  10   1.0000     -11.278589      -306.9060 
  11   1.0000     -11.273425      -306.7655 
  12   1.0000     -11.263872      -306.5055 
  13   1.0000     -11.242609      -305.9269 
  14   1.0000     -11.242076      -305.9124 
  15   1.0000     -11.234755      -305.7132 
  16   1.0000     -11.228325      -305.5382 
  17   1.0000     -10.521576      -286.3066 
  18   1.0000     -10.518183      -286.2143 
  19   1.0000     -10.515873      -286.1515 
  20   1.0000      -7.988402      -217.3755 
  21   1.0000      -7.987658      -217.3552 
  22   1.0000      -7.987606      -217.3538 
  23   1.0000      -7.985055      -217.2844 
  24   1.0000      -7.984284      -217.2634 
  25   1.0000      -7.984232      -217.2620 
  26   1.0000      -7.982661      -217.2192 
  27   1.0000      -7.982008      -217.2015 
  28   1.0000      -7.981957      -217.2001 
  29   1.0000      -4.599239      -125.1517 
  30   1.0000      -3.212418       -87.4143 
  31   1.0000      -3.210623       -87.3655 
  32   1.0000      -3.210445       -87.3607 
  33   1.0000      -1.467383       -39.9295 
  34   1.0000      -1.123439       -30.5703 
  35   1.0000      -1.101590       -29.9758 
  36   1.0000      -1.068034       -29.0627 
  37   1.0000      -1.062126       -28.9019 
  38   1.0000      -1.058960       -28.8158 
  39   1.0000      -1.021450       -27.7951 
  40   1.0000      -1.009204       -27.4618 
  41   1.0000      -0.956637       -26.0314 
  42   1.0000      -0.943708       -25.6796 
  43   1.0000      -0.928146       -25.2561 
  44   1.0000      -0.927977       -25.2515 
  45   1.0000      -0.917235       -24.9592 
  46   1.0000      -0.916578       -24.9414 
  47   1.0000      -0.893959       -24.3259 
  48   1.0000      -0.815808       -22.1993 
  49   1.0000      -0.727376       -19.7929 
  50   1.0000      -0.714187       -19.4340 
  51   1.0000      -0.703978       -19.1562 
  52   1.0000      -0.683654       -18.6032 
  53   1.0000      -0.652874       -17.7656 
  54   1.0000      -0.621011       -16.8986 
  55   1.0000      -0.619065       -16.8456 
  56   1.0000      -0.605087       -16.4653 
  57   1.0000      -0.599973       -16.3261 
  58   1.0000      -0.586121       -15.9492 
  59   1.0000      -0.579289       -15.7633 
  60   1.0000      -0.561067       -15.2674 
  61   1.0000      -0.550484       -14.9794 
  62   1.0000      -0.545705       -14.8494 
  63   1.0000      -0.539033       -14.6678 
  64   1.0000      -0.537789       -14.6340 
  65   1.0000      -0.524231       -14.2651 
  66   1.0000      -0.505114       -13.7448 
  67   1.0000      -0.490871       -13.3573 
  68   1.0000      -0.477753       -13.0003 
  69   1.0000      -0.477378       -12.9901 
  70   1.0000      -0.447775       -12.1846 
  71   1.0000      -0.441378       -12.0105 
  72   1.0000      -0.439433       -11.9576 
  73   1.0000      -0.430959       -11.7270 
  74   1.0000      -0.429964       -11.6999 
  75   1.0000      -0.428557       -11.6616 
  76   1.0000      -0.358167        -9.7462 
  77   0.0000       0.012603         0.3429 
  78   0.0000       0.023720         0.6455 
  79   0.0000       0.024419         0.6645 
  80   0.0000       0.030730         0.8362 
  81   0.0000       0.039318         1.0699 
  82   0.0000       0.041336         1.1248 
  83   0.0000       0.042681         1.1614 
  84   0.0000       0.043122         1.1734 
  85   0.0000       0.044374         1.2075 
  86   0.0000       0.056476         1.5368 
  87   0.0000       0.057491         1.5644 
  88   0.0000       0.061510         1.6738 
  89   0.0000       0.063796         1.7360 
  90   0.0000       0.064394         1.7522 
  91   0.0000       0.068299         1.8585 
  92   0.0000       0.073435         1.9983 
  93   0.0000       0.077759         2.1159 
  94   0.0000       0.082856         2.2546 
  95   0.0000       0.089920         2.4469 
  96   0.0000       0.091502         2.4899 
  97   0.0000       0.093843         2.5536 
  98   0.0000       0.097771         2.6605 
  99   0.0000       0.102205         2.7811 
 100   0.0000       0.104380         2.8403 
 101   0.0000       0.108111         2.9418 
 102   0.0000       0.117761         3.2044 
 103   0.0000       0.119871         3.2619 
 104   0.0000       0.123185         3.3520 
 105   0.0000       0.123238         3.3535 
 106   0.0000       0.125338         3.4106 
 107   0.0000       0.127058         3.4574 
 108   0.0000       0.130973         3.5640 
 109   0.0000       0.132795         3.6135 
 110   0.0000       0.134787         3.6677 
 111   0.0000       0.138255         3.7621 
 112   0.0000       0.141858         3.8602 
 113   0.0000       0.145973         3.9721 
 114   0.0000       0.148069         4.0292 
 115   0.0000       0.150749         4.1021 
 116   0.0000       0.156742         4.2652 
 117   0.0000       0.161252         4.3879 
 118   0.0000       0.162284         4.4160 
 119   0.0000       0.164279         4.4703 
 120   0.0000       0.168723         4.5912 
 121   0.0000       0.169811         4.6208 
 122   0.0000       0.173985         4.7344 
 123   0.0000       0.180766         4.9189 
 124   0.0000       0.181628         4.9423 
 125   0.0000       0.184013         5.0072 
 126   0.0000       0.185712         5.0535 
 127   0.0000       0.189897         5.1674 
 128   0.0000       0.192909         5.2493 
 129   0.0000       0.195938         5.3317 
 130   0.0000       0.197792         5.3822 
 131   0.0000       0.200068         5.4441 
 132   0.0000       0.203868         5.5475 
 133   0.0000       0.206817         5.6278 
 134   0.0000       0.210480         5.7275 
 135   0.0000       0.215690         5.8692 
 136   0.0000       0.216991         5.9046 
 137   0.0000       0.224004         6.0955 
 138   0.0000       0.225738         6.1426 
 139   0.0000       0.230995         6.2857 
 140   0.0000       0.233024         6.3409 
 141   0.0000       0.234706         6.3867 
 142   0.0000       0.237077         6.4512 
 143   0.0000       0.241277         6.5655 
 144   0.0000       0.241654         6.5757 
 145   0.0000       0.244383         6.6500 
 146   0.0000       0.252991         6.8842 
 147   0.0000       0.254413         6.9229 
 148   0.0000       0.257108         6.9963 
 149   0.0000       0.259701         7.0668 
 150   0.0000       0.261054         7.1036 
 151   0.0000       0.266292         7.2462 
 152   0.0000       0.273468         7.4414 
 153   0.0000       0.278763         7.5855 
 154   0.0000       0.280595         7.6354 
 155   0.0000       0.286202         7.7879 
 156   0.0000       0.288825         7.8593 
 157   0.0000       0.291878         7.9424 
 158   0.0000       0.295672         8.0456 
 159   0.0000       0.306277         8.3342 
 160   0.0000       0.308069         8.3830 
 161   0.0000       0.308747         8.4014 
 162   0.0000       0.316893         8.6231 
 163   0.0000       0.318362         8.6631 
 164   0.0000       0.322400         8.7730 
 165   0.0000       0.328004         8.9254 
 166   0.0000       0.332580         9.0500 
 167   0.0000       0.336105         9.1459 
 168   0.0000       0.337277         9.1778 
 169   0.0000       0.341565         9.2945 
 170   0.0000       0.344094         9.3633 
 171   0.0000       0.352952         9.6043 
 172   0.0000       0.354014         9.6332 
 173   0.0000       0.356852         9.7104 
 174   0.0000       0.357747         9.7348 
 175   0.0000       0.365376         9.9424 
 176   0.0000       0.367583        10.0024 
 177   0.0000       0.372077        10.1247 
 178   0.0000       0.373401        10.1608 
 179   0.0000       0.375112        10.2073 
 180   0.0000       0.378198        10.2913 
 181   0.0000       0.380261        10.3474 
 182   0.0000       0.381632        10.3847 
 183   0.0000       0.382196        10.4001 
 184   0.0000       0.389382        10.5956 
 185   0.0000       0.391469        10.6524 
 186   0.0000       0.395172        10.7532 
 187   0.0000       0.398838        10.8529 
 188   0.0000       0.402133        10.9426 
 189   0.0000       0.403138        10.9699 
 190   0.0000       0.406828        11.0704 
 191   0.0000       0.411569        11.1994 
 192   0.0000       0.412801        11.2329 
 193   0.0000       0.420853        11.4520 
 194   0.0000       0.421947        11.4818 
 195   0.0000       0.431889        11.7523 
 196   0.0000       0.433733        11.8025 
 197   0.0000       0.437578        11.9071 
 198   0.0000       0.438954        11.9445 
 199   0.0000       0.443411        12.0658 
 200   0.0000       0.448033        12.1916 
 201   0.0000       0.449275        12.2254 
 202   0.0000       0.454914        12.3788 
 203   0.0000       0.456450        12.4206 
 204   0.0000       0.459046        12.4913 
 205   0.0000       0.462504        12.5854 
 206   0.0000       0.465427        12.6649 
 207   0.0000       0.472404        12.8548 
 208   0.0000       0.477619        12.9967 
 209   0.0000       0.478939        13.0326 
 210   0.0000       0.483218        13.1490 
 211   0.0000       0.486265        13.2319 
 212   0.0000       0.491105        13.3636 
 213   0.0000       0.491718        13.3803 
 214   0.0000       0.497279        13.5316 
 215   0.0000       0.500328        13.6146 
 216   0.0000       0.503158        13.6916 
 217   0.0000       0.507347        13.8056 
 218   0.0000       0.509687        13.8693 
 219   0.0000       0.512228        13.9384 
 220   0.0000       0.513292        13.9674 
 221   0.0000       0.518151        14.0996 
 222   0.0000       0.522247        14.2111 
 223   0.0000       0.523303        14.2398 
 224   0.0000       0.527027        14.3411 
 225   0.0000       0.529030        14.3956 
 226   0.0000       0.531926        14.4744 
 227   0.0000       0.532438        14.4884 
 228   0.0000       0.538945        14.6655 
 229   0.0000       0.541293        14.7293 
 230   0.0000       0.542650        14.7663 
 231   0.0000       0.546894        14.8818 
 232   0.0000       0.552676        15.0391 
 233   0.0000       0.556957        15.1556 
 234   0.0000       0.559033        15.2121 
 235   0.0000       0.564559        15.3624 
 236   0.0000       0.568039        15.4571 
 237   0.0000       0.572464        15.5775 
 238   0.0000       0.573158        15.5964 
 239   0.0000       0.578008        15.7284 
 240   0.0000       0.582076        15.8391 
 241   0.0000       0.585533        15.9332 
 242   0.0000       0.587878        15.9970 
 243   0.0000       0.590358        16.0645 
 244   0.0000       0.594850        16.1867 
 245   0.0000       0.600306        16.3352 
 246   0.0000       0.605696        16.4818 
 247   0.0000       0.608847        16.5676 
 248   0.0000       0.609568        16.5872 
 249   0.0000       0.614939        16.7333 
 250   0.0000       0.616217        16.7681 
 251   0.0000       0.622453        16.9378 
 252   0.0000       0.628314        17.0973 
 253   0.0000       0.630416        17.1545 
 254   0.0000       0.634005        17.2521 
 255   0.0000       0.638681        17.3794 
 256   0.0000       0.640806        17.4372 
 257   0.0000       0.644628        17.5412 
 258   0.0000       0.649150        17.6643 
 259   0.0000       0.650697        17.7064 
 260   0.0000       0.657019        17.8784 
 261   0.0000       0.663023        18.0418 
 262   0.0000       0.665104        18.0984 
 263   0.0000       0.669393        18.2151 
 264   0.0000       0.670833        18.2543 
 265   0.0000       0.676384        18.4054 
 266   0.0000       0.681846        18.5540 
 267   0.0000       0.685232        18.6461 
 268   0.0000       0.691933        18.8284 
 269   0.0000       0.694883        18.9087 
 270   0.0000       0.697599        18.9826 
 271   0.0000       0.701679        19.0936 
 272   0.0000       0.709520        19.3070 
 273   0.0000       0.711046        19.3485 
 274   0.0000       0.715317        19.4648 
 275   0.0000       0.717570        19.5261 
 276   0.0000       0.724218        19.7070 
 277   0.0000       0.730234        19.8707 
 278   0.0000       0.733720        19.9655 
 279   0.0000       0.735449        20.0126 
 280   0.0000       0.742004        20.1910 
 281   0.0000       0.745719        20.2921 
 282   0.0000       0.754810        20.5394 
 283   0.0000       0.757186        20.6041 
 284   0.0000       0.763395        20.7730 
 285   0.0000       0.774206        21.0672 
 286   0.0000       0.778794        21.1921 
 287   0.0000       0.782744        21.2995 
 288   0.0000       0.791473        21.5371 
 289   0.0000       0.798608        21.7312 
 290   0.0000       0.807594        21.9757 
 291   0.0000       0.810493        22.0546 
 292   0.0000       0.815591        22.1934 
 293   0.0000       0.820332        22.3224 
 294   0.0000       0.826785        22.4980 
 295   0.0000       0.833550        22.6820 
 296   0.0000       0.838444        22.8152 
 297   0.0000       0.843007        22.9394 
 298   0.0000       0.849245        23.1091 
 299   0.0000       0.855428        23.2774 
 300   0.0000       0.857781        23.3414 
 301   0.0000       0.860963        23.4280 
 302   0.0000       0.867006        23.5924 
 303   0.0000       0.872030        23.7291 
 304   0.0000       0.875510        23.8238 
 305   0.0000       0.881322        23.9820 
 306   0.0000       0.883258        24.0347 
 307   0.0000       0.887505        24.1502 
 308   0.0000       0.894779        24.3482 
 309   0.0000       0.904861        24.6225 
 310   0.0000       0.907852        24.7039 
 311   0.0000       0.909500        24.7488 
 312   0.0000       0.912894        24.8411 
 313   0.0000       0.915271        24.9058 
 314   0.0000       0.919150        25.0113 
 315   0.0000       0.924621        25.1602 
 316   0.0000       0.929593        25.2955 
 317   0.0000       0.931324        25.3426 
 318   0.0000       0.937351        25.5066 
 319   0.0000       0.938905        25.5489 
 320   0.0000       0.944060        25.6892 
 321   0.0000       0.945385        25.7252 
 322   0.0000       0.947055        25.7707 
 323   0.0000       0.952325        25.9141 
 324   0.0000       0.955014        25.9872 
 325   0.0000       0.957778        26.0625 
 326   0.0000       0.963534        26.2191 
 327   0.0000       0.967629        26.3305 
 328   0.0000       0.970197        26.4004 
 329   0.0000       0.972076        26.4515 
 330   0.0000       0.973509        26.4905 
 331   0.0000       0.978614        26.6294 
 332   0.0000       0.983538        26.7634 
 333   0.0000       0.985534        26.8178 
 334   0.0000       0.991989        26.9934 
 335   0.0000       0.995770        27.0963 
 336   0.0000       1.001158        27.2429 
 337   0.0000       1.003864        27.3165 
 338   0.0000       1.006275        27.3821 
 339   0.0000       1.008849        27.4522 
 340   0.0000       1.012448        27.5501 
 341   0.0000       1.016213        27.6526 
 342   0.0000       1.018673        27.7195 
 343   0.0000       1.023247        27.8440 
 344   0.0000       1.025740        27.9118 
 345   0.0000       1.028832        27.9960 
 346   0.0000       1.034882        28.1606 
 347   0.0000       1.038416        28.2567 
 348   0.0000       1.041707        28.3463 
 349   0.0000       1.044542        28.4234 
 350   0.0000       1.049500        28.5583 
 351   0.0000       1.052094        28.6289 
 352   0.0000       1.056399        28.7461 
 353   0.0000       1.059722        28.8365 
 354   0.0000       1.068261        29.0689 
 355   0.0000       1.069030        29.0898 
 356   0.0000       1.071540        29.1581 
 357   0.0000       1.079786        29.3825 
 358   0.0000       1.082037        29.4437 
 359   0.0000       1.086394        29.5623 
 360   0.0000       1.087438        29.5907 
 361   0.0000       1.093455        29.7544 
 362   0.0000       1.093935        29.7675 
 363   0.0000       1.099943        29.9310 
 364   0.0000       1.100522        29.9467 
 365   0.0000       1.104909        30.0661 
 366   0.0000       1.111668        30.2500 
 367   0.0000       1.113740        30.3064 
 368   0.0000       1.115146        30.3447 
 369   0.0000       1.122181        30.5361 
 370   0.0000       1.128888        30.7186 
 371   0.0000       1.131437        30.7880 
 372   0.0000       1.139259        31.0008 
 373   0.0000       1.139612        31.0104 
 374   0.0000       1.143672        31.1209 
 375   0.0000       1.150939        31.3186 
 376   0.0000       1.153535        31.3893 
 377   0.0000       1.154782        31.4232 
 378   0.0000       1.165528        31.7156 
 379   0.0000       1.169608        31.8267 
 380   0.0000       1.174216        31.9520 
 381   0.0000       1.175887        31.9975 
 382   0.0000       1.181795        32.1583 
 383   0.0000       1.184464        32.2309 
 384   0.0000       1.193113        32.4663 
 385   0.0000       1.197853        32.5952 
 386   0.0000       1.199882        32.6505 
 387   0.0000       1.206287        32.8247 
 388   0.0000       1.207580        32.8599 
 389   0.0000       1.213358        33.0172 
 390   0.0000       1.218821        33.1658 
 391   0.0000       1.226899        33.3856 
 392   0.0000       1.228058        33.4171 
 393   0.0000       1.231551        33.5122 
 394   0.0000       1.237847        33.6835 
 395   0.0000       1.239058        33.7165 
 396   0.0000       1.246261        33.9125 
 397   0.0000       1.251144        34.0454 
 398   0.0000       1.254963        34.1493 
 399   0.0000       1.259490        34.2725 
 400   0.0000       1.264635        34.4125 
 401   0.0000       1.268165        34.5085 
 402   0.0000       1.274290        34.6752 
 403   0.0000       1.280800        34.8523 
 404   0.0000       1.285169        34.9712 
 405   0.0000       1.289545        35.0903 
 406   0.0000       1.292987        35.1840 
 407   0.0000       1.297523        35.3074 
 408   0.0000       1.303500        35.4700 
 409   0.0000       1.308290        35.6004 
 410   0.0000       1.313515        35.7426 
 411   0.0000       1.314069        35.7576 
 412   0.0000       1.317939        35.8630 
 413   0.0000       1.323783        36.0220 
 414   0.0000       1.332738        36.2656 
 415   0.0000       1.336648        36.3720 
 416   0.0000       1.338387        36.4194 
 417   0.0000       1.348296        36.6890 
 418   0.0000       1.351444        36.7747 
 419   0.0000       1.362116        37.0651 
 420   0.0000       1.364375        37.1265 
 421   0.0000       1.373371        37.3713 
 422   0.0000       1.377436        37.4819 
 423   0.0000       1.380698        37.5707 
 424   0.0000       1.381559        37.5941 
 425   0.0000       1.385405        37.6988 
 426   0.0000       1.390439        37.8358 
 427   0.0000       1.394237        37.9391 
 428   0.0000       1.397388        38.0249 
 429   0.0000       1.406326        38.2681 
 430   0.0000       1.416246        38.5380 
 431   0.0000       1.417945        38.5842 
 432   0.0000       1.427891        38.8549 
 433   0.0000       1.428928        38.8831 
 434   0.0000       1.435447        39.0605 
 435   0.0000       1.449865        39.4528 
 436   0.0000       1.452165        39.5154 
 437   0.0000       1.453644        39.5557 
 438   0.0000       1.462752        39.8035 
 439   0.0000       1.462989        39.8100 
 440   0.0000       1.467027        39.9198 
 441   0.0000       1.469319        39.9822 
 442   0.0000       1.474636        40.1269 
 443   0.0000       1.482170        40.3319 
 444   0.0000       1.486742        40.4563 
 445   0.0000       1.488004        40.4907 
 446   0.0000       1.491071        40.5741 
 447   0.0000       1.498114        40.7658 
 448   0.0000       1.499947        40.8156 
 449   0.0000       1.508597        41.0510 
 450   0.0000       1.513742        41.1910 
 451   0.0000       1.517884        41.3037 
 452   0.0000       1.530307        41.6418 
 453   0.0000       1.533564        41.7304 
 454   0.0000       1.536681        41.8152 
 455   0.0000       1.541183        41.9377 
 456   0.0000       1.549677        42.1689 
 457   0.0000       1.556455        42.3533 
 458   0.0000       1.562133        42.5078 
 459   0.0000       1.563387        42.5419 
 460   0.0000       1.570276        42.7294 
 461   0.0000       1.573720        42.8231 
 462   0.0000       1.580643        43.0115 
 463   0.0000       1.587857        43.2078 
 464   0.0000       1.591559        43.3085 
 465   0.0000       1.593214        43.3535 
 466   0.0000       1.599397        43.5218 
 467   0.0000       1.608044        43.7571 
 468   0.0000       1.611422        43.8490 
 469   0.0000       1.617631        44.0180 
 470   0.0000       1.622312        44.1453 
 471   0.0000       1.631287        44.3896 
 472   0.0000       1.637932        44.5704 
 473   0.0000       1.645962        44.7889 
 474   0.0000       1.649146        44.8755 
 475   0.0000       1.651485        44.9392 
 476   0.0000       1.658619        45.1333 
 477   0.0000       1.661789        45.2196 
 478   0.0000       1.671824        45.4927 
 479   0.0000       1.675075        45.5811 
 480   0.0000       1.680864        45.7386 
 481   0.0000       1.689795        45.9817 
 482   0.0000       1.694010        46.0964 
 483   0.0000       1.699649        46.2498 
 484   0.0000       1.701258        46.2936 
 485   0.0000       1.707197        46.4552 
 486   0.0000       1.712429        46.5976 
 487   0.0000       1.718458        46.7616 
 488   0.0000       1.721274        46.8382 
 489   0.0000       1.727132        46.9977 
 490   0.0000       1.731502        47.1166 
 491   0.0000       1.739110        47.3236 
 492   0.0000       1.743658        47.4473 
 493   0.0000       1.749424        47.6042 
 494   0.0000       1.755545        47.7708 
 495   0.0000       1.757122        47.8137 
 496   0.0000       1.763114        47.9768 
 497   0.0000       1.764468        48.0136 
 498   0.0000       1.767488        48.0958 
 499   0.0000       1.778954        48.4078 
 500   0.0000       1.784613        48.5618 
 501   0.0000       1.791431        48.7473 
 502   0.0000       1.792629        48.7799 
 503   0.0000       1.799771        48.9743 
 504   0.0000       1.806812        49.1659 
 505   0.0000       1.810083        49.2549 
 506   0.0000       1.814255        49.3684 
 507   0.0000       1.818836        49.4930 
 508   0.0000       1.826338        49.6972 
 509   0.0000       1.829462        49.7822 
 510   0.0000       1.833384        49.8889 
 511   0.0000       1.840446        50.0811 
 512   0.0000       1.845488        50.2183 
 513   0.0000       1.846656        50.2501 
 514   0.0000       1.856330        50.5133 
 515   0.0000       1.863189        50.6999 
 516   0.0000       1.868118        50.8341 
 517   0.0000       1.874260        51.0012 
 518   0.0000       1.877635        51.0930 
 519   0.0000       1.881010        51.1849 
 520   0.0000       1.886980        51.3473 
 521   0.0000       1.899979        51.7011 
 522   0.0000       1.902077        51.7582 
 523   0.0000       1.909957        51.9726 
 524   0.0000       1.911589        52.0170 
 525   0.0000       1.918712        52.2108 
 526   0.0000       1.922503        52.3140 
 527   0.0000       1.925765        52.4027 
 528   0.0000       1.930311        52.5264 
 529   0.0000       1.933496        52.6131 
 530   0.0000       1.934212        52.6326 
 531   0.0000       1.943587        52.8877 
 532   0.0000       1.949335        53.0441 
 533   0.0000       1.952214        53.1224 
 534   0.0000       1.958139        53.2837 
 535   0.0000       1.966508        53.5114 
 536   0.0000       1.970349        53.6159 
 537   0.0000       1.981571        53.9213 
 538   0.0000       1.988674        54.1146 
 539   0.0000       1.991481        54.1909 
 540   0.0000       2.003261        54.5115 
 541   0.0000       2.006181        54.5910 
 542   0.0000       2.011708        54.7414 
 543   0.0000       2.022218        55.0273 
 544   0.0000       2.026460        55.1428 
 545   0.0000       2.027878        55.1814 
 546   0.0000       2.033501        55.3344 
 547   0.0000       2.046158        55.6788 
 548   0.0000       2.051529        55.8249 
 549   0.0000       2.055498        55.9330 
 550   0.0000       2.061093        56.0852 
 551   0.0000       2.067973        56.2724 
 552   0.0000       2.084002        56.7086 
 553   0.0000       2.087823        56.8125 
 554   0.0000       2.094541        56.9954 
 555   0.0000       2.098669        57.1077 
 556   0.0000       2.106428        57.3188 
 557   0.0000       2.111938        57.4688 
 558   0.0000       2.117332        57.6155 
 559   0.0000       2.125697        57.8431 
 560   0.0000       2.128787        57.9272 
 561   0.0000       2.142712        58.3062 
 562   0.0000       2.147542        58.4376 
 563   0.0000       2.151877        58.5556 
 564   0.0000       2.155507        58.6543 
 565   0.0000       2.158816        58.7444 
 566   0.0000       2.167656        58.9849 
 567   0.0000       2.180728        59.3406 
 568   0.0000       2.185241        59.4634 
 569   0.0000       2.196864        59.7797 
 570   0.0000       2.197922        59.8085 
 571   0.0000       2.202554        59.9345 
 572   0.0000       2.217086        60.3300 
 573   0.0000       2.220734        60.4293 
 574   0.0000       2.222275        60.4712 
 575   0.0000       2.231058        60.7102 
 576   0.0000       2.242813        61.0300 
 577   0.0000       2.246967        61.1431 
 578   0.0000       2.250696        61.2445 
 579   0.0000       2.259202        61.4760 
 580   0.0000       2.264531        61.6210 
 581   0.0000       2.272775        61.8454 
 582   0.0000       2.285897        62.2024 
 583   0.0000       2.294725        62.4426 
 584   0.0000       2.304893        62.7193 
 585   0.0000       2.310794        62.8799 
 586   0.0000       2.314790        62.9886 
 587   0.0000       2.321895        63.1820 
 588   0.0000       2.324963        63.2654 
 589   0.0000       2.344400        63.7944 
 590   0.0000       2.347787        63.8865 
 591   0.0000       2.354297        64.0637 
 592   0.0000       2.364821        64.3500 
 593   0.0000       2.373769        64.5935 
 594   0.0000       2.376701        64.6733 
 595   0.0000       2.388167        64.9853 
 596   0.0000       2.390619        65.0521 
 597   0.0000       2.395060        65.1729 
 598   0.0000       2.398536        65.2675 
 599   0.0000       2.408594        65.5412 
 600   0.0000       2.419014        65.8247 
 601   0.0000       2.430159        66.1280 
 602   0.0000       2.435888        66.2839 
 603   0.0000       2.441153        66.4271 
 604   0.0000       2.452686        66.7410 
 605   0.0000       2.465436        67.0879 
 606   0.0000       2.482941        67.5643 
 607   0.0000       2.483606        67.5824 
 608   0.0000       2.494862        67.8886 
 609   0.0000       2.504308        68.1457 
 610   0.0000       2.519647        68.5631 
 611   0.0000       2.529775        68.8387 
 612   0.0000       2.535408        68.9920 
 613   0.0000       2.554663        69.5159 
 614   0.0000       2.565275        69.8047 
 615   0.0000       2.576254        70.1034 
 616   0.0000       2.588230        70.4293 
 617   0.0000       2.591161        70.5091 
 618   0.0000       2.618943        71.2651 
 619   0.0000       2.630533        71.5804 
 620   0.0000       2.644189        71.9520 
 621   0.0000       2.646716        72.0208 
 622   0.0000       2.654018        72.2195 
 623   0.0000       2.666896        72.5699 
 624   0.0000       2.671821        72.7039 
 625   0.0000       2.677845        72.8679 
 626   0.0000       2.684082        73.0376 
 627   0.0000       2.695459        73.3472 
 628   0.0000       2.707330        73.6702 
 629   0.0000       2.714896        73.8761 
 630   0.0000       2.718555        73.9756 
 631   0.0000       2.734762        74.4167 
 632   0.0000       2.741273        74.5938 
 633   0.0000       2.751643        74.8760 
 634   0.0000       2.759164        75.0807 
 635   0.0000       2.772074        75.4320 
 636   0.0000       2.774162        75.4888 
 637   0.0000       2.782376        75.7123 
 638   0.0000       2.793009        76.0016 
 639   0.0000       2.816872        76.6510 
 640   0.0000       2.824780        76.8662 
 641   0.0000       2.837759        77.2193 
 642   0.0000       2.847456        77.4832 
 643   0.0000       2.855430        77.7002 
 644   0.0000       2.864738        77.9535 
 645   0.0000       2.889175        78.6185 
 646   0.0000       2.892987        78.7222 
 647   0.0000       2.901659        78.9581 
 648   0.0000       2.911528        79.2267 
 649   0.0000       2.925596        79.6095 
 650   0.0000       2.936451        79.9049 
 651   0.0000       2.951953        80.3267 
 652   0.0000       2.964303        80.6628 
 653   0.0000       2.968464        80.7760 
 654   0.0000       2.999646        81.6245 
 655   0.0000       3.007491        81.8380 
 656   0.0000       3.023719        82.2796 
 657   0.0000       3.042023        82.7777 
 658   0.0000       3.057749        83.2056 
 659   0.0000       3.076147        83.7062 
 660   0.0000       3.082244        83.8721 
 661   0.0000       3.101665        84.4006 
 662   0.0000       3.111998        84.6818 
 663   0.0000       3.122197        84.9593 
 664   0.0000       3.134158        85.2848 
 665   0.0000       3.152370        85.7804 
 666   0.0000       3.170428        86.2717 
 667   0.0000       3.173428        86.3534 
 668   0.0000       3.195708        86.9596 
 669   0.0000       3.200791        87.0980 
 670   0.0000       3.209342        87.3306 
 671   0.0000       3.218323        87.5750 
 672   0.0000       3.223950        87.7281 
 673   0.0000       3.243652        88.2643 
 674   0.0000       3.245743        88.3212 
 675   0.0000       3.255676        88.5914 
 676   0.0000       3.264570        88.8335 
 677   0.0000       3.270836        89.0040 
 678   0.0000       3.275970        89.1437 
 679   0.0000       3.283873        89.3587 
 680   0.0000       3.286876        89.4404 
 681   0.0000       3.307218        89.9940 
 682   0.0000       3.325866        90.5014 
 683   0.0000       3.330829        90.6365 
 684   0.0000       3.333215        90.7014 
 685   0.0000       3.347049        91.0778 
 686   0.0000       3.362194        91.4899 
 687   0.0000       3.373199        91.7894 
 688   0.0000       3.389380        92.2297 
 689   0.0000       3.398483        92.4774 
 690   0.0000       3.412843        92.8682 
 691   0.0000       3.418680        93.0270 
 692   0.0000       3.425202        93.2045 
 693   0.0000       3.431221        93.3683 
 694   0.0000       3.435678        93.4895 
 695   0.0000       3.448092        93.8274 
 696   0.0000       3.459238        94.1307 
 697   0.0000       3.465663        94.3055 
 698   0.0000       3.470772        94.4445 
 699   0.0000       3.476454        94.5991 
 700   0.0000       3.487109        94.8891 
 701   0.0000       3.496784        95.1523 
 702   0.0000       3.501304        95.2753 
 703   0.0000       3.508198        95.4629 
 704   0.0000       3.516388        95.6858 
 705   0.0000       3.528181        96.0067 
 706   0.0000       3.541116        96.3587 
 707   0.0000       3.545567        96.4798 
 708   0.0000       3.554118        96.7125 
 709   0.0000       3.562394        96.9377 
 710   0.0000       3.568880        97.1142 
 711   0.0000       3.573515        97.2403 
 712   0.0000       3.582585        97.4871 
 713   0.0000       3.588392        97.6451 
 714   0.0000       3.597982        97.9061 
 715   0.0000       3.607986        98.1783 
 716   0.0000       3.623356        98.5965 
 717   0.0000       3.630021        98.7779 
 718   0.0000       3.641494        99.0901 
 719   0.0000       3.642739        99.1240 
 720   0.0000       3.652417        99.3873 
 721   0.0000       3.660264        99.6008 
 722   0.0000       3.670598        99.8821 
 723   0.0000       3.678024       100.0841 
 724   0.0000       3.682021       100.1929 
 725   0.0000       3.696010       100.5735 
 726   0.0000       3.696413       100.5845 
 727   0.0000       3.706392       100.8561 
 728   0.0000       3.708984       100.9266 
 729   0.0000       3.730412       101.5097 
 730   0.0000       3.733433       101.5919 
 731   0.0000       3.737470       101.7017 
 732   0.0000       3.742582       101.8408 
 733   0.0000       3.747433       101.9728 
 734   0.0000       3.753046       102.1256 
 735   0.0000       3.764771       102.4446 
 736   0.0000       3.770515       102.6009 
 737   0.0000       3.784311       102.9763 
 738   0.0000       3.787782       103.0708 
 739   0.0000       3.790220       103.1371 
 740   0.0000       3.796698       103.3134 
 741   0.0000       3.800402       103.4142 
 742   0.0000       3.810960       103.7015 
 743   0.0000       3.820124       103.9509 
 744   0.0000       3.823396       104.0399 
 745   0.0000       3.826466       104.1234 
 746   0.0000       3.836072       104.3848 
 747   0.0000       3.855343       104.9092 
 748   0.0000       3.859069       105.0106 
 749   0.0000       3.864354       105.1544 
 750   0.0000       3.869980       105.3075 
 751   0.0000       3.880364       105.5901 
 752   0.0000       3.885297       105.7243 
 753   0.0000       3.895682       106.0069 
 754   0.0000       3.901728       106.1714 
 755   0.0000       3.903035       106.2070 
 756   0.0000       3.904767       106.2541 
 757   0.0000       3.914383       106.5158 
 758   0.0000       3.918594       106.6304 
 759   0.0000       3.934667       107.0677 
 760   0.0000       3.945795       107.3705 
 761   0.0000       3.950031       107.4858 
 762   0.0000       3.955004       107.6211 
 763   0.0000       3.959666       107.7480 
 764   0.0000       3.970603       108.0456 
 765   0.0000       3.979469       108.2869 
 766   0.0000       3.981052       108.3299 
 767   0.0000       3.989051       108.5476 
 768   0.0000       4.002218       108.9059 
 769   0.0000       4.003479       108.9402 
 770   0.0000       4.009696       109.1094 
 771   0.0000       4.012366       109.1820 
 772   0.0000       4.028164       109.6119 
 773   0.0000       4.035263       109.8051 
 774   0.0000       4.041097       109.9638 
 775   0.0000       4.050063       110.2078 
 776   0.0000       4.054875       110.3388 
 777   0.0000       4.057702       110.4157 
 778   0.0000       4.068713       110.7153 
 779   0.0000       4.079432       111.0070 
 780   0.0000       4.082058       111.0784 
 781   0.0000       4.090625       111.3116 
 782   0.0000       4.107041       111.7583 
 783   0.0000       4.112986       111.9200 
 784   0.0000       4.115065       111.9766 
 785   0.0000       4.119426       112.0953 
 786   0.0000       4.124208       112.2254 
 787   0.0000       4.133855       112.4879 
 788   0.0000       4.146565       112.8338 
 789   0.0000       4.158133       113.1486 
 790   0.0000       4.166289       113.3705 
 791   0.0000       4.169566       113.4597 
 792   0.0000       4.176282       113.6424 
 793   0.0000       4.180169       113.7482 
 794   0.0000       4.194279       114.1321 
 795   0.0000       4.207777       114.4994 
 796   0.0000       4.214993       114.6958 
 797   0.0000       4.222004       114.8866 
 798   0.0000       4.226274       115.0028 
 799   0.0000       4.239705       115.3682 
 800   0.0000       4.243118       115.4611 
 801   0.0000       4.250705       115.6676 
 802   0.0000       4.262669       115.9931 
 803   0.0000       4.270407       116.2037 
 804   0.0000       4.281799       116.5137 
 805   0.0000       4.293612       116.8351 
 806   0.0000       4.302268       117.0707 
 807   0.0000       4.310847       117.3041 
 808   0.0000       4.325345       117.6986 
 809   0.0000       4.332492       117.8931 
 810   0.0000       4.337371       118.0259 
 811   0.0000       4.345521       118.2476 
 812   0.0000       4.363634       118.7405 
 813   0.0000       4.370111       118.9168 
 814   0.0000       4.380486       119.1991 
 815   0.0000       4.385420       119.3333 
 816   0.0000       4.397947       119.6742 
 817   0.0000       4.411025       120.0301 
 818   0.0000       4.426735       120.4576 
 819   0.0000       4.434360       120.6651 
 820   0.0000       4.442168       120.8775 
 821   0.0000       4.444957       120.9534 
 822   0.0000       4.452798       121.1668 
 823   0.0000       4.460294       121.3708 
 824   0.0000       4.475820       121.7933 
 825   0.0000       4.478643       121.8701 
 826   0.0000       4.491820       122.2286 
 827   0.0000       4.501873       122.5022 
 828   0.0000       4.511148       122.7546 
 829   0.0000       4.521342       123.0320 
 830   0.0000       4.522863       123.0734 
 831   0.0000       4.531791       123.3163 
 832   0.0000       4.540267       123.5469 
 833   0.0000       4.544136       123.6522 
 834   0.0000       4.550776       123.8329 
 835   0.0000       4.575988       124.5190 
 836   0.0000       4.578225       124.5798 
 837   0.0000       4.599222       125.1512 
 838   0.0000       4.609025       125.4179 
 839   0.0000       4.620159       125.7209 
 840   0.0000       4.629510       125.9754 
 841   0.0000       4.651420       126.5716 
 842   0.0000       4.654352       126.6514 
 843   0.0000       4.667459       127.0080 
 844   0.0000       4.679301       127.3303 
 845   0.0000       4.688115       127.5701 
 846   0.0000       4.691492       127.6620 
 847   0.0000       4.696857       127.8080 
 848   0.0000       4.707923       128.1091 
 849   0.0000       4.721307       128.4733 
 850   0.0000       4.735095       128.8485 
 851   0.0000       4.739619       128.9716 
 852   0.0000       4.750206       129.2597 
 853   0.0000       4.779257       130.0502 
 854   0.0000       4.802209       130.6747 
 855   0.0000       4.804438       130.7354 
 856   0.0000       4.813261       130.9755 
 857   0.0000       4.821308       131.1945 
 858   0.0000       4.827912       131.3742 
 859   0.0000       4.849743       131.9682 
 860   0.0000       4.854220       132.0900 
 861   0.0000       4.874381       132.6387 
 862   0.0000       4.890206       133.0693 
 863   0.0000       4.897081       133.2563 
 864   0.0000       4.902822       133.4126 
 865   0.0000       4.911938       133.6606 
 866   0.0000       4.916888       133.7953 
 867   0.0000       4.931086       134.1817 
 868   0.0000       4.944323       134.5419 
 869   0.0000       4.960729       134.9883 
 870   0.0000       4.966160       135.1361 
 871   0.0000       4.979176       135.4903 
 872   0.0000       4.984141       135.6254 
 873   0.0000       4.989945       135.7833 
 874   0.0000       4.999060       136.0313 
 875   0.0000       5.014447       136.4500 
 876   0.0000       5.029617       136.8628 
 877   0.0000       5.041627       137.1896 
 878   0.0000       5.045023       137.2821 
 879   0.0000       5.056763       137.6015 
 880   0.0000       5.072837       138.0389 
 881   0.0000       5.096677       138.6876 
 882   0.0000       5.102014       138.8329 
 883   0.0000       5.112426       139.1162 
 884   0.0000       5.117281       139.2483 
 885   0.0000       5.150128       140.1421 
 886   0.0000       5.158165       140.3608 
 887   0.0000       5.173265       140.7717 
 888   0.0000       5.177059       140.8749 
 889   0.0000       5.194919       141.3609 
 890   0.0000       5.204994       141.6351 
 891   0.0000       5.212671       141.8440 
 892   0.0000       5.218937       142.0145 
 893   0.0000       5.242378       142.6523 
 894   0.0000       5.245293       142.7317 
 895   0.0000       5.263864       143.2370 
 896   0.0000       5.271172       143.4359 
 897   0.0000       5.272009       143.4587 
 898   0.0000       5.286670       143.8576 
 899   0.0000       5.300496       144.2338 
 900   0.0000       5.320583       144.7804 
 901   0.0000       5.335044       145.1739 
 902   0.0000       5.355666       145.7351 
 903   0.0000       5.356443       145.7562 
 904   0.0000       5.378918       146.3678 
 905   0.0000       5.389133       146.6458 
 906   0.0000       5.401677       146.9871 
 907   0.0000       5.420735       147.5057 
 908   0.0000       5.425599       147.6381 
 909   0.0000       5.429876       147.7544 
 910   0.0000       5.444291       148.1467 
 911   0.0000       5.447591       148.2365 
 912   0.0000       5.456454       148.4777 
 913   0.0000       5.479145       149.0951 
 914   0.0000       5.497474       149.5939 
 915   0.0000       5.508609       149.8969 
 916   0.0000       5.513577       150.0321 
 917   0.0000       5.542084       150.8078 
 918   0.0000       5.548139       150.9725 
 919   0.0000       5.558031       151.2417 
 920   0.0000       5.563352       151.3865 
 921   0.0000       5.579813       151.8344 
 922   0.0000       5.589610       152.1010 
 923   0.0000       5.611901       152.7076 
 924   0.0000       5.615681       152.8104 
 925   0.0000       5.627146       153.1224 
 926   0.0000       5.635902       153.3607 
 927   0.0000       5.649157       153.7214 
 928   0.0000       5.653920       153.8510 
 929   0.0000       5.669185       154.2664 
 930   0.0000       5.696676       155.0144 
 931   0.0000       5.701725       155.1518 
 932   0.0000       5.705657       155.2588 
 933   0.0000       5.721080       155.6785 
 934   0.0000       5.732867       155.9992 
 935   0.0000       5.743999       156.3022 
 936   0.0000       5.746075       156.3586 
 937   0.0000       5.766058       156.9024 
 938   0.0000       5.783720       157.3830 
 939   0.0000       5.793706       157.6547 
 940   0.0000       5.820444       158.3823 
 941   0.0000       5.860268       159.4660 
 942   0.0000       5.864998       159.5947 
 943   0.0000       5.893906       160.3813 
 944   0.0000       5.941137       161.6666 
 945   0.0000       5.971277       162.4867 
 946   0.0000       6.053597       164.7268 
 947   0.0000       6.062373       164.9656 
 948   0.0000       6.088460       165.6754 
 949   0.0000       6.098209       165.9407 
 950   0.0000       6.142009       167.1326 
 951   0.0000       6.149210       167.3285 
 952   0.0000       6.179516       168.1532 
 953   0.0000       6.193093       168.5226 
 954   0.0000       6.206665       168.8919 
 955   0.0000       6.215544       169.1336 
 956   0.0000       6.234291       169.6437 
 957   0.0000       6.245012       169.9354 
 958   0.0000       6.253847       170.1758 
 959   0.0000       6.267679       170.5522 
 960   0.0000       6.281409       170.9258 
 961   0.0000       6.301482       171.4720 
 962   0.0000       6.309184       171.6816 
 963   0.0000       6.324490       172.0981 
 964   0.0000       6.338403       172.4767 
 965   0.0000       6.350590       172.8083 
 966   0.0000       6.375211       173.4783 
 967   0.0000       6.389523       173.8678 
 968   0.0000       6.446335       175.4137 
 969   0.0000       6.510514       177.1601 
 970   0.0000       6.570505       178.7925 
 971   0.0000       6.621317       180.1752 
 972   0.0000       6.792457       184.8321 
 973   0.0000       6.819639       185.5718 
 974   0.0000       6.835053       185.9913 
 975   0.0000       6.871565       186.9848 
 976   0.0000       6.898885       187.7282 
 977   0.0000       6.916305       188.2022 
 978   0.0000       6.935326       188.7198 
 979   0.0000       6.958356       189.3465 
 980   0.0000       6.983806       190.0390 
 981   0.0000       6.998199       190.4307 
 982   0.0000       7.019637       191.0140 
 983   0.0000       7.038053       191.5152 
 984   0.0000       7.055345       191.9857 
 985   0.0000       7.099107       193.1765 
 986   0.0000       7.205260       196.0651 
 987   0.0000       7.256075       197.4478 
 988   0.0000       7.301389       198.6809 
 989   0.0000       7.341693       199.7776 
 990   0.0000       7.485081       203.6794 
 991   0.0000       7.537895       205.1165 
 992   0.0000       7.582176       206.3215 
 993   0.0000       7.684857       209.1156 
 994   0.0000       7.735959       210.5061 
 995   0.0000       7.816284       212.6919 
 996   0.0000       7.883080       214.5095 
 997   0.0000       7.969762       216.8682 
 998   0.0000       8.236558       224.1281 
 999   0.0000       9.394990       255.6507 
 1000   0.0000       9.399904       255.7844 
 1001   0.0000       9.424395       256.4508 
 1002   0.0000       9.438837       256.8438 
 1003   0.0000       9.446018       257.0392 
 1004   0.0000       9.474768       257.8215 
 1005   0.0000       9.638021       262.2639 
 1006   0.0000      10.074498       274.1410 
 1007   0.0000      10.082102       274.3480 
 1008   0.0000      10.094799       274.6935 
 1009   0.0000      10.188478       277.2426 
 1010   0.0000      10.201555       277.5984 
 1011   0.0000      10.234354       278.4909 
 1012   0.0000      10.266104       279.3549 
 1013   0.0000      10.337503       281.2978 
 1014   0.0000      10.374900       282.3154 
 1015   0.0000      10.544997       286.9440 
 1016   0.0000      16.482830       448.5206 
 1017   0.0000      17.437820       474.5072 
 1018   0.0000      18.043872       490.9987 
 1019   0.0000      18.364823       499.7322 
 1020   0.0000      18.439440       501.7627 
 1021   0.0000      18.592811       505.9361 
 1022   0.0000      20.323325       553.0258 
 1023   0.0000      21.231210       577.7306 
 1024   0.0000      21.507151       585.2393 

                 SPIN DOWN ORBITALS
  NO   OCC          E(Eh)            E(eV) 
   0   1.0000    -261.573109     -7117.7662 
   1   1.0000    -104.793345     -2851.5719 
   2   1.0000    -104.789927     -2851.4789 
   3   1.0000    -104.787653     -2851.4170 
   4   1.0000     -32.082413      -873.0068 
   5   1.0000     -27.560350      -749.9552 
   6   1.0000     -27.560244      -749.9524 
   7   1.0000     -27.560153      -749.9499 
   8   1.0000     -20.621152      -561.1301 
   9   1.0000     -11.421973      -310.8077 
  10   1.0000     -11.278482      -306.9031 
  11   1.0000     -11.273415      -306.7652 
  12   1.0000     -11.263896      -306.5062 
  13   1.0000     -11.242569      -305.9258 
  14   1.0000     -11.242073      -305.9123 
  15   1.0000     -11.234756      -305.7133 
  16   1.0000     -11.228333      -305.5385 
  17   1.0000     -10.519979      -286.2632 
  18   1.0000     -10.516516      -286.1689 
  19   1.0000     -10.514201      -286.1059 
  20   1.0000      -7.985903      -217.3075 
  21   1.0000      -7.985150      -217.2870 
  22   1.0000      -7.985114      -217.2860 
  23   1.0000      -7.982403      -217.2122 
  24   1.0000      -7.981698      -217.1930 
  25   1.0000      -7.981608      -217.1906 
  26   1.0000      -7.980193      -217.1521 
  27   1.0000      -7.979287      -217.1274 
  28   1.0000      -7.979203      -217.1252 
  29   1.0000      -4.157189      -113.1229 
  30   1.0000      -2.678738       -72.8922 
  31   1.0000      -2.678700       -72.8911 
  32   1.0000      -2.678274       -72.8795 
  33   1.0000      -1.458990       -39.7011 
  34   1.0000      -1.123141       -30.5622 
  35   1.0000      -1.099287       -29.9131 
  36   1.0000      -1.052242       -28.6330 
  37   1.0000      -1.039642       -28.2901 
  38   1.0000      -1.036119       -28.1942 
  39   1.0000      -1.020563       -27.7709 
  40   1.0000      -1.008899       -27.4535 
  41   1.0000      -0.956550       -26.0291 
  42   1.0000      -0.894043       -24.3282 
  43   1.0000      -0.828841       -22.5539 
  44   1.0000      -0.727451       -19.7949 
  45   1.0000      -0.715935       -19.4816 
  46   1.0000      -0.703188       -19.1347 
  47   1.0000      -0.683068       -18.5872 
  48   1.0000      -0.652824       -17.7642 
  49   1.0000      -0.620505       -16.8848 
  50   1.0000      -0.618959       -16.8427 
  51   1.0000      -0.604905       -16.4603 
  52   1.0000      -0.599870       -16.3233 
  53   1.0000      -0.585791       -15.9402 
  54   1.0000      -0.577704       -15.7201 
  55   1.0000      -0.560356       -15.2481 
  56   1.0000      -0.550071       -14.9682 
  57   1.0000      -0.544406       -14.8140 
  58   1.0000      -0.538599       -14.6560 
  59   1.0000      -0.527090       -14.3428 
  60   1.0000      -0.523455       -14.2439 
  61   1.0000      -0.507188       -13.8013 
  62   1.0000      -0.490829       -13.3561 
  63   1.0000      -0.486117       -13.2279 
  64   1.0000      -0.483400       -13.1540 
  65   1.0000      -0.455069       -12.3830 
  66   1.0000      -0.451577       -12.2880 
  67   1.0000      -0.448591       -12.2068 
  68   1.0000      -0.432310       -11.7638 
  69   1.0000      -0.429850       -11.6968 
  70   1.0000      -0.414034       -11.2664 
  71   1.0000      -0.357747        -9.7348 
  72   0.0000       0.012586         0.3425 
  73   0.0000       0.023696         0.6448 
  74   0.0000       0.024378         0.6634 
  75   0.0000       0.030667         0.8345 
  76   0.0000       0.039228         1.0674 
  77   0.0000       0.041134         1.1193 
  78   0.0000       0.042640         1.1603 
  79   0.0000       0.043105         1.1730 
  80   0.0000       0.044231         1.2036 
  81   0.0000       0.053931         1.4675 
  82   0.0000       0.056700         1.5429 
  83   0.0000       0.061362         1.6698 
  84   0.0000       0.062605         1.7036 
  85   0.0000       0.063931         1.7397 
  86   0.0000       0.064786         1.7629 
  87   0.0000       0.071122         1.9353 
  88   0.0000       0.077372         2.1054 
  89   0.0000       0.082611         2.2480 
  90   0.0000       0.089296         2.4299 
  91   0.0000       0.090990         2.4760 
  92   0.0000       0.093256         2.5376 
  93   0.0000       0.096031         2.6131 
  94   0.0000       0.100397         2.7320 
  95   0.0000       0.103001         2.8028 
  96   0.0000       0.103716         2.8223 
  97   0.0000       0.106023         2.8850 
  98   0.0000       0.106801         2.9062 
  99   0.0000       0.108330         2.9478 
 100   0.0000       0.110909         3.0180 
 101   0.0000       0.115131         3.1329 
 102   0.0000       0.120215         3.2712 
 103   0.0000       0.121730         3.3124 
 104   0.0000       0.123858         3.3703 
 105   0.0000       0.125387         3.4119 
 106   0.0000       0.126470         3.4414 
 107   0.0000       0.129224         3.5164 
 108   0.0000       0.132011         3.5922 
 109   0.0000       0.133753         3.6396 
 110   0.0000       0.137010         3.7282 
 111   0.0000       0.138813         3.7773 
 112   0.0000       0.144252         3.9253 
 113   0.0000       0.146855         3.9961 
 114   0.0000       0.150196         4.0870 
 115   0.0000       0.151653         4.1267 
 116   0.0000       0.157259         4.2792 
 117   0.0000       0.162017         4.4087 
 118   0.0000       0.162580         4.4240 
 119   0.0000       0.167524         4.5586 
 120   0.0000       0.170511         4.6398 
 121   0.0000       0.171537         4.6677 
 122   0.0000       0.175042         4.7631 
 123   0.0000       0.181367         4.9352 
 124   0.0000       0.182340         4.9617 
 125   0.0000       0.185967         5.0604 
 126   0.0000       0.186660         5.0793 
 127   0.0000       0.191220         5.2034 
 128   0.0000       0.196531         5.3479 
 129   0.0000       0.198209         5.3935 
 130   0.0000       0.198742         5.4081 
 131   0.0000       0.201973         5.4960 
 132   0.0000       0.205726         5.5981 
 133   0.0000       0.209064         5.6889 
 134   0.0000       0.214666         5.8414 
 135   0.0000       0.217974         5.9314 
 136   0.0000       0.224547         6.1102 
 137   0.0000       0.227586         6.1929 
 138   0.0000       0.228913         6.2290 
 139   0.0000       0.233624         6.3572 
 140   0.0000       0.235502         6.4083 
 141   0.0000       0.238517         6.4904 
 142   0.0000       0.241263         6.5651 
 143   0.0000       0.245994         6.6938 
 144   0.0000       0.249546         6.7905 
 145   0.0000       0.251525         6.8443 
 146   0.0000       0.253964         6.9107 
 147   0.0000       0.259200         7.0532 
 148   0.0000       0.261320         7.1109 
 149   0.0000       0.267238         7.2719 
 150   0.0000       0.270021         7.3477 
 151   0.0000       0.272658         7.4194 
 152   0.0000       0.279387         7.6025 
 153   0.0000       0.281973         7.6729 
 154   0.0000       0.284733         7.7480 
 155   0.0000       0.292365         7.9557 
 156   0.0000       0.292885         7.9698 
 157   0.0000       0.295805         8.0493 
 158   0.0000       0.298789         8.1305 
 159   0.0000       0.307973         8.3804 
 160   0.0000       0.309580         8.4241 
 161   0.0000       0.315179         8.5765 
 162   0.0000       0.320906         8.7323 
 163   0.0000       0.321727         8.7546 
 164   0.0000       0.330139         8.9835 
 165   0.0000       0.332235         9.0406 
 166   0.0000       0.334789         9.1101 
 167   0.0000       0.340871         9.2756 
 168   0.0000       0.342486         9.3195 
 169   0.0000       0.344139         9.3645 
 170   0.0000       0.348906         9.4942 
 171   0.0000       0.353949         9.6314 
 172   0.0000       0.357714         9.7339 
 173   0.0000       0.359144         9.7728 
 174   0.0000       0.362822         9.8729 
 175   0.0000       0.366003         9.9594 
 176   0.0000       0.369103        10.0438 
 177   0.0000       0.376050        10.2328 
 178   0.0000       0.376313        10.2400 
 179   0.0000       0.379518        10.3272 
 180   0.0000       0.383929        10.4472 
 181   0.0000       0.384628        10.4662 
 182   0.0000       0.388920        10.5830 
 183   0.0000       0.390981        10.6391 
 184   0.0000       0.393370        10.7041 
 185   0.0000       0.394434        10.7331 
 186   0.0000       0.399170        10.8620 
 187   0.0000       0.401398        10.9226 
 188   0.0000       0.405094        11.0232 
 189   0.0000       0.405325        11.0294 
 190   0.0000       0.409972        11.1559 
 191   0.0000       0.415416        11.3040 
 192   0.0000       0.416796        11.3416 
 193   0.0000       0.424970        11.5640 
 194   0.0000       0.426643        11.6096 
 195   0.0000       0.434055        11.8112 
 196   0.0000       0.434693        11.8286 
 197   0.0000       0.442124        12.0308 
 198   0.0000       0.443116        12.0578 
 199   0.0000       0.448778        12.2119 
 200   0.0000       0.452076        12.3016 
 201   0.0000       0.456557        12.4235 
 202   0.0000       0.457127        12.4390 
 203   0.0000       0.459756        12.5106 
 204   0.0000       0.463377        12.6091 
 205   0.0000       0.465651        12.6710 
 206   0.0000       0.475907        12.9501 
 207   0.0000       0.476305        12.9609 
 208   0.0000       0.480129        13.0650 
 209   0.0000       0.483295        13.1511 
 210   0.0000       0.486717        13.2442 
 211   0.0000       0.493253        13.4221 
 212   0.0000       0.494028        13.4432 
 213   0.0000       0.495626        13.4867 
 214   0.0000       0.499678        13.5969 
 215   0.0000       0.502951        13.6860 
 216   0.0000       0.506666        13.7871 
 217   0.0000       0.508489        13.8367 
 218   0.0000       0.513486        13.9727 
 219   0.0000       0.517936        14.0937 
 220   0.0000       0.519074        14.1247 
 221   0.0000       0.520509        14.1638 
 222   0.0000       0.525221        14.2920 
 223   0.0000       0.527038        14.3414 
 224   0.0000       0.528533        14.3821 
 225   0.0000       0.530733        14.4420 
 226   0.0000       0.534780        14.5521 
 227   0.0000       0.537106        14.6154 
 228   0.0000       0.540924        14.7193 
 229   0.0000       0.542516        14.7626 
 230   0.0000       0.545546        14.8451 
 231   0.0000       0.549162        14.9435 
 232   0.0000       0.554517        15.0892 
 233   0.0000       0.558142        15.1878 
 234   0.0000       0.560704        15.2575 
 235   0.0000       0.565497        15.3880 
 236   0.0000       0.568556        15.4712 
 237   0.0000       0.573786        15.6135 
 238   0.0000       0.575613        15.6632 
 239   0.0000       0.580709        15.8019 
 240   0.0000       0.583664        15.8823 
 241   0.0000       0.586670        15.9641 
 242   0.0000       0.590374        16.0649 
 243   0.0000       0.592185        16.1142 
 244   0.0000       0.596595        16.2342 
 245   0.0000       0.602706        16.4005 
 246   0.0000       0.606726        16.5099 
 247   0.0000       0.610304        16.6072 
 248   0.0000       0.613165        16.6851 
 249   0.0000       0.618007        16.8168 
 250   0.0000       0.620375        16.8813 
 251   0.0000       0.624186        16.9850 
 252   0.0000       0.631261        17.1775 
 253   0.0000       0.633460        17.2373 
 254   0.0000       0.636191        17.3116 
 255   0.0000       0.642212        17.4755 
 256   0.0000       0.645325        17.5602 
 257   0.0000       0.646015        17.5790 
 258   0.0000       0.651489        17.7279 
 259   0.0000       0.653860        17.7924 
 260   0.0000       0.659871        17.9560 
 261   0.0000       0.666643        18.1403 
 262   0.0000       0.669448        18.2166 
 263   0.0000       0.671534        18.2734 
 264   0.0000       0.673095        18.3158 
 265   0.0000       0.678726        18.4691 
 266   0.0000       0.685081        18.6420 
 267   0.0000       0.687634        18.7115 
 268   0.0000       0.694812        18.9068 
 269   0.0000       0.698510        19.0074 
 270   0.0000       0.699464        19.0334 
 271   0.0000       0.704645        19.1744 
 272   0.0000       0.713612        19.4184 
 273   0.0000       0.716007        19.4836 
 274   0.0000       0.719022        19.5656 
 275   0.0000       0.721851        19.6426 
 276   0.0000       0.728280        19.8175 
 277   0.0000       0.734968        19.9995 
 278   0.0000       0.737869        20.0784 
 279   0.0000       0.740300        20.1446 
 280   0.0000       0.746945        20.3254 
 281   0.0000       0.748317        20.3628 
 282   0.0000       0.757157        20.6033 
 283   0.0000       0.759331        20.6624 
[...]
  | sigma^2 in % of trace(Dip) retained ...   1.54e+01
  | sigma^2 in % of trace(Dpq) retained ...   1.38e-01
  | Av. % of trace(Di) retained         ...  99.998587403824
  | Av. % of trace(Dp) retained         ...  99.999999097132
  | sigma^2 in % of trace(Di) retained  ...   6.55e-07
  | sigma^2 in % of trace(Dp) retained  ...   1.19e-12
 Distributions of % trace(Dij) recovered:
  |       >= 99.9  ...   105 ( 22.3 % of all IJ-pairs)
  |   [80.0, 90.0) ...    19 (  4.0 % of all IJ-pairs)
  |   [90.0, 99.0) ...   262 ( 55.6 % of all IJ-pairs)
  |   [99.0, 99.9) ...    85 ( 18.0 % of all IJ-pairs)
 Distributions of % trace(Dip) recovered:
  |   [80.0, 90.0) ...    12 ( 10.7 % of all IP-pairs)
  |   [90.0, 99.0) ...    51 ( 45.5 % of all IP-pairs)
  |   [99.0, 99.9) ...    49 ( 43.8 % of all IP-pairs)
 Distributions of % trace(Dpq) recovered:
  |       >= 99.9  ...     5 ( 33.3 % of all PQ-pairs)
  |   [99.0, 99.9) ...    10 ( 66.7 % of all PQ-pairs)
 Distributions of % trace(Di) recovered :
  |       >= 99.9  ...    43 (100.0 % of all I-pairs )
 Distributions of % trace(Dp) recovered :
  |       >= 99.9  ...     5 (100.0 % of all P-pairs )

                       ===========================
                       1036 OF 1658 PAIRS ARE KEPT
                       ===========================

 Initial PAO correlation energy (all pairs)    ...  -2.6797623892 Eh
 Energy constituents in PAO basis (Eh):
  | Vijab(+0) ...  -2.2525998558
  | Viab (-1) ...  -0.1739924888
  | Vab  (-2) ...  -0.0573268719
  | Va   (-1) ...  -0.0000458351
  | Vija (+1) ...  -0.0714208595
  | Vij  (+2) ...  -0.0155526928
  | Via  (+0) ...  -0.1086582198
  | Vi   (+1) ...  -0.0001655655
 Initial PNO correlation energy                ...  -2.6459698957 Eh
 Energy constituents in PNO basis (Eh):
  | Vijab(+0) ...  -2.2342131636 (err=  0.0183866922)
  | Viab (-1) ...  -0.1600881159 (err=  0.0139043729)
  | Vab  (-2) ...  -0.0568704827 (err=  0.0004563892)
  | Va   (-1) ...  -0.0000265525 (err=  0.0000192826)
  | Vija (+1) ...  -0.0705450697 (err=  0.0008757899)
  | Vij  (+2) ...  -0.0155053837 (err=  0.0000473092)
  | Via  (+0) ...  -0.1085559678 (err=  0.0001022520)
  | Vi   (+1) ...  -0.0001651599 (err=  0.0000004056)
 Sum of total truncation errors ...   0.0337924935 Eh
  | Pair screening ...   0.0117275860 Eh
  | PNO truncation ...   0.0220649074 Eh

 UMP2 correlation energy (PAO) ...  -2.6746289722
  | alpha-alpha ...  -0.3831716323 (NP_aa=  890)
  | alpha-beta  ...  -1.9877713870 (NP_ab= 1633)
  | beta -beta  ...  -0.3036859528 (NP_bb=  710)
 UMP2 correlation energy (PNO) ...  -2.6404703717
  | alpha-alpha ...  -0.3712156594 (err=  0.0119559729, NP_aa=  550)
  | alpha-beta  ...  -1.9695961755 (err=  0.0181752116, NP_ab= 1011)
  | beta -beta  ...  -0.2996585368 (err=  0.0040274160, NP_bb=  428)
 Sum of total UMP2 truncation errors ...   0.0341586004 Eh
  | Pair screening ...   0.0117335400 Eh
  | PNO truncation ...   0.0224250605 Eh
 Timing for NEV-PNO construction (sec.)
  | Intermediate construction  ..           41.554
  | Amplitude construction     ..           60.418
  | Total time                 ..          101.972
 Making pair pair interaction lists ...      ok
 Total size for 2-ext PNO integrals ...     10.5 MB
Checking the number of SOMO/SOMO doubles PNOs ... 
 #Truncate: (72, 72)[175] -> [86] .. 
 #Truncate: (73, 73)[176] -> [86] .. 
 #Truncate: (74, 74)[178] -> [86] .. 
 #Truncate: (75, 75)[177] -> [86] .. 
 #Truncate: (76, 76)[176] -> [86] .. 

--------------------------------
LOCAL RI TRANSFORMATION (VABPAO)
--------------------------------

Number of PAOs:    1030
Basis functions:   1025 (343 shells)
Aux. functions:    2424 (644 shells)

Processing maps (0.0 sec)
Average map sizes:
   Aux shells -> PAOs           1030.0
   PAOs       -> AO shells       343.0

Calculating integrals (196.8 sec, 37370.165 MB)
Finished
-----------------------------
LOCAL RI TRANSFORMATION (IJV)
-----------------------------

Orbital window:      29 to 76
Basis functions:   1025 (343 shells)
Aux. functions:    2424 (644 shells)

Processing maps (0.0 sec)
Average map sizes:
   Aux shells -> MOs(i)           46.4
   Aux shells -> MOs(j)           48.0
   MOs        -> AO shells       340.2

Calculating integrals (22.8 sec, 41.277 MB)
Sorting integrals (0.3 sec, 41.249 MB)
Total time for the integral transformation: 23.3 sec


-------------------------------------
Pair Pair Term precalculation with     
RI-(ij|mn) and (im|jn) transformation  
ON THE FLY                             
-------------------------------------

   IBatch   1 (of   2)              ... done ( 1184.655 sec)
   IBatch   2 (of   2)              ... done (  680.051 sec)
Total EXT                           ...        1864.706 sec

---------------------
RI-PNO TRANSFORMATION
---------------------

Total Number of PNOs                   ... 32459
Total Number of IJ-PNOs                ... 28385
Total Number of IP-PNOs                ...  3116
Total Number of PQ-PNOs                ...   958
Total Number of IJ-pairs               ...   899
Total Number of PI-pairs               ...   112
Total Number of PQ-pairs               ...    25
Average number of PNOs per pair        ...    31
Maximal number of PNOs per pair        ...    86
>> Statistics for ij-pairs..
   #pairs with  1 -  5 PNOs   :    0
   #pairs with  6 - 10 PNOs   :    0
   #pairs with 11 - 15 PNOs   :   94
   #pairs with 16 - 20 PNOs   :  166
   #pairs with 21 - 25 PNOs   :  168
   #pairs with 26 - 30 PNOs   :  130
   #pairs with 31 - 35 PNOs   :   60
   #pairs with 36 - 40 PNOs   :   52
   #pairs with 41 - 45 PNOs   :   44
   #pairs with 46 - 50 PNOs   :   18
   #pairs with 51 - 55 PNOs   :   32
   #pairs with 56 - 60 PNOs   :   53
   #pairs with 61 - 65 PNOs   :   77
   #pairs with 66 - 70 PNOs   :    3
   #pairs with 81 - 85 PNOs   :    2
>> Statistics for ip-pairs..
   #pairs with  1 -  5 PNOs   :    0
   #pairs with  6 - 10 PNOs   :    1
   #pairs with 11 - 15 PNOs   :   11
   #pairs with 16 - 20 PNOs   :   13
   #pairs with 21 - 25 PNOs   :   19
   #pairs with 26 - 30 PNOs   :   10
   #pairs with 31 - 35 PNOs   :   44
   #pairs with 36 - 40 PNOs   :   12
   #pairs with 41 - 45 PNOs   :    2
   #pairs with 46 - 50 PNOs   :    0
>> Statistics for pq-pairs..
   #pairs with  1 -  5 PNOs   :    0
   #pairs with  6 - 10 PNOs   :    0
   #pairs with 11 - 15 PNOs   :    0
   #pairs with 16 - 20 PNOs   :    0
   #pairs with 21 - 25 PNOs   :   10
   #pairs with 26 - 30 PNOs   :   10
   #pairs with 31 - 35 PNOs   :    0
   #pairs with 36 - 40 PNOs   :    0
   #pairs with 41 - 45 PNOs   :    0
   #pairs with 46 - 50 PNOs   :    0
   #pairs with 86 - 90 PNOs   :    5

Generation of (ij|ab)[P] integrals            ... on
Generation of (ia|bc)[P],(ja|bc)[P] integrals ... on
Storage of 3 and 4 external integrals         ... on
Generation of ALL (ka|bc)[P] integrals        ... on
Keep RI integrals in memory                   ... off

Ibatch:  1 (of  1)
Starting 2-4 index PNO integral generation ... done

Timings:
Total PNO integral transformation time     ...       1772.435 sec
Size of the 3-external file                ...       278 MB
Size of the 4-external file                ...      1904 MB
Size of the IKJL file                      ...        16 MB
Size of the all 3-external file            ...      6683 MB
Size of the 1-external file                ...        21 MB

Size of the PAO/PNO coefficient matrices   ...     203.5 MB

Making pair/pair overlap matrices          ... done (  258.453 sec)
Size of the pair overlap file              ...    2238.0 MB
Total # unrestricted pairs ...       1989
  # of alpha-alpha pairs   ...        550
  # of alpha-beta pairs    ...       1011
  # of beta-beta pairs     ...        428
Constructing the guess amplitudes          ... done (    0.566 sec)

-------------------------
FINAL STARTUP INFORMATION
-------------------------

E(0)                                       ...  -3028.470332511
E(SL-UMP2 in NEV-PNO space)                ...     -2.675584164
Initial E(tot)                             ...  -3031.145916676
<T|T>                                      ...      0.532387115
Number of unrestricted pairs included      ... 1989
Total number of pairs                      ... 4095
----------------------------------------------------------
                     OPEN-SHELL COUPLED CLUSTER ITERATIONS
----------------------------------------------------------

Number of PNO amplitudes to be optimized        ...          2009421
Number of canonical amplitudes for strong pairs ...       1796469019
Untruncated number of canonical amplitudes      ...       3698645738

Iter       E(tot)           E(Corr)          Delta-E          Residual     Time
  0  -3031.153184017     -2.647737713      0.027846451      0.020728078 1289.74
                           *** Turning on DIIS ***
  1  -3031.269672725     -2.764226420     -0.116488707      0.010962233 1287.47
  2  -3031.334702256     -2.829255952     -0.065029532      0.008283156 1278.65
  3  -3031.356830925     -2.851384621     -0.022128669      0.003337661 1284.77
  4  -3031.364570930     -2.859124626     -0.007740005      0.002642298 1287.95
  5  -3031.368827042     -2.863380738     -0.004256111      0.001514621 1259.74
  6  -3031.370392269     -2.864945965     -0.001565227      0.000744742 1359.35
  7  -3031.371050102     -2.865603798     -0.000657833      0.000477584 1346.82
  8  -3031.371196032     -2.865749728     -0.000145930      0.000219008 1375.50
  9  -3031.371255751     -2.865809447     -0.000059719      0.000149562 1367.88
 10  -3031.371258685     -2.865812381     -0.000002934      0.000074880 1410.91
 11  -3031.371271413     -2.865825109     -0.000012728      0.000068093 1586.51
 12  -3031.371276388     -2.865830084     -0.000004975      0.000035800 1594.63
 13  -3031.371278573     -2.865832268     -0.000002184      0.000018508 1615.96
 14  -3031.371280182     -2.865833878     -0.000001610      0.000011192 1622.26
 15  -3031.371279333     -2.865833029      0.000000849      0.000004956 1618.39
               --- The CCSD iterations have converged ---

E(0)                                       ...  -3028.470332511
E(CORR)(strong-pairs)                      ...     -2.865833029
E(CORR)(weak-pairs)                        ...     -0.035113793
E(CORR)(corrected)                         ...     -2.900946822
E(TOT)                                     ...  -3031.371279333
Singles norm <S|S>**1/2                    ...      0.195810740 ( 0.064477340, 0.131333399)  
T1 diagnostic                              ...      0.020526543                              
<S**2>(linearized)                         ...      8.7508606 (ideal value:      8.7500000)

----------------------
LARGEST PNO AMPLITUDES
----------------------
  49b-> 72b  -1b-> -1b       0.054797
  51b-> 73b  -1b-> -1b       0.053697
  52b-> 73b  -1b-> -1b       0.053341
  47a-> 78a  47b-> 78b       0.053225
  49b-> 76b  -1b-> -1b       0.047457
  43a-> 77a  43b-> 77b       0.047422
  49b-> 75b  -1b-> -1b       0.046290
  38b-> 74b  -1b-> -1b       0.044248
  36b-> 72b  -1b-> -1b       0.044148
  62a-> 77a  62b-> 77b       0.044056
  70a-> 77a  70b-> 77b       0.043921
  55a-> 77a  55b-> 77b       0.043912
  42b-> 74b  -1b-> -1b       0.043542
  69a-> 77a  69b-> 77b       0.043242
  64a-> 77a  64b-> 77b       0.043225
  44a-> 77a  44b-> 77b       0.042847

Total # unrestricted pairs ...       1244
  # of alpha-alpha pairs   ...        340
  # of alpha-beta pairs    ...        622
  # of beta-beta pairs     ...        282

-------------------------------------------
DLPNO BASED TRIPLES CORRECTION
-------------------------------------------

Singles multiplier          ...  1.000000
Fragment selection                          .... not used
TCutTNO                     ... 1.000e-09
TCutMP2Pairs                ... 1.000e-05
TCutDOStrong                ... 2.000e-02
TCutMKNStrong               ... 1.000e-02
TCutDOWeak                  ... 4.000e-02
TCutMKNWeak                 ... 1.000e-01
NTCutTNO                    ... 1

Number of Triples that are to be computed         ...     30212

 . . . . . . . . .
10% done  
20% done  
30% done  
40% done  
50% done  
60% done  
70% done  
80% done  
90% done  
          Batch   1   done (  12926.318 sec)

Triples-Correction TCutTNO=   1.000e-09 (NWeakPairs = 0  1  2  3)  -0.115994613585   -0.001705678482    0.000000000000    0.000000000000
Triples-Correction  -0.117700292067

Triples timings:
Total time                      ... 13448.096 sec

Triples List generation         ...     0.000 sec
TNO generation                  ...   521.515 sec
Pair density generation         ...     0.088 sec
Look up tables                  ...     0.109 sec
Generating 3-index integrals    ...  7698.413 sec
Make 4-ind.int. from 3-ind.int  ...     3.093 sec
Projecting amplitudes (D + S)   ...  4968.819 sec
Sorting integrals for spin cases...    53.565 sec
Calculate W0/W1                 ...   161.277 sec
Energy contr. (sum over a,b,c)  ...    41.014 sec

Everything after 3-index        ...  5346.374 sec

Energy contribution AAA         ...    25.491 sec
Energy contribution AAB         ...   113.234 sec
Energy contribution ABB         ...   103.119 sec
Energy contribution BBB         ...    14.055 sec
prep                ...     3.023 sec
makeTTNO            ...  4916.599 sec
copyij              ...     0.122 sec
copyil              ...     4.091 sec
transposeij         ...     0.077 sec
newMatInDoubleProj  ...    52.750 sec
BlasInDoubleProj    ...  2572.682 sec
ProjSingles         ...    42.373 sec
ProjDoubles         ...  4926.446 sec
overall Doubles for projection      ... 2652311
used Doubles for projection         ... 2652311


Number of Triples   (0, 1, 2, 3 weak pairs; overall):  14134   10829       0       0  ( 24963)
Number of Atoms     (0, 1, 2, 3 weak pairs; overall):   18.5    13.5     0.0     0.0  (    29)
Number of PAOs      (0, 1, 2, 3 weak pairs; overall):  730.3   545.8     0.0     0.0  (  1025)
Number of AuxFcns   (0, 1, 2, 3 weak pairs; overall):  826.6   565.9     0.0     0.0  (  2424)
Number of TNOs (0, 1, 2, 3 weak pairs         ):   78.3    56.0     0.0     0.0
Aver. Number of NTNO, Atoms, PAOs, AuxFcns / Triples:  24963    68.6    16.3   650.2   713.5

Triples Correction (T)                     ...     -0.117700292
    alpha-alpha-alpha ... -0.003738604 (  3.2%)
    alpha-alpha-beta  ... -0.055302928 ( 47.0%)
    alpha-beta -beta  ... -0.054651526 ( 46.4%)
    beta -beta -beta  ... -0.004007234 (  3.4%)
Final correlation energy                   ...     -3.018647114
E(CCSD)                                    ...  -3031.371279333
E(CCSD(T))                                 ...  -3031.488979625

----------------------------
STATISTICS FOR PAIR-ENERGIES
----------------------------
Minimum, maximum and average ratios of UMP and CCSD pair-energies ... 0.45, 1.45, 1.02


------------------------------------------------------------------------------- 
                                     TIMINGS                                   
------------------------------------------------------------------------------- 


Total execution time                   ...    43128.637 sec

Localization of occupied MO's          ...        9.718 sec (  0.0%)
Fock Matrix Formation                  ...     1332.254 sec (  3.1%)
Differential overlap integrals         ...        1.445 sec (  0.0%)
Organizing maps                        ...        1.611 sec (  0.0%)
RI 3-index integral generations        ...      283.373 sec (  0.7%)
RI-PNO integral transformation         ...     3998.916 sec (  9.3%)
Initial Guess                          ...     1752.911 sec (  4.1%)
DIIS Solver                            ...       15.106 sec (  0.0%)
State Vector Update                    ...        0.684 sec (  0.0%)
Sigma-vector construction              ...    22586.518 sec ( 52.4%)
  <0|H|D>                              ...        0.028 sec (  0.0% of sigma)
  <D|H|D>(0-ext)                       ...     3891.445 sec ( 17.2% of sigma)
  <D|H|D>(2-ext Fock)                  ...        1.283 sec (  0.0% of sigma)
  <D|H|D>(2-ext)                       ...     3240.132 sec ( 14.3% of sigma)
  <D|H|D>(4-ext)                       ...      147.344 sec (  0.7% of sigma)
  <D|H|D>(4-ext-corr)                  ...      911.672 sec (  4.0% of sigma)
  CCSD doubles correction              ...      360.804 sec (  1.6% of sigma)
  <S|H|S>                              ...      639.303 sec (  2.8% of sigma)
  <S|H|D>(1-ext)                       ...      236.659 sec (  1.0% of sigma)
  <D|H|S>(1-ext)                       ...        1.070 sec (  0.0% of sigma)
  <S|H|D>(3-ext)                       ...       19.826 sec (  0.1% of sigma)
  CCSD singles correction              ...        0.005 sec (  0.0% of sigma)
  Fock-dressing                        ...     6196.101 sec ( 27.4% of sigma)
  Singles amplitudes                   ...       99.544 sec (  0.4% of sigma)
  (ik|jl)-dressing                     ...     5525.201 sec ( 24.5% of sigma)
  (ij|ab),(ia|jb)-dressing             ...     1065.381 sec (  4.7% of sigma)
  Pair energies                        ...        0.123 sec (  0.0% of sigma)
Total Time for computing (T)           ...    13488.320 sec ( 31.3% of ALL)


-------------------------   --------------------
FINAL SINGLE POINT ENERGY     -3031.488979625401
-------------------------   --------------------


                            ***************************************
                            *     ORCA property calculations      *
                            ***************************************

                                    ---------------------
                                    Active property flags
                                    ---------------------
   (+) Dipole Moment


------------------------------------------------------------------------------
                       ORCA ELECTRIC PROPERTIES CALCULATION
------------------------------------------------------------------------------

Dipole Moment Calculation                       ... on
Quadrupole Moment Calculation                   ... off
Polarizability Calculation                      ... off
GBWName                                         ... simple-grid-275-300-b3lyp_d3bj-631gd-gas-singlepoint-DLPNO_CCSD_T1-NormalPNO-augtz-gas.gbw
Electron density file                           ... simple-grid-275-300-b3lyp_d3bj-631gd-gas-singlepoint-DLPNO_CCSD_T1-NormalPNO-augtz-gas.scfp.tmp
The origin for moment calculation is the CENTER OF MASS  = (-0.317253, -0.045644  0.014569)

-------------
DIPOLE MOMENT
-------------
                                X             Y             Z
Electronic contribution:    -44.04068      -5.25435       1.53252
Nuclear contribution   :     47.27074       6.80102      -2.17074
                        -----------------------------------------
Total Dipole Moment    :      3.23006       1.54667      -0.63822
                        -----------------------------------------
Magnitude (a.u.)       :      3.63769
Magnitude (Debye)      :      9.24627



--------------------
Rotational spectrum 
--------------------
 
Rotational constants in cm-1:     0.018809     0.010546     0.009920 
Rotational constants in MHz :   563.874823   316.172168   297.381288 

 Dipole components along the rotational axes: 
x,y,z [a.u.] :     3.224152    -1.540150    -0.682327 
x,y,z [Debye]:     8.195142    -3.914751    -1.734338 

 

Timings for individual modules:

Sum of individual times         ...    59423.404 sec (= 990.390 min)
GTO integral calculation        ...       12.184 sec (=   0.203 min)   0.0 %
SCF iterations                  ...    16264.484 sec (= 271.075 min)  27.4 %
MDCI module                     ...    43146.736 sec (= 719.112 min)  72.6 %
                             ****ORCA TERMINATED NORMALLY****
TOTAL RUN TIME: 0 days 16 hours 30 minutes 25 seconds 904 msec
