
                                 *****************
                                 * O   R   C   A *
                                 *****************

           --- An Ab Initio, DFT and Semiempirical electronic structure package ---

                  #######################################################
                  #                        -***-                        #
                  #          Department of theory and spectroscopy      #
                  #               Directorship: Frank Neese             #
                  #        Max Planck Institute fuer Kohlenforschung    #
                  #                Kaiser Wilhelm Platz 1               #
                  #                 D-45470 Muelheim/Ruhr               #
                  #                      Germany                        #
                  #                                                     #
                  #                  All rights reserved                #
                  #                        -***-                        #
                  #######################################################


                         Program Version 4.1.2  - RELEASE  -


 With contributions from (in alphabetic order):
   Daniel Aravena         : Magnetic Properties
   Michael Atanasov       : Ab Initio Ligand Field Theory
   Alexander A. Auer      : GIAO ZORA
   Ute Becker             : Parallelization
   Giovanni Bistoni       : ED, Open-shell LED
   Martin Brehm           : Molecular dynamics
   Dmytro Bykov           : SCF Hessian
   Vijay G. Chilkuri      : MRCI spin determinant printing
   Dipayan Datta          : RHF DLPNO-CCSD density
   Achintya Kumar Dutta   : EOM-CC, STEOM-CC
   Dmitry Ganyushin       : Spin-Orbit,Spin-Spin,Magnetic field MRCI
   Miquel Garcia          : C-PCM Hessian
   Yang Guo               : DLPNO-NEVPT2, CIM, IAO-localization
   Andreas Hansen         : Spin unrestricted coupled pair/coupled cluster methods
   Benjamin Helmich-Paris : CASSCF linear response (MC-RPA)
   Lee Huntington         : MR-EOM, pCC
   Robert Izsak           : Overlap fitted RIJCOSX, COSX-SCS-MP3, EOM
   Christian Kollmar      : KDIIS, OOCD, Brueckner-CCSD(T), CCSD density
   Simone Kossmann        : Meta GGA functionals, TD-DFT gradient, OOMP2, MP2 Hessian
   Martin Krupicka        : AUTO-CI
   Lucas Lang             : DCDCAS
   Dagmar Lenk            : GEPOL surface, SMD
   Dimitrios Liakos       : Extrapolation schemes; parallel MDCI
   Dimitrios Manganas     : ROCIS; embedding schemes
   Dimitrios Pantazis     : SARC Basis sets
   Taras Petrenko         : DFT Hessian,TD-DFT gradient, ASA, ECA, R-Raman, ABS, FL, XAS/XES, NRVS
   Peter Pinski           : DLPNO-MP2, DLPNO-MP2 Gradient
   Christoph Reimann      : Effective Core Potentials
   Marius Retegan         : Local ZFS, SOC
   Christoph Riplinger    : Optimizer, TS searches, QM/MM, DLPNO-CCSD(T), (RO)-DLPNO pert. Triples
   Tobias Risthaus        : Range-separated hybrids, TD-DFT gradient, RPA, STAB
   Michael Roemelt        : Restricted open shell CIS
   Masaaki Saitow         : Open-shell DLPNO
   Barbara Sandhoefer     : DKH picture change effects
   Avijit Sen             : IP-ROCIS
   Kantharuban Sivalingam : CASSCF convergence, NEVPT2, FIC-MRCI
   Bernardo de Souza      : ESD, SOC TD-DFT
   Georgi Stoychev        : AutoAux, RI-MP2 NMR
   Willem Van den Heuvel  : Paramagnetic NMR
   Boris Wezisla          : Elementary symmetry handling
   Frank Wennmohs         : Technical directorship


 We gratefully acknowledge several colleagues who have allowed us to
 interface, adapt or use parts of their codes:
   Stefan Grimme, W. Hujo, H. Kruse,             : VdW corrections, initial TS optimization,
                  C. Bannwarth                     DFT functionals, gCP, sTDA/sTD-DF
   Ed Valeev                                     : LibInt (2-el integral package), F12 methods
   Garnet Chan, S. Sharma, J. Yang, R. Olivares  : DMRG
   Ulf Ekstrom                                   : XCFun DFT Library
   Mihaly Kallay                                 : mrcc  (arbitrary order and MRCC methods)
   Andreas Klamt, Michael Diedenhofen            : otool_cosmo (COSMO solvation model)
   Jiri Pittner, Ondrej Demel                    : Mk-CCSD
   Frank Weinhold                                : gennbo (NPA and NBO analysis)
   Christopher J. Cramer and Donald G. Truhlar   : smd solvation model
   Lars Goerigk                                  : TD-DFT with DH, B97 family of functionals
   V. Asgeirsson, H. Jonsson                     : NEB implementation
   FAccTs GmbH                                   : IRC, NEB, NEB-TS, Multilevel


 Your calculation uses the libint2 library for the computation of 2-el integrals
 For citations please refer to: http://libint.valeyev.net

 This ORCA versions uses:
   CBLAS   interface :  Fast vector & matrix operations
   LAPACKE interface :  Fast linear algebra routines
   SCALAPACK package :  Parallel linear algebra routines


----- Orbital basis set information -----
Your calculation utilizes the basis: aug-cc-pVTZ 
    H, B-Ne : Obtained from the ccRepo (grant-hill.group.shef.ac.uk/ccrepo) Feb. 2017
              R. A. Kendall, T. H. Dunning, Jr., R. J. Harrison, J. Chem. Phys. 96, 6796 (1992)
         He : Obtained from the ccRepo (grant-hill.group.shef.ac.uk/ccrepo) Feb. 2017
              D. E. Woon, T. H. Dunning, Jr., J. Chem. Phys. 100, 2975 (1994)
  Li-Be, Na : Obtained from the ccRepo (grant-hill.group.shef.ac.uk/ccrepo) Feb. 2017
              B. P. Prascher, D. E. Woon, K. A. Peterson, T. H. Dunning, Jr., A. K. Wilson, Theor. Chem. Acc. 128, 69 (2011)
         Mg : Obtained from the Peterson Research Group Website (tyr0.chem.wsu.edu/~kipeters) Feb. 2017
              B. P. Prascher, D. E. Woon, K. A. Peterson, T. H. Dunning, Jr., A. K. Wilson, Theor. Chem. Acc. 128, 69 (2011)
      Al-Ar : Obtained from the ccRepo (grant-hill.group.shef.ac.uk/ccrepo) Feb. 2017
              D. E. Woon, T. H. Dunning, Jr., J. Chem. Phys. 98, 1358 (1993)
      Sc-Zn : Obtained from the ccRepo (grant-hill.group.shef.ac.uk/ccrepo) Feb. 2017
              N. B. Balabanov, K. A. Peterson, J. Chem. Phys. 123, 064107 (2005)
              N. B. Balabanov, K. A. Peterson, J. Chem. Phys. 125, 074110 (2006)
      Ga-Kr : Obtained from the ccRepo (grant-hill.group.shef.ac.uk/ccrepo) Feb. 2017
              A. K. Wilson, D. E. Woon, K. A. Peterson, T. H. Dunning, Jr., J. Chem. Phys. 110, 7667 (1999)
     Ag, Au : Obtained from the Peterson Research Group Website (tyr0.chem.wsu.edu/~kipeters) Feb. 2017
              K. A. Peterson, C. Puzzarini, Theor. Chem. Acc. 114, 283 (2005)

----- AuxJ basis set information -----
Your calculation utilizes the AutoAux generation procedure.
  G. L. Stoychev, A. A. Auer, F. Neese, J. Chem. Theory Comput. 13, 554 (2017)

----- AuxC basis set information -----
Your calculation utilizes the auxiliary basis: aug-cc-pVTZ/C 
  H-He, B-F, Al-Ar, Ga-Kr : Obtained from the EMSL Basis Set Exchange (bse.pnl.gov) Feb. 2017
                            F. Weigend, A. Kohn, C. Hattig, J. Chem. Phys. 116, 3175 (2002)
                   Be, Mg : Obtained from the TURBOMOLE 7.0 basis set library
                            C. Haettig, Phys. Chem. Chem. Phys. 7, 59 (2005)
                       Ne : Obtained from the EMSL Basis Set Exchange (bse.pnl.gov) Feb. 2017
                            C. Haettig, Phys. Chem. Chem. Phys. 7, 59 (2005)
                            F. Weigend, A. Kohn, C. Hattig, J. Chem. Phys. 116, 3175 (2002)
                    Sc-Zn : Obtained from the EMSL Basis Set Exchange (bse.pnl.gov) Feb. 2017
                            J. G. Hill, J. A. Platts, J. Chem. Phys. 128, 044104 (2008)

----- AuxJK basis set information -----
Your calculation utilizes the AutoAux generation procedure.
  G. L. Stoychev, A. A. Auer, F. Neese, J. Chem. Theory Comput. 13, 554 (2017)

================================================================================
                                        WARNINGS
                       Please study these warnings very carefully!
================================================================================


WARNING: your system is open-shell and RHF/RKS was chosen
  ===> : WILL SWITCH to UHF/UKS


WARNING: MDCI localization with Augmented Hessian Foster-Boys
  ===> : Switching off randomization!

WARNING: Post HF methods need fully converged wavefunctions
  ===> : Setting SCFConvForced true
         You can overwrite this default with %scf ConvForced false 


INFO   : the flag for use of LIBINT has been found!

================================================================================
                                       INPUT FILE
================================================================================
NAME = simple-grid-215-300-b3lyp_d3bj-631gd-gas-singlepoint-DLPNO_CCSD_T1-NormalPNO-augtz-gas.inp
|  1> ! aug-cc-pVTZ aug-cc-pVTZ/C DLPNO-CCSD(T1) TightSCF NormalPNO UNO MiniPrint AutoAux
|  2> %pal nproc 10 end
|  3> %maxcore 20000
|  4> %mdci
|  5>      density none
|  6> end
|  7> 
|  8> * xyz 0 6
|  9>  O      0.28683500      0.20545700     -0.47198700
| 10>  C      1.12245800      1.13799000     -0.18796200
| 11>  C      2.66953100      0.14811200      0.92971900
| 12>  C      3.13853800     -0.64416600     -0.08997500
| 13>  C      4.26753400     -0.22022100     -0.97393500
| 14> Fe     -1.56243300     -0.17287500     -0.10876500
| 15> Cl     -1.90206900     -2.06157900     -1.15466200
| 16>  C      2.47494700     -1.94392300     -0.39910900
| 17> Cl     -2.54940300      1.60340600     -0.94090900
| 18> Cl     -1.85082600     -0.33205500      2.06602100
| 19>  H      3.24724700      1.04636400      1.14352900
| 20>  H      2.98894200     -2.50015600     -1.18629600
| 21>  H      2.38149600     -2.57817800      0.48912700
| 22>  H      1.44471300     -1.73107400     -0.73221300
| 23>  H      5.10443000     -0.91795900     -0.82989100
| 24>  H      3.99519700     -0.28734000     -2.03473100
| 25>  H      4.62429600      0.78866200     -0.75421500
| 26>  C      1.87906200     -0.43599900      2.08151200
| 27>  H      2.44796700     -1.24585100      2.55371200
| 28>  H      1.68051800      0.31384200      2.84880400
| 29>  H      0.91936000     -0.84942800      1.76332600
| 30>  C      0.74476700      2.11053000      0.91138100
| 31>  H      1.58575200      2.72489900      1.23852400
| 32>  H     -0.01353000      2.76957700      0.46563100
| 33>  H      0.27904400      1.61040100      1.75960100
| 34>  C      1.84133300      1.74688700     -1.37036200
| 35>  H      1.13426900      2.45300100     -1.82541000
| 36>  H      2.73723500      2.30024000     -1.08118900
| 37>  H      2.08169200      0.99269000     -2.11978300
| 38> *
| 39> 
| 40> 
| 41>                          ****END OF INPUT****
================================================================================

                       ****************************
                       * Single Point Calculation *
                       ****************************

---------------------------------
CARTESIAN COORDINATES (ANGSTROEM)
---------------------------------
  O      0.286835    0.205457   -0.471987
  C      1.122458    1.137990   -0.187962
  C      2.669531    0.148112    0.929719
  C      3.138538   -0.644166   -0.089975
  C      4.267534   -0.220221   -0.973935
  Fe    -1.562433   -0.172875   -0.108765
  Cl    -1.902069   -2.061579   -1.154662
  C      2.474947   -1.943923   -0.399109
  Cl    -2.549403    1.603406   -0.940909
  Cl    -1.850826   -0.332055    2.066021
  H      3.247247    1.046364    1.143529
  H      2.988942   -2.500156   -1.186296
  H      2.381496   -2.578178    0.489127
  H      1.444713   -1.731074   -0.732213
  H      5.104430   -0.917959   -0.829891
  H      3.995197   -0.287340   -2.034731
  H      4.624296    0.788662   -0.754215
  C      1.879062   -0.435999    2.081512
  H      2.447967   -1.245851    2.553712
  H      1.680518    0.313842    2.848804
  H      0.919360   -0.849428    1.763326
  C      0.744767    2.110530    0.911381
  H      1.585752    2.724899    1.238524
  H     -0.013530    2.769577    0.465631
  H      0.279044    1.610401    1.759601
  C      1.841333    1.746887   -1.370362
  H      1.134269    2.453001   -1.825410
  H      2.737235    2.300240   -1.081189
  H      2.081692    0.992690   -2.119783

----------------------------
CARTESIAN COORDINATES (A.U.)
----------------------------
  NO LB      ZA    FRAG     MASS         X           Y           Z
   0 O     8.0000    0    15.999    0.542040    0.388257   -0.891926
   1 C     6.0000    0    12.011    2.121138    2.150489   -0.355197
   2 C     6.0000    0    12.011    5.044682    0.279891    1.756914
   3 C     6.0000    0    12.011    5.930977   -1.217297   -0.170028
   4 C     6.0000    0    12.011    8.064471   -0.416157   -1.840470
   5 Fe   26.0000    0    55.850   -2.952570   -0.326686   -0.205536
   6 Cl   17.0000    0    35.453   -3.594389   -3.895820   -2.181995
   7 C     6.0000    0    12.011    4.676972   -3.673482   -0.754207
   8 Cl   17.0000    0    35.453   -4.817673    3.029998   -1.778060
   9 Cl   17.0000    0    35.453   -3.497554   -0.627493    3.904214
  10 H     1.0000    0     1.008    6.136408    1.977341    2.160957
  11 H     1.0000    0     1.008    5.648282   -4.724610   -2.241775
  12 H     1.0000    0     1.008    4.500375   -4.872050    0.924316
  13 H     1.0000    0     1.008    2.730112   -3.271256   -1.383682
  14 H     1.0000    0     1.008    9.645975   -1.734691   -1.568267
  15 H     1.0000    0     1.008    7.549828   -0.542994   -3.845084
  16 H     1.0000    0     1.008    8.738653    1.490355   -1.425260
  17 C     6.0000    0    12.011    3.550913   -0.823919    3.933488
  18 H     1.0000    0     1.008    4.625987   -2.354317    4.825816
  19 H     1.0000    0     1.008    3.175719    0.593075    5.383459
  20 H     1.0000    0     1.008    1.737339   -1.605186    3.332203
  21 C     6.0000    0    12.011    1.407406    3.988324    1.722260
  22 H     1.0000    0     1.008    2.996637    5.149313    2.340471
  23 H     1.0000    0     1.008   -0.025568    5.233742    0.879915
  24 H     1.0000    0     1.008    0.527317    3.043217    3.325164
  25 C     6.0000    0    12.011    3.479615    3.301138   -2.589609
  26 H     1.0000    0     1.008    2.143458    4.635500   -3.449525
  27 H     1.0000    0     1.008    5.172625    4.346824   -2.043151
  28 H     1.0000    0     1.008    3.933828    1.875912   -4.005809



           ************************************************************
           *        Program running with 10 parallel MPI-processes    *
           *              working on a common directory               *
           ************************************************************


           ************************************************************
           *        Program running with 10 parallel MPI-processes    *
           *              working on a common directory               *
           ************************************************************

Diagonalization of the overlap matrix:
Smallest eigenvalue                        ... 7.446e-07
Time for diagonalization                   ...    0.376 sec
Threshold for overlap eigenvalues          ... 1.000e-08
Number of eigenvalues below threshold      ... 0
Time for construction of square roots      ...    0.302 sec
Total time needed                          ...    0.683 sec

-------------------
DFT GRID GENERATION
-------------------

General Integration Accuracy     IntAcc      ...  4.340
Radial Grid Type                 RadialGrid  ... Gauss-Chebyshev
Angular Grid (max. acc.)         AngularGrid ... Lebedev-110
Angular grid pruning method      GridPruning ... 3 (G Style)
Weight generation scheme         WeightScheme... Becke
Basis function cutoff            BFCut       ...    1.0000e-11
Integration weight cutoff        WCut        ...    1.0000e-14
Grids for H and He will be reduced by one unit

# of grid points (after initial pruning)     ...  36112 (   0.0 sec)
# of grid points (after weights+screening)   ...  32413 (   0.1 sec)
nearest neighbour list constructed           ...    0.0 sec
Grid point re-assignment to atoms done       ...    0.0 sec
Grid point division into batches done        ...    0.0 sec
Reduced shell lists constructed in    0.3 sec

Total number of grid points                  ...    32413
Total number of batches                      ...      523
Average number of points per batch           ...       61
Average number of grid points per atom       ...     1118
Average number of shells per batch           ...   290.11 (84.58%)
Average number of basis functions per batch  ...   860.59 (83.96%)
Average number of large shells per batch     ...   236.57 (81.55%)
Average number of large basis fcns per batch ...   701.50 (81.51%)
Maximum spatial batch extension              ...   3.45,  3.88,  5.62 au
Average spatial batch extension              ...   0.18,  0.18,  0.18 au

Time for grid setup =    0.402 sec

Loading Hartree-Fock densities                     ... done
Calculating cut-offs                               ... done
Setting up the integral package                    ... done
Initializing the effective Hamiltonian             ... done
Starting the Coulomb interaction                   ... done (   1.1 sec)
Reading the grid                                   ... done
Mapping shells                                     ... done
Starting the XC term evaluation                    ... done (   0.8 sec)
Transforming the Hamiltonian                       ... done (   0.2 sec)
Diagonalizing the Hamiltonian                      ... done (   0.3 sec)
Back transforming the eigenvectors                 ... done (   0.1 sec)
Now organizing SCF variables                       ... done
--------------
SCF ITERATIONS
--------------
ITER       Energy         Delta-E        Max-DP      RMS-DP      [F,P]     Damp
               ***  Starting incremental Fock matrix formation  ***
  0  -3027.5708956752   0.000000000000 0.27326126  0.00104333  0.2576245 0.7000
  1  -3027.8216315364  -0.250735861153 0.21484001  0.00082022  0.1572154 0.7000
                               ***Turning on DIIS***
  2  -3027.9901155761  -0.168484039671 0.15485748  0.00060565  0.1095520 0.7000
  3  -3029.5889810633  -1.598865487241 0.35049292  0.00151620  0.0819865 0.0000
  4  -3028.2930700953   1.295910968041 0.04790069  0.00021607  0.0211275 0.0000
  5  -3028.4066388656  -0.113568770315 0.03994579  0.00017166  0.0114305 0.0000
  6  -3028.4561642882  -0.049525422584 0.02153355  0.00007325  0.0057092 0.0000
  7  -3028.4723504650  -0.016186176790 0.00849754  0.00003324  0.0034542 0.0000
  8  -3028.4582443815   0.014106083423 0.00575375  0.00001898  0.0016086 0.0000
  9  -3028.4555082797   0.002736101796 0.00331806  0.00001115  0.0007244 0.0000
 10  -3028.4435972767   0.011911003005 0.00086796  0.00000304  0.0003428 0.0000
 11  -3028.4481407501  -0.004543473404 0.00037567  0.00000161  0.0000897 0.0000
 12  -3028.4461691061   0.001971643989 0.00028014  0.00000134  0.0000237 0.0000
 13  -3028.4462869964  -0.000117890291 0.00108422  0.00000252  0.0000095 0.0000
 14  -3028.4463163486  -0.000029352177 0.00036220  0.00000209  0.0000030 0.0000
 15  -3028.4462469225   0.000069426151 0.00094982  0.00000214  0.0000022 0.0000
 16  -3028.4462767948  -0.000029872303 0.00056833  0.00000221  0.0000017 0.0000
 17  -3028.4462918011  -0.000015006339 0.00075867  0.00000177  0.0000015 0.0000
 18  -3028.4462786762   0.000013124898 0.00078884  0.00000190  0.0000015 0.0000
 19  -3028.4462868699  -0.000008193678 0.00058515  0.00000140  0.0000015 0.0000
               *** Restarting incremental Fock matrix formation ***
                                   *** Resetting DIIS ***
 20  -3028.4462797088   0.000007161078 0.00474173  0.00001046  0.0000015 0.0000
 21  -3028.4462807732  -0.000001064439 0.00114357  0.00000259  0.0000015 0.0000
 22  -3028.4462843302  -0.000003556992 0.00003710  0.00000007  0.0000014 0.0000
 23  -3028.4462816455   0.000002684777 0.00015747  0.00000206  0.0000015 0.0000
 24  -3028.4462780288   0.000003616695 0.00002050  0.00000016  0.0000014 0.0000
 25  -3028.4462807925  -0.000002763776 0.00094053  0.00000231  0.0000014 0.0000
 26  -3028.4462802540   0.000000538526 0.00011218  0.00000131  0.0000014 0.0000
 27  -3028.4462773951   0.000002858913 0.00008428  0.00000020  0.0000014 0.0000
 28  -3028.4462793518  -0.000001956694 0.00021403  0.00000161  0.0000014 0.0000
 29  -3028.4462800115  -0.000000659665 0.00059816  0.00000138  0.0000014 0.0000
 30  -3028.4462773683   0.000002643125 0.00002345  0.00000013  0.0000014 0.0000
 31  -3028.4462796289  -0.000002260549 0.00030584  0.00000222  0.0000014 0.0000
 32  -3028.4462800307  -0.000000401797 0.00019824  0.00000171  0.0000014 0.0000
 33  -3028.4462775504   0.000002480259 0.00013470  0.00000039  0.0000014 0.0000
 34  -3028.4462765962   0.000000954267 0.00008843  0.00000016  0.0000014 0.0000
 35  -3028.4462766122  -0.000000016018 0.00013819  0.00000026  0.0000014 0.0000
 36  -3028.4462768770  -0.000000264869 0.00010894  0.00000031  0.0000014 0.0000
 37  -3028.4462798626  -0.000002985534 0.00134997  0.00000312  0.0000014 0.0000
 38  -3028.4462763722   0.000003490374 0.00017972  0.00000046  0.0000014 0.0000
 39  -3028.4462806366  -0.000004264434 0.00064745  0.00000547  0.0000013 0.0000
               *** Restarting incremental Fock matrix formation ***
                                   *** Resetting DIIS ***
 40  -3028.4462800555   0.000000581126 0.00131278  0.00000990  0.0000013 0.0000
 41  -3028.4462806337  -0.000000578199 0.00060636  0.00000168  0.0000013 0.0000
 42  -3028.4462833907  -0.000002756951 0.00208091  0.00000459  0.0000013 0.0000
 43  -3028.4462862661  -0.000002875481 0.00084125  0.00000286  0.0000013 0.0000
 44  -3028.4462935510  -0.000007284854 0.00202042  0.00000395  0.0000012 0.0000
 45  -3028.4463069740  -0.000013423054 0.00117924  0.00000392  0.0000011 0.0000
 46  -3028.4462512840   0.000055690035 0.00206284  0.00000454  0.0000010 0.0000
 47  -3028.4462845361  -0.000033252112 0.00016944  0.00000209  0.0000011 0.0000
 48  -3028.4462670154   0.000017520734 0.00079911  0.00000162  0.0000011 0.0000
 49  -3028.4462639470   0.000003068398 0.00093871  0.00000200  0.0000011 0.0000
 50  -3028.4462829699  -0.000019022887 0.00076657  0.00000159  0.0000012 0.0000
 51  -3028.4463020678  -0.000019097891 0.00234751  0.00000487  0.0000011 0.0000
 52  -3028.4463285612  -0.000026493431 0.00232695  0.00001076  0.0000010 0.0000
 53  -3028.4461834682   0.000145092995 0.00439121  0.00001084  0.0000011 0.0000
 54  -3028.4463071596  -0.000123691349 0.00034383  0.00000148  0.0000012 0.0000
 55  -3028.4462853568   0.000021802789 0.00027807  0.00000154  0.0000011 0.0000
 56  -3028.4462852156   0.000000141156 0.00067400  0.00000154  0.0000010 0.0000
                            ***DIIS convergence achieved***

               *****************************************************
               *                     SUCCESS                       *
               *           SCF CONVERGED AFTER  57 CYCLES          *
               *****************************************************

Total Energy       :        -3028.44629771 Eh          -82408.21331 eV
  Last Energy change         ...   -1.2495e-05  Tolerance :   1.0000e-08
  Last MAX-Density change    ...    2.0915e-03  Tolerance :   1.0000e-07
             **** THE GBW FILE WAS UPDATED (simple-grid-215-300-b3lyp_d3bj-631gd-gas-singlepoint-DLPNO_CCSD_T1-NormalPNO-augtz-gas.gbw) ****
             **** DENSITY FILE WAS UPDATED (simple-grid-215-300-b3lyp_d3bj-631gd-gas-singlepoint-DLPNO_CCSD_T1-NormalPNO-augtz-gas.scfp.tmp) ****
             **** ENERGY FILE WAS UPDATED (simple-grid-215-300-b3lyp_d3bj-631gd-gas-singlepoint-DLPNO_CCSD_T1-NormalPNO-augtz-gas.en.tmp) ****
----------------------
UHF SPIN CONTAMINATION
----------------------

Expectation value of <S**2>     :     8.766567
Ideal value S*(S+1) for S=2.5   :     8.750000
Deviation                       :     0.016567

----------------
ORBITAL ENERGIES
----------------
                 SPIN UP ORBITALS
  NO   OCC          E(Eh)            E(eV) 
   0   1.0000    -261.561062     -7117.4383 
   1   1.0000    -104.781889     -2851.2601 
   2   1.0000    -104.779666     -2851.1997 
   3   1.0000    -104.778408     -2851.1654 
   4   1.0000     -32.228863      -876.9919 
   5   1.0000     -27.705171      -753.8960 
   6   1.0000     -27.704295      -753.8722 
   7   1.0000     -27.704155      -753.8684 
   8   1.0000     -20.588092      -560.2305 
   9   1.0000     -11.406476      -310.3860 
  10   1.0000     -11.318776      -307.9996 
  11   1.0000     -11.271598      -306.7158 
  12   1.0000     -11.266791      -306.5850 
  13   1.0000     -11.265210      -306.5419 
  14   1.0000     -11.261898      -306.4518 
  15   1.0000     -11.253316      -306.2183 
  16   1.0000     -11.243389      -305.9482 
  17   1.0000     -10.508557      -285.9524 
  18   1.0000     -10.506305      -285.8911 
  19   1.0000     -10.505006      -285.8558 
  20   1.0000      -7.975405      -217.0218 
  21   1.0000      -7.974616      -217.0003 
  22   1.0000      -7.974598      -216.9998 
  23   1.0000      -7.973179      -216.9612 
  24   1.0000      -7.972403      -216.9401 
  25   1.0000      -7.972321      -216.9379 
  26   1.0000      -7.971814      -216.9241 
  27   1.0000      -7.971142      -216.9058 
  28   1.0000      -7.971053      -216.9034 
  29   1.0000      -4.584020      -124.7375 
  30   1.0000      -3.197073       -86.9968 
  31   1.0000      -3.195619       -86.9572 
  32   1.0000      -3.195392       -86.9510 
  33   1.0000      -1.429515       -38.8991 
  34   1.0000      -1.159206       -31.5436 
  35   1.0000      -1.086849       -29.5747 
  36   1.0000      -1.054239       -28.6873 
  37   1.0000      -1.048952       -28.5434 
  38   1.0000      -1.046429       -28.4748 
  39   1.0000      -1.035552       -28.1788 
  40   1.0000      -0.995493       -27.0887 
  41   1.0000      -0.987520       -26.8718 
  42   1.0000      -0.929823       -25.3018 
  43   1.0000      -0.913966       -24.8703 
  44   1.0000      -0.913198       -24.8494 
  45   1.0000      -0.912596       -24.8330 
  46   1.0000      -0.902977       -24.5713 
  47   1.0000      -0.902597       -24.5609 
  48   1.0000      -0.798673       -21.7330 
  49   1.0000      -0.754888       -20.5416 
  50   1.0000      -0.692584       -18.8462 
  51   1.0000      -0.683141       -18.5892 
  52   1.0000      -0.681707       -18.5502 
  53   1.0000      -0.676763       -18.4156 
  54   1.0000      -0.644355       -17.5338 
  55   1.0000      -0.624010       -16.9802 
  56   1.0000      -0.604874       -16.4595 
  57   1.0000      -0.596379       -16.2283 
  58   1.0000      -0.582082       -15.8393 
  59   1.0000      -0.579319       -15.7641 
  60   1.0000      -0.569857       -15.5066 
  61   1.0000      -0.561905       -15.2902 
  62   1.0000      -0.560460       -15.2509 
  63   1.0000      -0.544511       -14.8169 
  64   1.0000      -0.536100       -14.5880 
  65   1.0000      -0.520360       -14.1597 
  66   1.0000      -0.517971       -14.0947 
  67   1.0000      -0.486764       -13.2455 
  68   1.0000      -0.467569       -12.7232 
  69   1.0000      -0.461053       -12.5459 
  70   1.0000      -0.435524       -11.8512 
  71   1.0000      -0.430431       -11.7126 
  72   1.0000      -0.428005       -11.6466 
  73   1.0000      -0.419789       -11.4230 
  74   1.0000      -0.418215       -11.3802 
  75   1.0000      -0.417337       -11.3563 
  76   1.0000      -0.378030       -10.2867 
  77   0.0000       0.009319         0.2536 
  78   0.0000       0.020710         0.5636 
  79   0.0000       0.021482         0.5845 
  80   0.0000       0.027333         0.7438 
  81   0.0000       0.034902         0.9497 
  82   0.0000       0.039644         1.0788 
  83   0.0000       0.040896         1.1128 
  84   0.0000       0.043044         1.1713 
  85   0.0000       0.045122         1.2278 
  86   0.0000       0.045949         1.2503 
  87   0.0000       0.056782         1.5451 
  88   0.0000       0.057375         1.5613 
  89   0.0000       0.060403         1.6437 
  90   0.0000       0.064032         1.7424 
  91   0.0000       0.065742         1.7889 
  92   0.0000       0.073359         1.9962 
  93   0.0000       0.075644         2.0584 
  94   0.0000       0.082883         2.2554 
  95   0.0000       0.087362         2.3772 
  96   0.0000       0.090132         2.4526 
  97   0.0000       0.092998         2.5306 
  98   0.0000       0.096887         2.6364 
  99   0.0000       0.098778         2.6879 
 100   0.0000       0.104159         2.8343 
 101   0.0000       0.105699         2.8762 
 102   0.0000       0.117174         3.1885 
 103   0.0000       0.118175         3.2157 
 104   0.0000       0.121187         3.2977 
 105   0.0000       0.124048         3.3755 
 106   0.0000       0.125677         3.4199 
 107   0.0000       0.130190         3.5426 
 108   0.0000       0.130935         3.5629 
 109   0.0000       0.135801         3.6953 
 110   0.0000       0.139674         3.8007 
 111   0.0000       0.142006         3.8642 
 112   0.0000       0.145437         3.9575 
 113   0.0000       0.147702         4.0192 
 114   0.0000       0.150504         4.0954 
 115   0.0000       0.153922         4.1884 
 116   0.0000       0.157116         4.2753 
 117   0.0000       0.158843         4.3223 
 118   0.0000       0.160747         4.3741 
 119   0.0000       0.162188         4.4134 
 120   0.0000       0.165758         4.5105 
 121   0.0000       0.168635         4.5888 
 122   0.0000       0.173592         4.7237 
 123   0.0000       0.176529         4.8036 
 124   0.0000       0.179652         4.8886 
 125   0.0000       0.182312         4.9610 
 126   0.0000       0.187182         5.0935 
 127   0.0000       0.189625         5.1600 
 128   0.0000       0.191086         5.1997 
 129   0.0000       0.197345         5.3700 
 130   0.0000       0.199535         5.4296 
 131   0.0000       0.203646         5.5415 
 132   0.0000       0.205208         5.5840 
 133   0.0000       0.209989         5.7141 
 134   0.0000       0.213338         5.8052 
 135   0.0000       0.215881         5.8744 
 136   0.0000       0.218889         5.9563 
 137   0.0000       0.221746         6.0340 
 138   0.0000       0.222547         6.0558 
 139   0.0000       0.226312         6.1583 
 140   0.0000       0.228128         6.2077 
 141   0.0000       0.236709         6.4412 
 142   0.0000       0.236959         6.4480 
 143   0.0000       0.243125         6.6158 
 144   0.0000       0.245498         6.6803 
 145   0.0000       0.251309         6.8385 
 146   0.0000       0.254466         6.9244 
 147   0.0000       0.255924         6.9640 
 148   0.0000       0.259761         7.0685 
 149   0.0000       0.263238         7.1631 
 150   0.0000       0.267036         7.2664 
 151   0.0000       0.274457         7.4683 
 152   0.0000       0.276712         7.5297 
 153   0.0000       0.280403         7.6302 
 154   0.0000       0.287395         7.8204 
 155   0.0000       0.290394         7.9020 
 156   0.0000       0.293990         7.9999 
 157   0.0000       0.294335         8.0093 
 158   0.0000       0.300940         8.1890 
 159   0.0000       0.302654         8.2356 
 160   0.0000       0.303270         8.2524 
 161   0.0000       0.313298         8.5253 
 162   0.0000       0.313820         8.5395 
 163   0.0000       0.319557         8.6956 
 164   0.0000       0.323774         8.8103 
 165   0.0000       0.328698         8.9443 
 166   0.0000       0.330976         9.0063 
 167   0.0000       0.334825         9.1111 
 168   0.0000       0.337006         9.1704 
 169   0.0000       0.338649         9.2151 
 170   0.0000       0.344555         9.3758 
 171   0.0000       0.347889         9.4665 
 172   0.0000       0.352175         9.5832 
 173   0.0000       0.354876         9.6567 
 174   0.0000       0.356924         9.7124 
 175   0.0000       0.359942         9.7945 
 176   0.0000       0.367052         9.9880 
 177   0.0000       0.370282        10.0759 
 178   0.0000       0.371549        10.1104 
 179   0.0000       0.376328        10.2404 
 180   0.0000       0.376835        10.2542 
 181   0.0000       0.378092        10.2884 
 182   0.0000       0.385605        10.4928 
 183   0.0000       0.387038        10.5318 
 184   0.0000       0.387676        10.5492 
 185   0.0000       0.391814        10.6618 
 186   0.0000       0.394984        10.7481 
 187   0.0000       0.402390        10.9496 
 188   0.0000       0.403413        10.9774 
 189   0.0000       0.405946        11.0464 
 190   0.0000       0.410447        11.1688 
 191   0.0000       0.411420        11.1953 
 192   0.0000       0.417212        11.3529 
 193   0.0000       0.420319        11.4374 
 194   0.0000       0.426469        11.6048 
 195   0.0000       0.431354        11.7377 
 196   0.0000       0.432311        11.7638 
 197   0.0000       0.433113        11.7856 
 198   0.0000       0.440130        11.9766 
 199   0.0000       0.444396        12.0926 
 200   0.0000       0.446604        12.1527 
 201   0.0000       0.451294        12.2803 
 202   0.0000       0.453450        12.3390 
 203   0.0000       0.457044        12.4368 
 204   0.0000       0.462298        12.5798 
 205   0.0000       0.463690        12.6177 
 206   0.0000       0.467628        12.7248 
 207   0.0000       0.469821        12.7845 
 208   0.0000       0.475406        12.9365 
 209   0.0000       0.479463        13.0468 
 210   0.0000       0.484828        13.1929 
 211   0.0000       0.485610        13.2141 
 212   0.0000       0.489551        13.3214 
 213   0.0000       0.491026        13.3615 
 214   0.0000       0.495047        13.4709 
 215   0.0000       0.497095        13.5266 
 216   0.0000       0.503082        13.6895 
 217   0.0000       0.506409        13.7801 
 218   0.0000       0.509134        13.8542 
 219   0.0000       0.510880        13.9017 
 220   0.0000       0.513046        13.9607 
 221   0.0000       0.517119        14.0715 
 222   0.0000       0.520016        14.1504 
 223   0.0000       0.526183        14.3182 
 224   0.0000       0.526455        14.3256 
 225   0.0000       0.528024        14.3683 
 226   0.0000       0.529085        14.3971 
 227   0.0000       0.537383        14.6229 
 228   0.0000       0.539237        14.6734 
 229   0.0000       0.542443        14.7606 
 230   0.0000       0.544602        14.8194 
 231   0.0000       0.548427        14.9235 
 232   0.0000       0.552714        15.0401 
 233   0.0000       0.554798        15.0968 
 234   0.0000       0.558571        15.1995 
 235   0.0000       0.562612        15.3094 
 236   0.0000       0.568544        15.4709 
 237   0.0000       0.571538        15.5524 
 238   0.0000       0.574903        15.6439 
 239   0.0000       0.578641        15.7456 
 240   0.0000       0.580684        15.8012 
 241   0.0000       0.583138        15.8680 
 242   0.0000       0.586908        15.9706 
 243   0.0000       0.589119        16.0307 
 244   0.0000       0.596158        16.2223 
 245   0.0000       0.599869        16.3233 
 246   0.0000       0.608545        16.5594 
 247   0.0000       0.609961        16.5979 
 248   0.0000       0.612257        16.6604 
 249   0.0000       0.612883        16.6774 
 250   0.0000       0.615549        16.7499 
 251   0.0000       0.621053        16.8997 
 252   0.0000       0.622848        16.9486 
 253   0.0000       0.629578        17.1317 
 254   0.0000       0.632551        17.2126 
 255   0.0000       0.636023        17.3071 
 256   0.0000       0.643499        17.5105 
 257   0.0000       0.649474        17.6731 
 258   0.0000       0.650603        17.7038 
 259   0.0000       0.653896        17.7934 
 260   0.0000       0.659098        17.9350 
 261   0.0000       0.666543        18.1376 
 262   0.0000       0.670089        18.2341 
 263   0.0000       0.672063        18.2878 
 264   0.0000       0.674985        18.3673 
 265   0.0000       0.679060        18.4782 
 266   0.0000       0.683583        18.6012 
 267   0.0000       0.689683        18.7672 
 268   0.0000       0.694578        18.9004 
 269   0.0000       0.695358        18.9217 
 270   0.0000       0.703575        19.1453 
 271   0.0000       0.706858        19.2346 
 272   0.0000       0.710989        19.3470 
 273   0.0000       0.714729        19.4488 
 274   0.0000       0.719466        19.5777 
 275   0.0000       0.723572        19.6894 
 276   0.0000       0.726986        19.7823 
 277   0.0000       0.731205        19.8971 
 278   0.0000       0.733523        19.9602 
 279   0.0000       0.736285        20.0353 
 280   0.0000       0.744495        20.2587 
 281   0.0000       0.748341        20.3634 
 282   0.0000       0.759135        20.6571 
 283   0.0000       0.759861        20.6769 
 284   0.0000       0.768614        20.9151 
 285   0.0000       0.777615        21.1600 
 286   0.0000       0.781796        21.2738 
 287   0.0000       0.788743        21.4628 
 288   0.0000       0.791283        21.5319 
 289   0.0000       0.795583        21.6489 
 290   0.0000       0.799680        21.7604 
 291   0.0000       0.812992        22.1226 
 292   0.0000       0.813459        22.1353 
 293   0.0000       0.825789        22.4709 
 294   0.0000       0.829877        22.5821 
 295   0.0000       0.836947        22.7745 
 296   0.0000       0.841030        22.8856 
 297   0.0000       0.847326        23.0569 
 298   0.0000       0.852473        23.1970 
 299   0.0000       0.857035        23.3211 
 300   0.0000       0.857674        23.3385 
 301   0.0000       0.865097        23.5405 
 302   0.0000       0.867204        23.5978 
 303   0.0000       0.872208        23.7340 
 304   0.0000       0.873938        23.7811 
 305   0.0000       0.878576        23.9073 
 306   0.0000       0.884809        24.0769 
 307   0.0000       0.886467        24.1220 
 308   0.0000       0.901372        24.5276 
 309   0.0000       0.903857        24.5952 
 310   0.0000       0.907772        24.7017 
 311   0.0000       0.908932        24.7333 
 312   0.0000       0.913554        24.8591 
 313   0.0000       0.915544        24.9132 
 314   0.0000       0.918666        24.9982 
 315   0.0000       0.924786        25.1647 
 316   0.0000       0.931249        25.3406 
 317   0.0000       0.933104        25.3910 
 318   0.0000       0.937175        25.5018 
 319   0.0000       0.940958        25.6048 
 320   0.0000       0.944627        25.7046 
 321   0.0000       0.949765        25.8444 
 322   0.0000       0.954238        25.9661 
 323   0.0000       0.956098        26.0167 
 324   0.0000       0.958962        26.0947 
 325   0.0000       0.962375        26.1876 
 326   0.0000       0.968886        26.3647 
 327   0.0000       0.974315        26.5125 
 328   0.0000       0.975528        26.5455 
 329   0.0000       0.980375        26.6773 
 330   0.0000       0.983240        26.7553 
 331   0.0000       0.986035        26.8314 
 332   0.0000       0.990863        26.9627 
 333   0.0000       0.991778        26.9876 
 334   0.0000       0.993729        27.0407 
 335   0.0000       0.999069        27.1861 
 336   0.0000       1.000847        27.2344 
 337   0.0000       1.004308        27.3286 
 338   0.0000       1.011877        27.5346 
 339   0.0000       1.012886        27.5620 
 340   0.0000       1.016111        27.6498 
 341   0.0000       1.021464        27.7955 
 342   0.0000       1.022653        27.8278 
 343   0.0000       1.027170        27.9507 
 344   0.0000       1.033154        28.1136 
 345   0.0000       1.035036        28.1648 
 346   0.0000       1.037251        28.2250 
 347   0.0000       1.039671        28.2909 
 348   0.0000       1.044961        28.4348 
 349   0.0000       1.048917        28.5425 
 350   0.0000       1.052769        28.6473 
 351   0.0000       1.059508        28.8307 
 352   0.0000       1.062362        28.9083 
 353   0.0000       1.063864        28.9492 
 354   0.0000       1.066952        29.0332 
 355   0.0000       1.073138        29.2016 
 356   0.0000       1.075931        29.2776 
 357   0.0000       1.081991        29.4425 
 358   0.0000       1.083278        29.4775 
 359   0.0000       1.085045        29.5256 
 360   0.0000       1.089322        29.6419 
 361   0.0000       1.091001        29.6877 
 362   0.0000       1.098449        29.8903 
 363   0.0000       1.102419        29.9983 
 364   0.0000       1.105035        30.0695 
 365   0.0000       1.107626        30.1400 
 366   0.0000       1.113593        30.3024 
 367   0.0000       1.119719        30.4691 
 368   0.0000       1.124848        30.6087 
 369   0.0000       1.128558        30.7096 
 370   0.0000       1.129035        30.7226 
 371   0.0000       1.138411        30.9777 
 372   0.0000       1.141772        31.0692 
 373   0.0000       1.146865        31.2078 
 374   0.0000       1.147838        31.2343 
 375   0.0000       1.152883        31.3716 
 376   0.0000       1.157233        31.4899 
 377   0.0000       1.163971        31.6733 
 378   0.0000       1.168836        31.8057 
 379   0.0000       1.171035        31.8655 
 380   0.0000       1.177354        32.0374 
 381   0.0000       1.180311        32.1179 
 382   0.0000       1.186906        32.2974 
 383   0.0000       1.190051        32.3829 
 384   0.0000       1.200471        32.6665 
 385   0.0000       1.200543        32.6684 
 386   0.0000       1.204140        32.7663 
 387   0.0000       1.208844        32.8943 
 388   0.0000       1.211630        32.9701 
 389   0.0000       1.217554        33.1313 
 390   0.0000       1.218973        33.1700 
 391   0.0000       1.224400        33.3176 
 392   0.0000       1.228764        33.4364 
 393   0.0000       1.234621        33.5958 
 394   0.0000       1.243576        33.8394 
 395   0.0000       1.252376        34.0789 
 396   0.0000       1.256710        34.1968 
 397   0.0000       1.258977        34.2585 
 398   0.0000       1.260717        34.3058 
 399   0.0000       1.264298        34.4033 
 400   0.0000       1.273718        34.6596 
 401   0.0000       1.280935        34.8560 
 402   0.0000       1.281542        34.8725 
 403   0.0000       1.287197        35.0264 
 404   0.0000       1.292912        35.1819 
 405   0.0000       1.296095        35.2685 
 406   0.0000       1.301468        35.4147 
 407   0.0000       1.303935        35.4819 
 408   0.0000       1.306946        35.5638 
 409   0.0000       1.312888        35.7255 
 410   0.0000       1.316579        35.8259 
 411   0.0000       1.324101        36.0306 
 412   0.0000       1.327397        36.1203 
 413   0.0000       1.333428        36.2844 
 414   0.0000       1.344213        36.5779 
 415   0.0000       1.350833        36.7580 
 416   0.0000       1.356119        36.9019 
 417   0.0000       1.361324        37.0435 
 418   0.0000       1.362745        37.0822 
 419   0.0000       1.365931        37.1689 
 420   0.0000       1.373607        37.3778 
 421   0.0000       1.376843        37.4658 
 422   0.0000       1.379300        37.5327 
 423   0.0000       1.388569        37.7849 
 424   0.0000       1.397606        38.0308 
 425   0.0000       1.402655        38.1682 
 426   0.0000       1.405924        38.2571 
 427   0.0000       1.412835        38.4452 
 428   0.0000       1.418040        38.5868 
 429   0.0000       1.423122        38.7251 
 430   0.0000       1.430953        38.9382 
 431   0.0000       1.431248        38.9462 
 432   0.0000       1.440267        39.1917 
 433   0.0000       1.442876        39.2627 
 434   0.0000       1.449436        39.4412 
 435   0.0000       1.453451        39.5504 
 436   0.0000       1.457345        39.6564 
 437   0.0000       1.462141        39.7869 
 438   0.0000       1.462936        39.8085 
 439   0.0000       1.476965        40.1903 
 440   0.0000       1.477425        40.2028 
 441   0.0000       1.481061        40.3017 
 442   0.0000       1.485035        40.4098 
 443   0.0000       1.493050        40.6280 
 444   0.0000       1.500101        40.8198 
 445   0.0000       1.502412        40.8827 
 446   0.0000       1.506893        41.0046 
 447   0.0000       1.510702        41.1083 
 448   0.0000       1.513300        41.1790 
 449   0.0000       1.526706        41.5438 
 450   0.0000       1.530666        41.6515 
 451   0.0000       1.537063        41.8256 
 452   0.0000       1.541489        41.9460 
 453   0.0000       1.545697        42.0605 
 454   0.0000       1.555164        42.3182 
 455   0.0000       1.558818        42.4176 
 456   0.0000       1.562535        42.5188 
 457   0.0000       1.564359        42.5684 
 458   0.0000       1.566842        42.6359 
 459   0.0000       1.570738        42.7420 
 460   0.0000       1.575530        42.8724 
 461   0.0000       1.584060        43.1045 
 462   0.0000       1.589619        43.2557 
 463   0.0000       1.593894        43.3721 
 464   0.0000       1.602530        43.6071 
 465   0.0000       1.604823        43.6695 
 466   0.0000       1.611436        43.8494 
 467   0.0000       1.619433        44.0670 
 468   0.0000       1.621590        44.1257 
 469   0.0000       1.628185        44.3052 
 470   0.0000       1.634472        44.4762 
 471   0.0000       1.638401        44.5832 
 472   0.0000       1.644713        44.7549 
 473   0.0000       1.652962        44.9794 
 474   0.0000       1.658900        45.1410 
 475   0.0000       1.664586        45.2957 
 476   0.0000       1.668559        45.4038 
 477   0.0000       1.673269        45.5320 
 478   0.0000       1.676575        45.6219 
 479   0.0000       1.683015        45.7972 
 480   0.0000       1.686823        45.9008 
 481   0.0000       1.690563        46.0026 
 482   0.0000       1.693306        46.0772 
 483   0.0000       1.696132        46.1541 
 484   0.0000       1.705537        46.4100 
 485   0.0000       1.712256        46.5928 
 486   0.0000       1.716039        46.6958 
 487   0.0000       1.722626        46.8750 
 488   0.0000       1.723807        46.9072 
 489   0.0000       1.731899        47.1274 
 490   0.0000       1.743808        47.4514 
 491   0.0000       1.747472        47.5511 
 492   0.0000       1.748622        47.5824 
 493   0.0000       1.751206        47.6527 
 494   0.0000       1.757608        47.8269 
 495   0.0000       1.761405        47.9303 
 496   0.0000       1.773270        48.2531 
 497   0.0000       1.782155        48.4949 
 498   0.0000       1.784517        48.5592 
 499   0.0000       1.791462        48.7482 
 500   0.0000       1.793565        48.8054 
 501   0.0000       1.800661        48.9985 
 502   0.0000       1.808577        49.2139 
 503   0.0000       1.810548        49.2675 
 504   0.0000       1.812331        49.3160 
 505   0.0000       1.819194        49.5028 
 506   0.0000       1.827235        49.7216 
 507   0.0000       1.829448        49.7818 
 508   0.0000       1.835193        49.9381 
 509   0.0000       1.842691        50.1422 
 510   0.0000       1.849541        50.3286 
 511   0.0000       1.851209        50.3740 
 512   0.0000       1.856342        50.5136 
 513   0.0000       1.864545        50.7369 
 514   0.0000       1.867600        50.8200 
 515   0.0000       1.873699        50.9859 
 516   0.0000       1.877416        51.0871 
 517   0.0000       1.883433        51.2508 
 518   0.0000       1.884744        51.2865 
 519   0.0000       1.897120        51.6233 
 520   0.0000       1.897963        51.6462 
 521   0.0000       1.905410        51.8488 
 522   0.0000       1.909608        51.9631 
 523   0.0000       1.911498        52.0145 
 524   0.0000       1.915049        52.1111 
 525   0.0000       1.925308        52.3903 
 526   0.0000       1.929129        52.4943 
 527   0.0000       1.934127        52.6303 
 528   0.0000       1.939238        52.7693 
 529   0.0000       1.948195        53.0131 
 530   0.0000       1.950123        53.0656 
 531   0.0000       1.955945        53.2240 
 532   0.0000       1.960965        53.3606 
 533   0.0000       1.969573        53.5948 
 534   0.0000       1.973688        53.7068 
 535   0.0000       1.975778        53.7636 
 536   0.0000       1.983888        53.9843 
 537   0.0000       1.991612        54.1945 
 538   0.0000       1.998254        54.3752 
 539   0.0000       2.004572        54.5472 
 540   0.0000       2.013888        54.8007 
 541   0.0000       2.015838        54.8537 
 542   0.0000       2.026928        55.1555 
 543   0.0000       2.038658        55.4747 
 544   0.0000       2.044249        55.6268 
 545   0.0000       2.045812        55.6694 
 546   0.0000       2.049890        55.7803 
 547   0.0000       2.053431        55.8767 
 548   0.0000       2.060434        56.0672 
 549   0.0000       2.070544        56.3424 
 550   0.0000       2.078092        56.5478 
 551   0.0000       2.084029        56.7093 
 552   0.0000       2.088706        56.8366 
 553   0.0000       2.096686        57.0537 
 554   0.0000       2.104657        57.2706 
 555   0.0000       2.115952        57.5780 
 556   0.0000       2.117172        57.6112 
 557   0.0000       2.127348        57.8881 
 558   0.0000       2.133066        58.0437 
 559   0.0000       2.140102        58.2351 
 560   0.0000       2.145097        58.3710 
 561   0.0000       2.151333        58.5408 
 562   0.0000       2.154650        58.6310 
 563   0.0000       2.160241        58.7831 
 564   0.0000       2.175614        59.2015 
 565   0.0000       2.181668        59.3662 
 566   0.0000       2.187088        59.5137 
 567   0.0000       2.198441        59.8226 
 568   0.0000       2.201299        59.9004 
 569   0.0000       2.210062        60.1389 
 570   0.0000       2.219618        60.3989 
 571   0.0000       2.221105        60.4394 
 572   0.0000       2.225785        60.5667 
 573   0.0000       2.228332        60.6360 
 574   0.0000       2.236645        60.8622 
 575   0.0000       2.254357        61.3442 
 576   0.0000       2.258363        61.4532 
 577   0.0000       2.261481        61.5380 
 578   0.0000       2.267290        61.6961 
 579   0.0000       2.274213        61.8845 
 580   0.0000       2.284080        62.1530 
 581   0.0000       2.294440        62.4349 
 582   0.0000       2.298663        62.5498 
 583   0.0000       2.300695        62.6051 
 584   0.0000       2.311780        62.9067 
 585   0.0000       2.314598        62.9834 
 586   0.0000       2.321064        63.1594 
 587   0.0000       2.330308        63.4109 
 588   0.0000       2.343146        63.7602 
 589   0.0000       2.354017        64.0560 
 590   0.0000       2.360163        64.2233 
 591   0.0000       2.367154        64.4135 
 592   0.0000       2.373472        64.5855 
 593   0.0000       2.383692        64.8636 
 594   0.0000       2.392754        65.1101 
 595   0.0000       2.394905        65.1687 
 596   0.0000       2.402512        65.3757 
 597   0.0000       2.412048        65.6352 
 598   0.0000       2.423854        65.9564 
 599   0.0000       2.435509        66.2736 
 600   0.0000       2.441693        66.4418 
 601   0.0000       2.451010        66.6954 
 602   0.0000       2.458602        66.9019 
 603   0.0000       2.475402        67.3591 
 604   0.0000       2.481378        67.5217 
 605   0.0000       2.492258        67.8178 
 606   0.0000       2.499328        68.0102 
 607   0.0000       2.510015        68.3010 
 608   0.0000       2.526328        68.7449 
 609   0.0000       2.534373        68.9638 
 610   0.0000       2.546776        69.3013 
 611   0.0000       2.558479        69.6197 
 612   0.0000       2.570785        69.9546 
 613   0.0000       2.585346        70.3508 
 614   0.0000       2.601999        70.8040 
 615   0.0000       2.617616        71.2290 
 616   0.0000       2.621627        71.3381 
 617   0.0000       2.635385        71.7125 
 618   0.0000       2.639488        71.8241 
 619   0.0000       2.654719        72.2386 
 620   0.0000       2.657493        72.3140 
 621   0.0000       2.663575        72.4796 
 622   0.0000       2.667295        72.5808 
 623   0.0000       2.679146        72.9033 
 624   0.0000       2.686944        73.1155 
 625   0.0000       2.700729        73.4906 
 626   0.0000       2.706664        73.6521 
 627   0.0000       2.709257        73.7226 
 628   0.0000       2.711273        73.7775 
 629   0.0000       2.726958        74.2043 
 630   0.0000       2.735267        74.4304 
 631   0.0000       2.738632        74.5220 
 632   0.0000       2.740520        74.5734 
 633   0.0000       2.755224        74.9735 
 634   0.0000       2.767353        75.3035 
 635   0.0000       2.770402        75.3865 
 636   0.0000       2.784453        75.7688 
 637   0.0000       2.806398        76.3660 
 638   0.0000       2.819308        76.7173 
 639   0.0000       2.824407        76.8560 
 640   0.0000       2.835816        77.1665 
 641   0.0000       2.867045        78.0163 
 642   0.0000       2.873387        78.1888 
 643   0.0000       2.881150        78.4001 
 644   0.0000       2.892133        78.6989 
 645   0.0000       2.911060        79.2140 
 646   0.0000       2.917119        79.3788 
 647   0.0000       2.927436        79.6596 
 648   0.0000       2.932822        79.8061 
 649   0.0000       2.943644        80.1006 
 650   0.0000       2.960000        80.5457 
 651   0.0000       2.965327        80.6906 
 652   0.0000       2.986809        81.2752 
 653   0.0000       3.011215        81.9393 
 654   0.0000       3.026422        82.3531 
 655   0.0000       3.039161        82.6998 
 656   0.0000       3.058496        83.2259 
 657   0.0000       3.072996        83.6205 
 658   0.0000       3.078143        83.7605 
 659   0.0000       3.091780        84.1316 
 660   0.0000       3.120074        84.9015 
 661   0.0000       3.123953        85.0071 
 662   0.0000       3.145051        85.5812 
 663   0.0000       3.145295        85.5878 
 664   0.0000       3.160954        86.0139 
 665   0.0000       3.175204        86.4017 
 666   0.0000       3.183439        86.6258 
 667   0.0000       3.204101        87.1880 
 668   0.0000       3.208158        87.2984 
 669   0.0000       3.219503        87.6071 
 670   0.0000       3.235138        88.0326 
 671   0.0000       3.238175        88.1152 
 672   0.0000       3.244437        88.2856 
 673   0.0000       3.252113        88.4945 
 674   0.0000       3.257581        88.6433 
 675   0.0000       3.266341        88.8817 
 676   0.0000       3.284293        89.3702 
 677   0.0000       3.295287        89.6693 
 678   0.0000       3.300306        89.8059 
 679   0.0000       3.303175        89.8840 
 680   0.0000       3.315836        90.2285 
 681   0.0000       3.327720        90.5519 
 682   0.0000       3.333393        90.7062 
 683   0.0000       3.340521        90.9002 
 684   0.0000       3.350997        91.1853 
 685   0.0000       3.360439        91.4422 
 686   0.0000       3.364318        91.5478 
 687   0.0000       3.378414        91.9313 
 688   0.0000       3.383946        92.0818 
 689   0.0000       3.404749        92.6479 
 690   0.0000       3.412991        92.8722 
 691   0.0000       3.419607        93.0522 
 692   0.0000       3.424877        93.1956 
 693   0.0000       3.429803        93.3297 
 694   0.0000       3.454068        93.9900 
 695   0.0000       3.464673        94.2786 
 696   0.0000       3.475066        94.5614 
 697   0.0000       3.477591        94.6301 
 698   0.0000       3.482398        94.7609 
 699   0.0000       3.484708        94.8237 
 700   0.0000       3.495972        95.1302 
 701   0.0000       3.500720        95.2594 
 702   0.0000       3.511419        95.5506 
 703   0.0000       3.516349        95.6847 
 704   0.0000       3.524123        95.8963 
 705   0.0000       3.529417        96.0403 
 706   0.0000       3.544172        96.4418 
 707   0.0000       3.546184        96.4966 
 708   0.0000       3.552122        96.6582 
 709   0.0000       3.565381        97.0189 
 710   0.0000       3.570885        97.1687 
 711   0.0000       3.581943        97.4696 
 712   0.0000       3.586926        97.6052 
 713   0.0000       3.600105        97.9638 
 714   0.0000       3.608156        98.1829 
 715   0.0000       3.613891        98.3390 
 716   0.0000       3.627044        98.6969 
 717   0.0000       3.639899        99.0467 
 718   0.0000       3.649759        99.3150 
 719   0.0000       3.659203        99.5720 
 720   0.0000       3.665403        99.7407 
 721   0.0000       3.672106        99.9231 
 722   0.0000       3.683681       100.2381 
 723   0.0000       3.693119       100.4949 
 724   0.0000       3.705683       100.8367 
 725   0.0000       3.710015       100.9546 
 726   0.0000       3.719498       101.2127 
 727   0.0000       3.721096       101.2562 
 728   0.0000       3.727453       101.4291 
 729   0.0000       3.735933       101.6599 
 730   0.0000       3.741446       101.8099 
 731   0.0000       3.752972       102.1236 
 732   0.0000       3.760240       102.3213 
 733   0.0000       3.769863       102.5832 
 734   0.0000       3.774753       102.7163 
 735   0.0000       3.776870       102.7739 
 736   0.0000       3.786306       103.0306 
 737   0.0000       3.793953       103.2387 
 738   0.0000       3.800450       103.4155 
 739   0.0000       3.807980       103.6204 
 740   0.0000       3.813951       103.7829 
 741   0.0000       3.824813       104.0785 
 742   0.0000       3.828636       104.1825 
 743   0.0000       3.841686       104.5376 
 744   0.0000       3.844120       104.6038 
 745   0.0000       3.853383       104.8559 
 746   0.0000       3.859752       105.0292 
 747   0.0000       3.860857       105.0593 
 748   0.0000       3.871749       105.3556 
 749   0.0000       3.881714       105.6268 
 750   0.0000       3.884815       105.7112 
 751   0.0000       3.903248       106.2128 
 752   0.0000       3.906924       106.3128 
 753   0.0000       3.909583       106.3852 
 754   0.0000       3.921113       106.6989 
 755   0.0000       3.928606       106.9028 
 756   0.0000       3.938314       107.1670 
 757   0.0000       3.945053       107.3504 
 758   0.0000       3.949452       107.4701 
 759   0.0000       3.953640       107.5840 
 760   0.0000       3.963895       107.8631 
 761   0.0000       3.968324       107.9836 
 762   0.0000       3.983592       108.3991 
 763   0.0000       3.984271       108.4175 
 764   0.0000       3.994500       108.6959 
 765   0.0000       3.999804       108.8402 
 766   0.0000       4.006606       109.0253 
 767   0.0000       4.008612       109.0799 
 768   0.0000       4.009262       109.0976 
 769   0.0000       4.020175       109.3945 
 770   0.0000       4.033349       109.7530 
 771   0.0000       4.036773       109.8462 
 772   0.0000       4.048364       110.1616 
 773   0.0000       4.050843       110.2290 
 774   0.0000       4.069064       110.7249 
 775   0.0000       4.081314       111.0582 
 776   0.0000       4.084289       111.1391 
 777   0.0000       4.089806       111.2893 
 778   0.0000       4.094548       111.4183 
 779   0.0000       4.099577       111.5552 
 780   0.0000       4.109585       111.8275 
 781   0.0000       4.113612       111.9371 
 782   0.0000       4.118854       112.0797 
 783   0.0000       4.130853       112.4062 
 784   0.0000       4.134394       112.5026 
 785   0.0000       4.153418       113.0203 
 786   0.0000       4.156703       113.1096 
 787   0.0000       4.171718       113.5182 
 788   0.0000       4.179034       113.7173 
 789   0.0000       4.184371       113.8625 
 790   0.0000       4.188155       113.9655 
 791   0.0000       4.201378       114.3253 
 792   0.0000       4.209382       114.5431 
 793   0.0000       4.216805       114.7451 
 794   0.0000       4.227283       115.0302 
 795   0.0000       4.229612       115.0936 
 796   0.0000       4.240372       115.3864 
 797   0.0000       4.248420       115.6054 
 798   0.0000       4.267520       116.1251 
 799   0.0000       4.270479       116.2056 
 800   0.0000       4.273352       116.2838 
 801   0.0000       4.284945       116.5993 
 802   0.0000       4.300082       117.0112 
 803   0.0000       4.309234       117.2602 
 804   0.0000       4.313441       117.3747 
 805   0.0000       4.314027       117.3906 
 806   0.0000       4.318831       117.5214 
 807   0.0000       4.330156       117.8295 
 808   0.0000       4.336413       117.9998 
 809   0.0000       4.354081       118.4806 
 810   0.0000       4.361098       118.6715 
 811   0.0000       4.372806       118.9901 
 812   0.0000       4.380368       119.1959 
 813   0.0000       4.394598       119.5831 
 814   0.0000       4.405098       119.8688 
 815   0.0000       4.410037       120.0032 
 816   0.0000       4.430444       120.5585 
 817   0.0000       4.437451       120.7492 
 818   0.0000       4.449867       121.0870 
 819   0.0000       4.453763       121.1931 
 820   0.0000       4.456264       121.2611 
 821   0.0000       4.473153       121.7207 
 822   0.0000       4.474513       121.7577 
 823   0.0000       4.487103       122.1003 
 824   0.0000       4.501717       122.4980 
 825   0.0000       4.517008       122.9140 
 826   0.0000       4.523696       123.0960 
 827   0.0000       4.527936       123.2114 
 828   0.0000       4.540544       123.5545 
 829   0.0000       4.551776       123.8601 
 830   0.0000       4.554291       123.9286 
 831   0.0000       4.566468       124.2599 
 832   0.0000       4.580217       124.6340 
 833   0.0000       4.594443       125.0211 
 834   0.0000       4.595154       125.0405 
 835   0.0000       4.606926       125.3608 
 836   0.0000       4.616858       125.6311 
 837   0.0000       4.635568       126.1402 
 838   0.0000       4.642711       126.3346 
 839   0.0000       4.646506       126.4379 
 840   0.0000       4.673126       127.1622 
 841   0.0000       4.686847       127.5356 
 842   0.0000       4.695611       127.7741 
 843   0.0000       4.705072       128.0315 
 844   0.0000       4.716824       128.3513 
 845   0.0000       4.725802       128.5956 
 846   0.0000       4.732663       128.7823 
 847   0.0000       4.740089       128.9844 
 848   0.0000       4.754352       129.3725 
 849   0.0000       4.771208       129.8312 
 850   0.0000       4.772536       129.8673 
 851   0.0000       4.782419       130.1362 
 852   0.0000       4.796047       130.5071 
 853   0.0000       4.805753       130.7712 
 854   0.0000       4.810231       130.8930 
 855   0.0000       4.827271       131.3567 
 856   0.0000       4.837763       131.6422 
 857   0.0000       4.843282       131.7924 
 858   0.0000       4.862165       132.3062 
 859   0.0000       4.876669       132.7009 
 860   0.0000       4.885880       132.9515 
 861   0.0000       4.887808       133.0040 
 862   0.0000       4.908538       133.5681 
 863   0.0000       4.918191       133.8308 
 864   0.0000       4.945083       134.5625 
 865   0.0000       4.956306       134.8679 
 866   0.0000       4.962114       135.0260 
 867   0.0000       4.970207       135.2462 
 868   0.0000       4.975272       135.3840 
 869   0.0000       4.983278       135.6019 
 870   0.0000       4.989587       135.7736 
 871   0.0000       5.011230       136.3625 
 872   0.0000       5.024111       136.7130 
 873   0.0000       5.036410       137.0477 
 874   0.0000       5.044916       137.2791 
 875   0.0000       5.047336       137.3450 
 876   0.0000       5.063453       137.7836 
 877   0.0000       5.073396       138.0541 
 878   0.0000       5.095718       138.6615 
 879   0.0000       5.104234       138.8933 
 880   0.0000       5.108276       139.0032 
 881   0.0000       5.114588       139.1750 
 882   0.0000       5.129515       139.5812 
 883   0.0000       5.148244       140.0908 
 884   0.0000       5.154686       140.2661 
 885   0.0000       5.171490       140.7234 
 886   0.0000       5.179282       140.9354 
 887   0.0000       5.195007       141.3633 
 888   0.0000       5.199365       141.4819 
 889   0.0000       5.215157       141.9116 
 890   0.0000       5.235293       142.4596 
 891   0.0000       5.249981       142.8592 
 892   0.0000       5.253615       142.9581 
 893   0.0000       5.260488       143.1452 
 894   0.0000       5.271015       143.4316 
 895   0.0000       5.288022       143.8944 
 896   0.0000       5.293633       144.0471 
 897   0.0000       5.332154       145.0953 
 898   0.0000       5.338785       145.2757 
 899   0.0000       5.358950       145.8244 
 900   0.0000       5.363118       145.9379 
 901   0.0000       5.375817       146.2834 
 902   0.0000       5.389894       146.6665 
 903   0.0000       5.395993       146.8324 
 904   0.0000       5.398946       146.9128 
 905   0.0000       5.411324       147.2496 
 906   0.0000       5.426416       147.6603 
 907   0.0000       5.444006       148.1389 
 908   0.0000       5.448650       148.2653 
 909   0.0000       5.464134       148.6866 
 910   0.0000       5.480348       149.1279 
 911   0.0000       5.485062       149.2561 
 912   0.0000       5.498470       149.6210 
 913   0.0000       5.527741       150.4175 
 914   0.0000       5.536003       150.6423 
 915   0.0000       5.541330       150.7872 
 916   0.0000       5.552586       151.0936 
 917   0.0000       5.569376       151.5504 
 918   0.0000       5.586190       152.0080 
 919   0.0000       5.591927       152.1641 
 920   0.0000       5.598075       152.3314 
 921   0.0000       5.611876       152.7069 
 922   0.0000       5.633756       153.3023 
 923   0.0000       5.642285       153.5344 
 924   0.0000       5.650448       153.7565 
 925   0.0000       5.655640       153.8978 
 926   0.0000       5.668958       154.2602 
 927   0.0000       5.673510       154.3841 
 928   0.0000       5.684214       154.6753 
 929   0.0000       5.698779       155.0717 
 930   0.0000       5.708654       155.3404 
 931   0.0000       5.729289       155.9019 
 932   0.0000       5.733123       156.0062 
 933   0.0000       5.738112       156.1420 
 934   0.0000       5.750547       156.4803 
 935   0.0000       5.774006       157.1187 
 936   0.0000       5.788147       157.5035 
 937   0.0000       5.792520       157.6225 
 938   0.0000       5.811761       158.1461 
 939   0.0000       5.829493       158.6286 
 940   0.0000       5.848981       159.1589 
 941   0.0000       5.875238       159.8734 
 942   0.0000       5.884210       160.1175 
 943   0.0000       5.895430       160.4228 
 944   0.0000       5.931000       161.3907 
 945   0.0000       5.964062       162.2904 
 946   0.0000       6.042047       164.4124 
 947   0.0000       6.056485       164.8053 
 948   0.0000       6.081621       165.4893 
 949   0.0000       6.123362       166.6251 
 950   0.0000       6.140876       167.1017 
 951   0.0000       6.148360       167.3054 
 952   0.0000       6.184877       168.2991 
 953   0.0000       6.194794       168.5689 
 954   0.0000       6.213506       169.0781 
 955   0.0000       6.229555       169.5148 
 956   0.0000       6.245261       169.9422 
 957   0.0000       6.252551       170.1406 
 958   0.0000       6.260496       170.3567 
 959   0.0000       6.297192       171.3553 
 960   0.0000       6.305017       171.5682 
 961   0.0000       6.313964       171.8117 
 962   0.0000       6.327858       172.1898 
 963   0.0000       6.350146       172.7963 
 964   0.0000       6.352705       172.8659 
 965   0.0000       6.367422       173.2664 
 966   0.0000       6.390667       173.8989 
 967   0.0000       6.411765       174.4730 
 968   0.0000       6.476475       176.2338 
 969   0.0000       6.504862       177.0063 
 970   0.0000       6.549076       178.2094 
 971   0.0000       6.651737       181.0030 
 972   0.0000       6.815653       185.4634 
 973   0.0000       6.849661       186.3888 
 974   0.0000       6.874102       187.0538 
 975   0.0000       6.896560       187.6649 
 976   0.0000       6.921446       188.3421 
 977   0.0000       6.933145       188.6605 
 978   0.0000       6.958549       189.3517 
 979   0.0000       6.979760       189.9289 
 980   0.0000       7.002815       190.5563 
 981   0.0000       7.023979       191.1322 
 982   0.0000       7.030805       191.3179 
 983   0.0000       7.056364       192.0134 
 984   0.0000       7.104787       193.3311 
 985   0.0000       7.146590       194.4686 
 986   0.0000       7.271885       197.8781 
 987   0.0000       7.332323       199.5226 
 988   0.0000       7.359585       200.2645 
 989   0.0000       7.449677       202.7160 
 990   0.0000       7.539198       205.1520 
 991   0.0000       7.583810       206.3660 
 992   0.0000       7.628480       207.5815 
 993   0.0000       7.711927       209.8522 
 994   0.0000       7.756998       211.0787 
 995   0.0000       7.894161       214.8111 
 996   0.0000       7.963590       216.7003 
 997   0.0000       8.087421       220.0699 
 998   0.0000       8.280059       225.3118 
 999   0.0000       9.425725       256.4870 
 1000   0.0000       9.436143       256.7705 
 1001   0.0000       9.443581       256.9729 
 1002   0.0000       9.460064       257.4214 
 1003   0.0000       9.466613       257.5996 
 1004   0.0000       9.493626       258.3347 
 1005   0.0000       9.696727       263.8614 
 1006   0.0000      10.095806       274.7208 
 1007   0.0000      10.103121       274.9199 
 1008   0.0000      10.126860       275.5659 
 1009   0.0000      10.213420       277.9213 
 1010   0.0000      10.217814       278.0409 
 1011   0.0000      10.252263       278.9783 
 1012   0.0000      10.370139       282.1858 
 1013   0.0000      10.401082       283.0278 
 1014   0.0000      10.508665       285.9553 
 1015   0.0000      14.749181       401.3456 
 1016   0.0000      17.178641       467.4546 
 1017   0.0000      18.099208       492.5045 
 1018   0.0000      18.378749       500.1112 
 1019   0.0000      18.548980       504.7434 
 1020   0.0000      18.879067       513.7255 
 1021   0.0000      19.016209       517.4574 
 1022   0.0000      19.925067       542.1886 
 1023   0.0000      20.632801       561.4471 
 1024   0.0000      21.768304       592.3457 

                 SPIN DOWN ORBITALS
  NO   OCC          E(Eh)            E(eV) 
   0   1.0000    -261.557495     -7117.3413 
   1   1.0000    -104.780421     -2851.2202 
   2   1.0000    -104.778177     -2851.1592 
   3   1.0000    -104.776915     -2851.1248 
   4   1.0000     -32.066809      -872.5822 
   5   1.0000     -27.544760      -749.5310 
   6   1.0000     -27.544695      -749.5293 
   7   1.0000     -27.544445      -749.5224 
   8   1.0000     -20.584239      -560.1256 
   9   1.0000     -11.406375      -310.3832 
  10   1.0000     -11.317818      -307.9735 
  11   1.0000     -11.271723      -306.7192 
  12   1.0000     -11.266692      -306.5823 
  13   1.0000     -11.265809      -306.5582 
  14   1.0000     -11.261917      -306.4523 
  15   1.0000     -11.253431      -306.2214 
  16   1.0000     -11.243339      -305.9468 
  17   1.0000     -10.506987      -285.9096 
  18   1.0000     -10.504713      -285.8478 
  19   1.0000     -10.503415      -285.8125 
  20   1.0000      -7.972891      -216.9534 
  21   1.0000      -7.972212      -216.9349 
  22   1.0000      -7.972157      -216.9334 
  23   1.0000      -7.970609      -216.8913 
  24   1.0000      -7.969962      -216.8737 
  25   1.0000      -7.969864      -216.8710 
  26   1.0000      -7.969394      -216.8582 
  27   1.0000      -7.968599      -216.8366 
  28   1.0000      -7.968504      -216.8340 
  29   1.0000      -4.141744      -112.7026 
  30   1.0000      -2.663391       -72.4745 
  31   1.0000      -2.663309       -72.4723 
  32   1.0000      -2.662821       -72.4590 
  33   1.0000      -1.419663       -38.6310 
  34   1.0000      -1.157648       -31.5012 
  35   1.0000      -1.084362       -29.5070 
  36   1.0000      -1.039633       -28.2899 
  37   1.0000      -1.035551       -28.1788 
  38   1.0000      -1.026707       -27.9381 
  39   1.0000      -1.024757       -27.8851 
  40   1.0000      -0.994955       -27.0741 
  41   1.0000      -0.987435       -26.8695 
  42   1.0000      -0.913577       -24.8597 
  43   1.0000      -0.813471       -22.1357 
  44   1.0000      -0.754895       -20.5417 
  45   1.0000      -0.695770       -18.9329 
  46   1.0000      -0.683170       -18.5900 
  47   1.0000      -0.680426       -18.5153 
  48   1.0000      -0.676531       -18.4094 
  49   1.0000      -0.644284       -17.5319 
  50   1.0000      -0.622939       -16.9510 
  51   1.0000      -0.604563       -16.4510 
  52   1.0000      -0.595984       -16.2175 
  53   1.0000      -0.581978       -15.8364 
  54   1.0000      -0.579235       -15.7618 
  55   1.0000      -0.569285       -15.4910 
  56   1.0000      -0.561884       -15.2896 
  57   1.0000      -0.560491       -15.2517 
  58   1.0000      -0.543040       -14.7769 
  59   1.0000      -0.534822       -14.5533 
  60   1.0000      -0.518193       -14.1007 
  61   1.0000      -0.510559       -13.8930 
  62   1.0000      -0.485451       -13.2098 
  63   1.0000      -0.472598       -12.8600 
  64   1.0000      -0.471146       -12.8205 
  65   1.0000      -0.443166       -12.0592 
  66   1.0000      -0.439937       -11.9713 
  67   1.0000      -0.437741       -11.9115 
  68   1.0000      -0.423364       -11.5203 
  69   1.0000      -0.417979       -11.3738 
  70   1.0000      -0.402979       -10.9656 
  71   1.0000      -0.376833       -10.2541 
  72   0.0000       0.009317         0.2535 
  73   0.0000       0.020712         0.5636 
  74   0.0000       0.021533         0.5860 
  75   0.0000       0.027252         0.7416 
  76   0.0000       0.034227         0.9314 
  77   0.0000       0.039513         1.0752 
  78   0.0000       0.040934         1.1139 
  79   0.0000       0.042671         1.1611 
  80   0.0000       0.044603         1.2137 
  81   0.0000       0.045952         1.2504 
  82   0.0000       0.056715         1.5433 
  83   0.0000       0.057303         1.5593 
  84   0.0000       0.060288         1.6405 
  85   0.0000       0.063966         1.7406 
  86   0.0000       0.065636         1.7861 
  87   0.0000       0.073279         1.9940 
  88   0.0000       0.075626         2.0579 
  89   0.0000       0.082852         2.2545 
  90   0.0000       0.087197         2.3727 
  91   0.0000       0.089731         2.4417 
  92   0.0000       0.092920         2.5285 
  93   0.0000       0.096790         2.6338 
  94   0.0000       0.098727         2.6865 
  95   0.0000       0.103985         2.8296 
  96   0.0000       0.105073         2.8592 
  97   0.0000       0.114348         3.1116 
  98   0.0000       0.115037         3.1303 
  99   0.0000       0.117341         3.1930 
 100   0.0000       0.117823         3.2061 
 101   0.0000       0.120867         3.2890 
 102   0.0000       0.122362         3.3296 
 103   0.0000       0.123905         3.3716 
 104   0.0000       0.125669         3.4196 
 105   0.0000       0.126103         3.4314 
 106   0.0000       0.128097         3.4857 
 107   0.0000       0.132326         3.6008 
 108   0.0000       0.134469         3.6591 
 109   0.0000       0.136712         3.7201 
 110   0.0000       0.141241         3.8434 
 111   0.0000       0.144102         3.9212 
 112   0.0000       0.145944         3.9713 
 113   0.0000       0.149378         4.0648 
 114   0.0000       0.151404         4.1199 
 115   0.0000       0.154418         4.2019 
 116   0.0000       0.158509         4.3133 
 117   0.0000       0.161115         4.3842 
 118   0.0000       0.161170         4.3857 
 119   0.0000       0.164826         4.4852 
 120   0.0000       0.165915         4.5148 
 121   0.0000       0.169774         4.6198 
 122   0.0000       0.174375         4.7450 
 123   0.0000       0.177493         4.8298 
 124   0.0000       0.180594         4.9142 
 125   0.0000       0.183084         4.9820 
 126   0.0000       0.188489         5.1291 
 127   0.0000       0.191354         5.2070 
 128   0.0000       0.192551         5.2396 
 129   0.0000       0.198460         5.4004 
 130   0.0000       0.201150         5.4736 
 131   0.0000       0.205791         5.5999 
 132   0.0000       0.208726         5.6797 
 133   0.0000       0.215144         5.8544 
 134   0.0000       0.217048         5.9062 
 135   0.0000       0.219311         5.9678 
 136   0.0000       0.223429         6.0798 
 137   0.0000       0.225123         6.1259 
 138   0.0000       0.227873         6.2007 
 139   0.0000       0.229789         6.2529 
 140   0.0000       0.232678         6.3315 
 141   0.0000       0.238357         6.4860 
 142   0.0000       0.241238         6.5644 
 143   0.0000       0.246715         6.7134 
 144   0.0000       0.250196         6.8082 
 145   0.0000       0.256377         6.9764 
 146   0.0000       0.258556         7.0357 
 147   0.0000       0.261769         7.1231 
 148   0.0000       0.262733         7.1493 
 149   0.0000       0.266549         7.2532 
 150   0.0000       0.271410         7.3855 
 151   0.0000       0.278916         7.5897 
 152   0.0000       0.281978         7.6730 
 153   0.0000       0.288564         7.8522 
 154   0.0000       0.290744         7.9116 
 155   0.0000       0.295562         8.0427 
 156   0.0000       0.296455         8.0670 
 157   0.0000       0.300556         8.1786 
 158   0.0000       0.303414         8.2563 
 159   0.0000       0.306663         8.3447 
 160   0.0000       0.311923         8.4879 
 161   0.0000       0.315367         8.5816 
 162   0.0000       0.320039         8.7087 
 163   0.0000       0.324185         8.8215 
 164   0.0000       0.326345         8.8803 
 165   0.0000       0.331503         9.0207 
 166   0.0000       0.335169         9.1204 
 167   0.0000       0.337920         9.1953 
 168   0.0000       0.340490         9.2652 
 169   0.0000       0.344249         9.3675 
 170   0.0000       0.347008         9.4426 
 171   0.0000       0.351922         9.5763 
 172   0.0000       0.354367         9.6428 
 173   0.0000       0.356412         9.6985 
 174   0.0000       0.361200         9.8287 
 175   0.0000       0.362272         9.8579 
 176   0.0000       0.370337        10.0774 
 177   0.0000       0.371876        10.1193 
 178   0.0000       0.372983        10.1494 
 179   0.0000       0.377824        10.2811 
 180   0.0000       0.380770        10.3613 
 181   0.0000       0.386446        10.5157 
 182   0.0000       0.388221        10.5640 
 183   0.0000       0.390821        10.6348 
 184   0.0000       0.393525        10.7084 
 185   0.0000       0.401469        10.9245 
 186   0.0000       0.403274        10.9736 
 187   0.0000       0.404125        10.9968 
 188   0.0000       0.406146        11.0518 
 189   0.0000       0.408877        11.1261 
 190   0.0000       0.414084        11.2678 
 191   0.0000       0.416354        11.3296 
 192   0.0000       0.419599        11.4179 
 193   0.0000       0.425466        11.5775 
 194   0.0000       0.430391        11.7115 
 195   0.0000       0.434109        11.8127 
 196   0.0000       0.434744        11.8300 
 197   0.0000       0.437721        11.9110 
 198   0.0000       0.444825        12.1043 
 199   0.0000       0.448490        12.2040 
 200   0.0000       0.452391        12.3102 
 201   0.0000       0.454297        12.3620 
 202   0.0000       0.456417        12.4197 
 203   0.0000       0.461441        12.5564 
 204   0.0000       0.463897        12.6233 
 205   0.0000       0.467637        12.7250 
 206   0.0000       0.470748        12.8097 
 207   0.0000       0.476783        12.9739 
 208   0.0000       0.477740        13.0000 
 209   0.0000       0.485357        13.2072 
[...]
  | sigma^2 in % of trace(Dij) retained ...   9.07e+00
  | sigma^2 in % of trace(Dip) retained ...   1.78e+01
  | sigma^2 in % of trace(Dpq) retained ...   1.36e-01
  | Av. % of trace(Di) retained         ...  99.998531150234
  | Av. % of trace(Dp) retained         ...  99.999999293654
  | sigma^2 in % of trace(Di) retained  ...   7.10e-07
  | sigma^2 in % of trace(Dp) retained  ...   5.88e-13
 Distributions of % trace(Dij) recovered:
  |       >= 99.9  ...   105 ( 21.3 % of all IJ-pairs)
  |   [80.0, 90.0) ...    30 (  6.1 % of all IJ-pairs)
  |   [90.0, 99.0) ...   263 ( 53.3 % of all IJ-pairs)
  |   [99.0, 99.9) ...    95 ( 19.3 % of all IJ-pairs)
 Distributions of % trace(Dip) recovered:
  |   [80.0, 90.0) ...    16 ( 13.7 % of all IP-pairs)
  |   [90.0, 99.0) ...    58 ( 49.6 % of all IP-pairs)
  |   [99.0, 99.9) ...    43 ( 36.8 % of all IP-pairs)
 Distributions of % trace(Dpq) recovered:
  |       >= 99.9  ...     5 ( 33.3 % of all PQ-pairs)
  |   [99.0, 99.9) ...    10 ( 66.7 % of all PQ-pairs)
 Distributions of % trace(Di) recovered :
  |       >= 99.9  ...    43 (100.0 % of all I-pairs )
 Distributions of % trace(Dp) recovered :
  |       >= 99.9  ...     5 (100.0 % of all P-pairs )

                       ===========================
                       1085 OF 1646 PAIRS ARE KEPT
                       ===========================

 Initial PAO correlation energy (all pairs)    ...  -2.6951764685 Eh
 Energy constituents in PAO basis (Eh):
  | Vijab(+0) ...  -2.2672957658
  | Viab (-1) ...  -0.1745249938
  | Vab  (-2) ...  -0.0573520819
  | Va   (-1) ...  -0.0000462931
  | Vija (+1) ...  -0.0718659419
  | Vij  (+2) ...  -0.0155214771
  | Via  (+0) ...  -0.1084078924
  | Vi   (+1) ...  -0.0001620225
 Initial PNO correlation energy                ...  -2.6614941348 Eh
 Energy constituents in PNO basis (Eh):
  | Vijab(+0) ...  -2.2492624816 (err=  0.0180332842)
  | Viab (-1) ...  -0.1604520061 (err=  0.0140729878)
  | Vab  (-2) ...  -0.0568982717 (err=  0.0004538102)
  | Va   (-1) ...  -0.0000262165 (err=  0.0000200765)
  | Vija (+1) ...  -0.0709102889 (err=  0.0009556530)
  | Vij  (+2) ...  -0.0154725768 (err=  0.0000489003)
  | Via  (+0) ...  -0.1083107707 (err=  0.0000971216)
  | Vi   (+1) ...  -0.0001615226 (err=  0.0000005000)
 Sum of total truncation errors ...   0.0336823337 Eh
  | Pair screening ...   0.0108159469 Eh
  | PNO truncation ...   0.0228663868 Eh

 UMP2 correlation energy (PAO) ...  -2.6902213253
  | alpha-alpha ...  -0.3868292124 (NP_aa=  886)
  | alpha-beta  ...  -1.9961559510 (NP_ab= 1621)
  | beta -beta  ...  -0.3072361619 (NP_bb=  702)
 UMP2 correlation energy (PNO) ...  -2.6561631387
  | alpha-alpha ...  -0.3749816181 (err=  0.0118475943, NP_aa=  577)
  | alpha-beta  ...  -1.9778295918 (err=  0.0183263591, NP_ab= 1060)
  | beta -beta  ...  -0.3033519288 (err=  0.0038842331, NP_bb=  450)
 Sum of total UMP2 truncation errors ...   0.0340581866 Eh
  | Pair screening ...   0.0108304244 Eh
  | PNO truncation ...   0.0232277622 Eh
 Timing for NEV-PNO construction (sec.)
  | Intermediate construction  ..           49.657
  | Amplitude construction     ..           64.707
  | Total time                 ..          114.364
 Making pair pair interaction lists ...      ok
 Total size for 2-ext PNO integrals ...     10.8 MB
Checking the number of SOMO/SOMO doubles PNOs ... 
 #Truncate: (72, 72)[157] -> [86] .. 
 #Truncate: (73, 73)[160] -> [86] .. 
 #Truncate: (74, 74)[160] -> [86] .. 
 #Truncate: (75, 75)[159] -> [86] .. 
 #Truncate: (76, 76)[159] -> [86] .. 

--------------------------------
LOCAL RI TRANSFORMATION (VABPAO)
--------------------------------

Number of PAOs:    1030
Basis functions:   1025 (343 shells)
Aux. functions:    2424 (644 shells)

Processing maps (0.0 sec)
Average map sizes:
   Aux shells -> PAOs           1030.0
   PAOs       -> AO shells       343.0

Calculating integrals (219.1 sec, 37370.165 MB)
Finished
-----------------------------
LOCAL RI TRANSFORMATION (IJV)
-----------------------------

Orbital window:      29 to 76
Basis functions:   1025 (343 shells)
Aux. functions:    2424 (644 shells)

Processing maps (0.0 sec)
Average map sizes:
   Aux shells -> MOs(i)           45.1
   Aux shells -> MOs(j)           48.0
   MOs        -> AO shells       338.5

Calculating integrals (26.9 sec, 40.253 MB)
Sorting integrals (0.3 sec, 40.226 MB)
Total time for the integral transformation: 27.4 sec


-------------------------------------
Pair Pair Term precalculation with     
RI-(ij|mn) and (im|jn) transformation  
ON THE FLY                             
-------------------------------------

   IBatch   1 (of   2)              ... done ( 1150.121 sec)
   IBatch   2 (of   2)              ... done ( 1250.220 sec)
Total EXT                           ...        2400.341 sec

---------------------
RI-PNO TRANSFORMATION
---------------------

Total Number of PNOs                   ... 34216
Total Number of IJ-PNOs                ... 30056
Total Number of IP-PNOs                ...  3202
Total Number of PQ-PNOs                ...   958
Total Number of IJ-pairs               ...   943
Total Number of PI-pairs               ...   117
Total Number of PQ-pairs               ...    25
Average number of PNOs per pair        ...    31
Maximal number of PNOs per pair        ...    86
>> Statistics for ij-pairs..
   #pairs with  1 -  5 PNOs   :    0
   #pairs with  6 - 10 PNOs   :    0
   #pairs with 11 - 15 PNOs   :   72
   #pairs with 16 - 20 PNOs   :  200
   #pairs with 21 - 25 PNOs   :  150
   #pairs with 26 - 30 PNOs   :  160
   #pairs with 31 - 35 PNOs   :   64
   #pairs with 36 - 40 PNOs   :   50
   #pairs with 41 - 45 PNOs   :   50
   #pairs with 46 - 50 PNOs   :   24
   #pairs with 51 - 55 PNOs   :   36
   #pairs with 56 - 60 PNOs   :   56
   #pairs with 61 - 65 PNOs   :   74
   #pairs with 66 - 70 PNOs   :    4
   #pairs with 76 - 80 PNOs   :    1
   #pairs with 81 - 85 PNOs   :    2
>> Statistics for ip-pairs..
   #pairs with  1 -  5 PNOs   :    0
   #pairs with  6 - 10 PNOs   :    1
   #pairs with 11 - 15 PNOs   :   15
   #pairs with 16 - 20 PNOs   :    5
   #pairs with 21 - 25 PNOs   :   27
   #pairs with 26 - 30 PNOs   :   10
   #pairs with 31 - 35 PNOs   :   45
   #pairs with 36 - 40 PNOs   :   14
   #pairs with 41 - 45 PNOs   :    0
   #pairs with 46 - 50 PNOs   :    0
>> Statistics for pq-pairs..
   #pairs with  1 -  5 PNOs   :    0
   #pairs with  6 - 10 PNOs   :    0
   #pairs with 11 - 15 PNOs   :    0
   #pairs with 16 - 20 PNOs   :    0
   #pairs with 21 - 25 PNOs   :   10
   #pairs with 26 - 30 PNOs   :   10
   #pairs with 31 - 35 PNOs   :    0
   #pairs with 36 - 40 PNOs   :    0
   #pairs with 41 - 45 PNOs   :    0
   #pairs with 46 - 50 PNOs   :    0
   #pairs with 86 - 90 PNOs   :    5

Generation of (ij|ab)[P] integrals            ... on
Generation of (ia|bc)[P],(ja|bc)[P] integrals ... on
Storage of 3 and 4 external integrals         ... on
Generation of ALL (ka|bc)[P] integrals        ... on
Keep RI integrals in memory                   ... off

Ibatch:  1 (of  1)
Starting 2-4 index PNO integral generation ... done

Timings:
Total PNO integral transformation time     ...       2251.591 sec
Size of the 3-external file                ...       290 MB
Size of the 4-external file                ...      1985 MB
Size of the IKJL file                      ...        17 MB
Size of the all 3-external file            ...      6972 MB
Size of the 1-external file                ...        22 MB

Size of the PAO/PNO coefficient matrices   ...     217.4 MB

Making pair/pair overlap matrices          ... done (  347.661 sec)
Size of the pair overlap file              ...    2405.0 MB
Total # unrestricted pairs ...       2087
  # of alpha-alpha pairs   ...        577
  # of alpha-beta pairs    ...       1060
  # of beta-beta pairs     ...        450
Constructing the guess amplitudes          ... done (    0.726 sec)

-------------------------
FINAL STARTUP INFORMATION
-------------------------

E(0)                                       ...  -3028.438238833
E(SL-UMP2 in NEV-PNO space)                ...     -2.691224524
Initial E(tot)                             ...  -3031.129463356
<T|T>                                      ...      0.537467330
Number of unrestricted pairs included      ... 2087
Total number of pairs                      ... 4095
----------------------------------------------------------
                     OPEN-SHELL COUPLED CLUSTER ITERATIONS
----------------------------------------------------------

Number of PNO amplitudes to be optimized        ...          2126683
Number of canonical amplitudes for strong pairs ...       1884983381
Untruncated number of canonical amplitudes      ...       3698645738

Iter       E(tot)           E(Corr)          Delta-E          Residual     Time
  0  -3031.136611887     -2.663311670      0.027912854      0.020963581 1920.95
                           *** Turning on DIIS ***
  1  -3031.247326992     -2.774026774     -0.110715104      0.010210122 1706.07
  2  -3031.312015937     -2.838715719     -0.064688945      0.008370553 1689.64
  3  -3031.333390594     -2.860090377     -0.021374658      0.002930486 1724.81
  4  -3031.340681448     -2.867381230     -0.007290854      0.002668740 1692.20
  5  -3031.344632965     -2.871332747     -0.003951516      0.001588061 1702.43
  6  -3031.346072459     -2.872772241     -0.001439494      0.000791218 1708.06
  7  -3031.346750156     -2.873449939     -0.000677698      0.000625918 1714.37
  8  -3031.346909082     -2.873608864     -0.000158925      0.000247124 1769.58
  9  -3031.346967588     -2.873667370     -0.000058506      0.000195320 1757.74
 10  -3031.346962918     -2.873662701      0.000004669      0.000087739 1790.63
 11  -3031.346976041     -2.873675823     -0.000013122      0.000070011 1658.71
 12  -3031.346981869     -2.873681651     -0.000005828      0.000030195 1638.96
 13  -3031.346984335     -2.873684117     -0.000002466      0.000014710 1572.18
 14  -3031.346986017     -2.873685800     -0.000001682      0.000007555 1615.97
               --- The CCSD iterations have converged ---

E(0)                                       ...  -3028.438238833
E(CORR)(strong-pairs)                      ...     -2.873685800
E(CORR)(weak-pairs)                        ...     -0.035061385
E(CORR)(corrected)                         ...     -2.908747185
E(TOT)                                     ...  -3031.346986017
Singles norm <S|S>**1/2                    ...      0.194907000 ( 0.066120543, 0.128786456)  
T1 diagnostic                              ...      0.020431805                              
<S**2>(linearized)                         ...      8.7508257 (ideal value:      8.7500000)

----------------------
LARGEST PNO AMPLITUDES
----------------------
  71a-> 77a  71b-> 77b       0.064237
  51b-> 76b  -1b-> -1b       0.054735
  50b-> 76b  -1b-> -1b       0.053430
  48b-> 72b  -1b-> -1b       0.053161
  71a-> 78a  71b-> 78b       0.050620
  43a-> 77a  -1a-> -1a       0.047636
  48b-> 75b  -1b-> -1b       0.046652
  48b-> 74b  -1b-> -1b       0.045808
  66a-> 77a  66b-> 77b       0.045660
  62a-> 77a  62b-> 77b       0.045556
  43b-> 77b  -1b-> -1b       0.044528
  43a-> 77a  43b-> 77b       0.044447
  70a-> 77a  70b-> 77b       0.043460
  55a-> 78a  55b-> 78b       0.043227
  57a-> 78a  57b-> 78b       0.042999
  37b-> 73b  -1b-> -1b       0.042991

Total # unrestricted pairs ...       1120
  # of alpha-alpha pairs   ...        308
  # of alpha-beta pairs    ...        560
  # of beta-beta pairs     ...        252

-------------------------------------------
DLPNO BASED TRIPLES CORRECTION
-------------------------------------------

Singles multiplier          ...  1.000000
Fragment selection                          .... not used
TCutTNO                     ... 1.000e-09
TCutMP2Pairs                ... 1.000e-05
TCutDOStrong                ... 2.000e-02
TCutMKNStrong               ... 1.000e-02
TCutDOWeak                  ... 4.000e-02
TCutMKNWeak                 ... 1.000e-01
NTCutTNO                    ... 1

Number of Triples that are to be computed         ...     32476

 . . . . . . . . .
10% done  
20% done  
30% done  
40% done  
50% done  
60% done  
70% done  
80% done  
90% done  
          Batch   1   done (  13581.775 sec)

Triples-Correction TCutTNO=   1.000e-09 (NWeakPairs = 0  1  2  3)  -0.118317399701   -0.001891218858    0.000000000000    0.000000000000
Triples-Correction  -0.120208618559

Triples timings:
Total time                      ... 14141.577 sec

Triples List generation         ...     0.000 sec
TNO generation                  ...   559.571 sec
Pair density generation         ...     0.084 sec
Look up tables                  ...     0.108 sec
Generating 3-index integrals    ...  8306.117 sec
Make 4-ind.int. from 3-ind.int  ...     3.353 sec
Projecting amplitudes (D + S)   ...  5019.649 sec
Sorting integrals for spin cases...    51.963 sec
Calculate W0/W1                 ...   161.981 sec
Energy contr. (sum over a,b,c)  ...    38.579 sec

Everything after 3-index        ...  5399.200 sec

Energy contribution AAA         ...    24.666 sec
Energy contribution AAB         ...   112.025 sec
Energy contribution ABB         ...   102.220 sec
Energy contribution BBB         ...    13.648 sec
prep                ...     3.051 sec
makeTTNO            ...  4967.360 sec
copyij              ...     0.126 sec
copyil              ...     3.986 sec
transposeij         ...     0.079 sec
newMatInDoubleProj  ...    49.782 sec
BlasInDoubleProj    ...  2690.202 sec
ProjSingles         ...    42.511 sec
ProjDoubles         ...  4977.137 sec
overall Doubles for projection      ... 2856855
used Doubles for projection         ... 2856855


Number of Triples   (0, 1, 2, 3 weak pairs; overall):  15980   10895       0       0  ( 26875)
Number of Atoms     (0, 1, 2, 3 weak pairs; overall):   18.9    14.5     0.0     0.0  (    29)
Number of PAOs      (0, 1, 2, 3 weak pairs; overall):  742.9   587.0     0.0     0.0  (  1025)
Number of AuxFcns   (0, 1, 2, 3 weak pairs; overall):  875.5   579.0     0.0     0.0  (  2424)
Number of TNOs (0, 1, 2, 3 weak pairs         ):   79.8    57.7     0.0     0.0
Aver. Number of NTNO, Atoms, PAOs, AuxFcns / Triples:  26875    70.8    17.1   679.7   755.3

Triples Correction (T)                     ...     -0.120208619
    alpha-alpha-alpha ... -0.003902733 (  3.2%)
    alpha-alpha-beta  ... -0.056419697 ( 46.9%)
    alpha-beta -beta  ... -0.055736760 ( 46.4%)
    beta -beta -beta  ... -0.004149429 (  3.5%)
Final correlation energy                   ...     -3.028955803
E(CCSD)                                    ...  -3031.346986017
E(CCSD(T))                                 ...  -3031.467194636

----------------------------
STATISTICS FOR PAIR-ENERGIES
----------------------------
Minimum, maximum and average ratios of UMP and CCSD pair-energies ... 0.47, 1.44, 1.02


------------------------------------------------------------------------------- 
                                     TIMINGS                                   
------------------------------------------------------------------------------- 


Total execution time                   ...    48498.622 sec

Localization of occupied MO's          ...       13.108 sec (  0.0%)
Fock Matrix Formation                  ...     1529.909 sec (  3.2%)
Differential overlap integrals         ...        1.936 sec (  0.0%)
Organizing maps                        ...        1.766 sec (  0.0%)
RI 3-index integral generations        ...      317.267 sec (  0.7%)
RI-PNO integral transformation         ...     5106.185 sec ( 10.5%)
Initial Guess                          ...     1903.496 sec (  3.9%)
DIIS Solver                            ...       15.237 sec (  0.0%)
State Vector Update                    ...        0.749 sec (  0.0%)
Sigma-vector construction              ...    25662.294 sec ( 52.9%)
  <0|H|D>                              ...        0.029 sec (  0.0% of sigma)
  <D|H|D>(0-ext)                       ...     4849.028 sec ( 18.9% of sigma)
  <D|H|D>(2-ext Fock)                  ...        1.171 sec (  0.0% of sigma)
  <D|H|D>(2-ext)                       ...     3372.393 sec ( 13.1% of sigma)
  <D|H|D>(4-ext)                       ...      162.829 sec (  0.6% of sigma)
  <D|H|D>(4-ext-corr)                  ...      980.806 sec (  3.8% of sigma)
  CCSD doubles correction              ...      472.957 sec (  1.8% of sigma)
  <S|H|S>                              ...      580.107 sec (  2.3% of sigma)
  <S|H|D>(1-ext)                       ...      231.511 sec (  0.9% of sigma)
  <D|H|S>(1-ext)                       ...        0.653 sec (  0.0% of sigma)
  <S|H|D>(3-ext)                       ...       19.486 sec (  0.1% of sigma)
  CCSD singles correction              ...        0.004 sec (  0.0% of sigma)
  Fock-dressing                        ...     7670.878 sec ( 29.9% of sigma)
  Singles amplitudes                   ...       96.827 sec (  0.4% of sigma)
  (ik|jl)-dressing                     ...     5824.255 sec ( 22.7% of sigma)
  (ij|ab),(ia|jb)-dressing             ...     1282.341 sec (  5.0% of sigma)
  Pair energies                        ...        0.149 sec (  0.0% of sigma)
Total Time for computing (T)           ...    14307.821 sec ( 29.5% of ALL)


-------------------------   --------------------
FINAL SINGLE POINT ENERGY     -3031.467194635985
-------------------------   --------------------


                            ***************************************
                            *     ORCA property calculations      *
                            ***************************************

                                    ---------------------
                                    Active property flags
                                    ---------------------
   (+) Dipole Moment


------------------------------------------------------------------------------
                       ORCA ELECTRIC PROPERTIES CALCULATION
------------------------------------------------------------------------------

Dipole Moment Calculation                       ... on
Quadrupole Moment Calculation                   ... off
Polarizability Calculation                      ... off
GBWName                                         ... simple-grid-215-300-b3lyp_d3bj-631gd-gas-singlepoint-DLPNO_CCSD_T1-NormalPNO-augtz-gas.gbw
Electron density file                           ... simple-grid-215-300-b3lyp_d3bj-631gd-gas-singlepoint-DLPNO_CCSD_T1-NormalPNO-augtz-gas.scfp.tmp
The origin for moment calculation is the CENTER OF MASS  = (-0.333921, -0.043229 -0.013900)

-------------
DIPOLE MOMENT
-------------
                                X             Y             Z
Electronic contribution:    -45.16180      -5.49454      -2.09458
Nuclear contribution   :     49.75422       6.44110       2.07110
                        -----------------------------------------
Total Dipole Moment    :      4.59242       0.94656      -0.02348
                        -----------------------------------------
Magnitude (a.u.)       :      4.68901
Magnitude (Debye)      :     11.91852



--------------------
Rotational spectrum 
--------------------
 
Rotational constants in cm-1:     0.020019     0.009855     0.009442 
Rotational constants in MHz :   600.165732   295.442464   283.065030 

 Dipole components along the rotational axes: 
x,y,z [a.u.] :    -4.594852    -0.930934     0.086675 
x,y,z [Debye]:   -11.679185    -2.366246     0.220311 

 

Timings for individual modules:

Sum of individual times         ...    92055.847 sec (=1534.264 min)
GTO integral calculation        ...       11.983 sec (=   0.200 min)   0.0 %
SCF iterations                  ...    43526.887 sec (= 725.448 min)  47.3 %
MDCI module                     ...    48516.977 sec (= 808.616 min)  52.7 %
                             ****ORCA TERMINATED NORMALLY****
TOTAL RUN TIME: 1 days 1 hours 34 minutes 18 seconds 562 msec
