
                                 *****************
                                 * O   R   C   A *
                                 *****************

           --- An Ab Initio, DFT and Semiempirical electronic structure package ---

                  #######################################################
                  #                        -***-                        #
                  #          Department of theory and spectroscopy      #
                  #               Directorship: Frank Neese             #
                  #        Max Planck Institute fuer Kohlenforschung    #
                  #                Kaiser Wilhelm Platz 1               #
                  #                 D-45470 Muelheim/Ruhr               #
                  #                      Germany                        #
                  #                                                     #
                  #                  All rights reserved                #
                  #                        -***-                        #
                  #######################################################


                         Program Version 4.1.2  - RELEASE  -


 With contributions from (in alphabetic order):
   Daniel Aravena         : Magnetic Properties
   Michael Atanasov       : Ab Initio Ligand Field Theory
   Alexander A. Auer      : GIAO ZORA
   Ute Becker             : Parallelization
   Giovanni Bistoni       : ED, Open-shell LED
   Martin Brehm           : Molecular dynamics
   Dmytro Bykov           : SCF Hessian
   Vijay G. Chilkuri      : MRCI spin determinant printing
   Dipayan Datta          : RHF DLPNO-CCSD density
   Achintya Kumar Dutta   : EOM-CC, STEOM-CC
   Dmitry Ganyushin       : Spin-Orbit,Spin-Spin,Magnetic field MRCI
   Miquel Garcia          : C-PCM Hessian
   Yang Guo               : DLPNO-NEVPT2, CIM, IAO-localization
   Andreas Hansen         : Spin unrestricted coupled pair/coupled cluster methods
   Benjamin Helmich-Paris : CASSCF linear response (MC-RPA)
   Lee Huntington         : MR-EOM, pCC
   Robert Izsak           : Overlap fitted RIJCOSX, COSX-SCS-MP3, EOM
   Christian Kollmar      : KDIIS, OOCD, Brueckner-CCSD(T), CCSD density
   Simone Kossmann        : Meta GGA functionals, TD-DFT gradient, OOMP2, MP2 Hessian
   Martin Krupicka        : AUTO-CI
   Lucas Lang             : DCDCAS
   Dagmar Lenk            : GEPOL surface, SMD
   Dimitrios Liakos       : Extrapolation schemes; parallel MDCI
   Dimitrios Manganas     : ROCIS; embedding schemes
   Dimitrios Pantazis     : SARC Basis sets
   Taras Petrenko         : DFT Hessian,TD-DFT gradient, ASA, ECA, R-Raman, ABS, FL, XAS/XES, NRVS
   Peter Pinski           : DLPNO-MP2, DLPNO-MP2 Gradient
   Christoph Reimann      : Effective Core Potentials
   Marius Retegan         : Local ZFS, SOC
   Christoph Riplinger    : Optimizer, TS searches, QM/MM, DLPNO-CCSD(T), (RO)-DLPNO pert. Triples
   Tobias Risthaus        : Range-separated hybrids, TD-DFT gradient, RPA, STAB
   Michael Roemelt        : Restricted open shell CIS
   Masaaki Saitow         : Open-shell DLPNO
   Barbara Sandhoefer     : DKH picture change effects
   Avijit Sen             : IP-ROCIS
   Kantharuban Sivalingam : CASSCF convergence, NEVPT2, FIC-MRCI
   Bernardo de Souza      : ESD, SOC TD-DFT
   Georgi Stoychev        : AutoAux, RI-MP2 NMR
   Willem Van den Heuvel  : Paramagnetic NMR
   Boris Wezisla          : Elementary symmetry handling
   Frank Wennmohs         : Technical directorship


 We gratefully acknowledge several colleagues who have allowed us to
 interface, adapt or use parts of their codes:
   Stefan Grimme, W. Hujo, H. Kruse,             : VdW corrections, initial TS optimization,
                  C. Bannwarth                     DFT functionals, gCP, sTDA/sTD-DF
   Ed Valeev                                     : LibInt (2-el integral package), F12 methods
   Garnet Chan, S. Sharma, J. Yang, R. Olivares  : DMRG
   Ulf Ekstrom                                   : XCFun DFT Library
   Mihaly Kallay                                 : mrcc  (arbitrary order and MRCC methods)
   Andreas Klamt, Michael Diedenhofen            : otool_cosmo (COSMO solvation model)
   Jiri Pittner, Ondrej Demel                    : Mk-CCSD
   Frank Weinhold                                : gennbo (NPA and NBO analysis)
   Christopher J. Cramer and Donald G. Truhlar   : smd solvation model
   Lars Goerigk                                  : TD-DFT with DH, B97 family of functionals
   V. Asgeirsson, H. Jonsson                     : NEB implementation
   FAccTs GmbH                                   : IRC, NEB, NEB-TS, Multilevel


 Your calculation uses the libint2 library for the computation of 2-el integrals
 For citations please refer to: http://libint.valeyev.net

 This ORCA versions uses:
   CBLAS   interface :  Fast vector & matrix operations
   LAPACKE interface :  Fast linear algebra routines
   SCALAPACK package :  Parallel linear algebra routines


----- Orbital basis set information -----
Your calculation utilizes the basis: aug-cc-pVTZ 
    H, B-Ne : Obtained from the ccRepo (grant-hill.group.shef.ac.uk/ccrepo) Feb. 2017
              R. A. Kendall, T. H. Dunning, Jr., R. J. Harrison, J. Chem. Phys. 96, 6796 (1992)
         He : Obtained from the ccRepo (grant-hill.group.shef.ac.uk/ccrepo) Feb. 2017
              D. E. Woon, T. H. Dunning, Jr., J. Chem. Phys. 100, 2975 (1994)
  Li-Be, Na : Obtained from the ccRepo (grant-hill.group.shef.ac.uk/ccrepo) Feb. 2017
              B. P. Prascher, D. E. Woon, K. A. Peterson, T. H. Dunning, Jr., A. K. Wilson, Theor. Chem. Acc. 128, 69 (2011)
         Mg : Obtained from the Peterson Research Group Website (tyr0.chem.wsu.edu/~kipeters) Feb. 2017
              B. P. Prascher, D. E. Woon, K. A. Peterson, T. H. Dunning, Jr., A. K. Wilson, Theor. Chem. Acc. 128, 69 (2011)
      Al-Ar : Obtained from the ccRepo (grant-hill.group.shef.ac.uk/ccrepo) Feb. 2017
              D. E. Woon, T. H. Dunning, Jr., J. Chem. Phys. 98, 1358 (1993)
      Sc-Zn : Obtained from the ccRepo (grant-hill.group.shef.ac.uk/ccrepo) Feb. 2017
              N. B. Balabanov, K. A. Peterson, J. Chem. Phys. 123, 064107 (2005)
              N. B. Balabanov, K. A. Peterson, J. Chem. Phys. 125, 074110 (2006)
      Ga-Kr : Obtained from the ccRepo (grant-hill.group.shef.ac.uk/ccrepo) Feb. 2017
              A. K. Wilson, D. E. Woon, K. A. Peterson, T. H. Dunning, Jr., J. Chem. Phys. 110, 7667 (1999)
     Ag, Au : Obtained from the Peterson Research Group Website (tyr0.chem.wsu.edu/~kipeters) Feb. 2017
              K. A. Peterson, C. Puzzarini, Theor. Chem. Acc. 114, 283 (2005)

----- AuxJ basis set information -----
Your calculation utilizes the AutoAux generation procedure.
  G. L. Stoychev, A. A. Auer, F. Neese, J. Chem. Theory Comput. 13, 554 (2017)

----- AuxC basis set information -----
Your calculation utilizes the auxiliary basis: aug-cc-pVTZ/C 
  H-He, B-F, Al-Ar, Ga-Kr : Obtained from the EMSL Basis Set Exchange (bse.pnl.gov) Feb. 2017
                            F. Weigend, A. Kohn, C. Hattig, J. Chem. Phys. 116, 3175 (2002)
                   Be, Mg : Obtained from the TURBOMOLE 7.0 basis set library
                            C. Haettig, Phys. Chem. Chem. Phys. 7, 59 (2005)
                       Ne : Obtained from the EMSL Basis Set Exchange (bse.pnl.gov) Feb. 2017
                            C. Haettig, Phys. Chem. Chem. Phys. 7, 59 (2005)
                            F. Weigend, A. Kohn, C. Hattig, J. Chem. Phys. 116, 3175 (2002)
                    Sc-Zn : Obtained from the EMSL Basis Set Exchange (bse.pnl.gov) Feb. 2017
                            J. G. Hill, J. A. Platts, J. Chem. Phys. 128, 044104 (2008)

----- AuxJK basis set information -----
Your calculation utilizes the AutoAux generation procedure.
  G. L. Stoychev, A. A. Auer, F. Neese, J. Chem. Theory Comput. 13, 554 (2017)

================================================================================
                                        WARNINGS
                       Please study these warnings very carefully!
================================================================================


WARNING: your system is open-shell and RHF/RKS was chosen
  ===> : WILL SWITCH to UHF/UKS


WARNING: MDCI localization with Augmented Hessian Foster-Boys
  ===> : Switching off randomization!

WARNING: Post HF methods need fully converged wavefunctions
  ===> : Setting SCFConvForced true
         You can overwrite this default with %scf ConvForced false 


INFO   : the flag for use of LIBINT has been found!

================================================================================
                                       INPUT FILE
================================================================================
NAME = simple-grid-255-260-b3lyp_d3bj-631gd-gas-singlepoint-DLPNO_CCSD_T1-NormalPNO-augtz-gas.inp
|  1> ! aug-cc-pVTZ aug-cc-pVTZ/C DLPNO-CCSD(T1) TightSCF NormalPNO UNO MiniPrint AutoAux
|  2> %pal nproc 10 end
|  3> %maxcore 20000
|  4> %mdci
|  5>      density none
|  6> end
|  7> 
|  8> * xyz 0 6
|  9>  O     -0.27364200     -0.24689600     -0.77702800
| 10>  C     -1.08505900     -1.20141300     -0.63827400
| 11>  C     -3.14964000     -0.03459300      0.29902600
| 12>  C     -2.47107400      1.01967600     -0.20511500
| 13>  C     -2.63841700      1.45628000     -1.63236600
| 14> Fe      1.46611600      0.11458700      0.04356200
| 15> Cl      2.10596800      1.98664000     -0.86806100
| 16>  C     -1.58433400      1.91069500      0.61255100
| 17> Cl      2.57442500     -1.67768100     -0.56001300
| 18> Cl      1.21594200      0.21538100      2.22396500
| 19>  H     -3.83961500     -0.54904000     -0.36890400
| 20>  H     -2.12811100      2.83671700      0.84616500
| 21>  H     -1.25955800      1.46808500      1.55400100
| 22>  H     -0.69764700      2.20921000      0.04339200
| 23>  H     -2.96874700      2.50260900     -1.65922700
| 24>  H     -1.67720400      1.42070200     -2.16030300
| 25>  H     -3.37565900      0.85723500     -2.17392100
| 26>  C     -3.26404500     -0.40858000      1.75236100
| 27>  H     -4.14777100      0.07328100      2.19242200
| 28>  H     -3.39770500     -1.48697300      1.88449600
| 29>  H     -2.39845300     -0.09889100      2.34331300
| 30>  C     -0.97667000     -2.12393600      0.53608000
| 31>  H     -1.86591100     -2.74201800      0.66091100
| 32>  H     -0.12288300     -2.78346100      0.31798700
| 33>  H     -0.74256500     -1.58693000      1.45543100
| 34>  C     -1.79136000     -1.70017500     -1.86466300
| 35>  H     -1.09969800     -2.41944300     -2.32819400
| 36>  H     -2.71721100     -2.22658400     -1.62952700
| 37>  H     -1.96526200     -0.90007400     -2.58218900
| 38> *
| 39> 
| 40> 
| 41>                          ****END OF INPUT****
================================================================================

                       ****************************
                       * Single Point Calculation *
                       ****************************

---------------------------------
CARTESIAN COORDINATES (ANGSTROEM)
---------------------------------
  O     -0.273642   -0.246896   -0.777028
  C     -1.085059   -1.201413   -0.638274
  C     -3.149640   -0.034593    0.299026
  C     -2.471074    1.019676   -0.205115
  C     -2.638417    1.456280   -1.632366
  Fe     1.466116    0.114587    0.043562
  Cl     2.105968    1.986640   -0.868061
  C     -1.584334    1.910695    0.612551
  Cl     2.574425   -1.677681   -0.560013
  Cl     1.215942    0.215381    2.223965
  H     -3.839615   -0.549040   -0.368904
  H     -2.128111    2.836717    0.846165
  H     -1.259558    1.468085    1.554001
  H     -0.697647    2.209210    0.043392
  H     -2.968747    2.502609   -1.659227
  H     -1.677204    1.420702   -2.160303
  H     -3.375659    0.857235   -2.173921
  C     -3.264045   -0.408580    1.752361
  H     -4.147771    0.073281    2.192422
  H     -3.397705   -1.486973    1.884496
  H     -2.398453   -0.098891    2.343313
  C     -0.976670   -2.123936    0.536080
  H     -1.865911   -2.742018    0.660911
  H     -0.122883   -2.783461    0.317987
  H     -0.742565   -1.586930    1.455431
  C     -1.791360   -1.700175   -1.864663
  H     -1.099698   -2.419443   -2.328194
  H     -2.717211   -2.226584   -1.629527
  H     -1.965262   -0.900074   -2.582189

----------------------------
CARTESIAN COORDINATES (A.U.)
----------------------------
  NO LB      ZA    FRAG     MASS         X           Y           Z
   0 O     8.0000    0    15.999   -0.517108   -0.466566   -1.468370
   1 C     6.0000    0    12.011   -2.050464   -2.270342   -1.206163
   2 C     6.0000    0    12.011   -5.951957   -0.065371    0.565077
   3 C     6.0000    0    12.011   -4.669653    1.926908   -0.387611
   4 C     6.0000    0    12.011   -4.985886    2.751970   -3.084725
   5 Fe   26.0000    0    55.850    2.770558    0.216538    0.082320
   6 Cl   17.0000    0    35.453    3.979703    3.754206   -1.640398
   7 C     6.0000    0    12.011   -2.993957    3.610690    1.157554
   8 Cl   17.0000    0    35.453    4.864958   -3.170358   -1.058271
   9 Cl   17.0000    0    35.453    2.297797    0.407011    4.202685
  10 H     1.0000    0     1.008   -7.255821   -1.037535   -0.697128
  11 H     1.0000    0     1.008   -4.021547    5.360618    1.599020
  12 H     1.0000    0     1.008   -2.380220    2.774279    2.936636
  13 H     1.0000    0     1.008   -1.318362    4.174802    0.081999
  14 H     1.0000    0     1.008   -5.610119    4.729246   -3.135485
  15 H     1.0000    0     1.008   -3.169456    2.684738   -4.082381
  16 H     1.0000    0     1.008   -6.379071    1.619939   -4.108115
  17 C     6.0000    0    12.011   -6.168151   -0.772104    3.311482
  18 H     1.0000    0     1.008   -7.838151    0.138481    4.143077
  19 H     1.0000    0     1.008   -6.420732   -2.809972    3.561181
  20 H     1.0000    0     1.008   -4.532419   -0.186877    4.428220
  21 C     6.0000    0    12.011   -1.845639   -4.013657    1.013044
  22 H     1.0000    0     1.008   -3.526061   -5.181663    1.248941
  23 H     1.0000    0     1.008   -0.232215   -5.259979    0.600908
  24 H     1.0000    0     1.008   -1.403244   -2.998863    2.750366
  25 C     6.0000    0    12.011   -3.385180   -3.212865   -3.523702
  26 H     1.0000    0     1.008   -2.078128   -4.572085   -4.399649
  27 H     1.0000    0     1.008   -5.134785   -4.207634   -3.079360
  28 H     1.0000    0     1.008   -3.713807   -1.700893   -4.879630



           ************************************************************
           *        Program running with 10 parallel MPI-processes    *
           *              working on a common directory               *
           ************************************************************


           ************************************************************
           *        Program running with 10 parallel MPI-processes    *
           *              working on a common directory               *
           ************************************************************

Diagonalization of the overlap matrix:
Smallest eigenvalue                        ... 7.445e-07
Time for diagonalization                   ...    0.336 sec
Threshold for overlap eigenvalues          ... 1.000e-08
Number of eigenvalues below threshold      ... 0
Time for construction of square roots      ...    0.281 sec
Total time needed                          ...    0.622 sec

-------------------
DFT GRID GENERATION
-------------------

General Integration Accuracy     IntAcc      ...  4.340
Radial Grid Type                 RadialGrid  ... Gauss-Chebyshev
Angular Grid (max. acc.)         AngularGrid ... Lebedev-110
Angular grid pruning method      GridPruning ... 3 (G Style)
Weight generation scheme         WeightScheme... Becke
Basis function cutoff            BFCut       ...    1.0000e-11
Integration weight cutoff        WCut        ...    1.0000e-14
Grids for H and He will be reduced by one unit

# of grid points (after initial pruning)     ...  36112 (   0.0 sec)
# of grid points (after weights+screening)   ...  32405 (   0.1 sec)
nearest neighbour list constructed           ...    0.0 sec
Grid point re-assignment to atoms done       ...    0.0 sec
Grid point division into batches done        ...    0.0 sec
Reduced shell lists constructed in    0.3 sec

Total number of grid points                  ...    32405
Total number of batches                      ...      520
Average number of points per batch           ...       62
Average number of grid points per atom       ...     1117
Average number of shells per batch           ...   289.13 (84.30%)
Average number of basis functions per batch  ...   858.19 (83.73%)
Average number of large shells per batch     ...   234.85 (81.23%)
Average number of large basis fcns per batch ...   696.85 (81.20%)
Maximum spatial batch extension              ...   4.49,  4.05,  4.96 au
Average spatial batch extension              ...   0.18,  0.19,  0.18 au

Time for grid setup =    0.400 sec

Loading Hartree-Fock densities                     ... done
Calculating cut-offs                               ... done
Setting up the integral package                    ... done
Initializing the effective Hamiltonian             ... done
Starting the Coulomb interaction                   ... done (   1.1 sec)
Reading the grid                                   ... done
Mapping shells                                     ... done
Starting the XC term evaluation                    ... done (   0.8 sec)
Transforming the Hamiltonian                       ... done (   0.2 sec)
Diagonalizing the Hamiltonian                      ... done (   0.3 sec)
Back transforming the eigenvectors                 ... done (   0.1 sec)
Now organizing SCF variables                       ... done
--------------
SCF ITERATIONS
--------------
ITER       Energy         Delta-E        Max-DP      RMS-DP      [F,P]     Damp
               ***  Starting incremental Fock matrix formation  ***
  0  -3027.5863423605   0.000000000000 0.19974415  0.00103934  0.2480801 0.7000
  1  -3027.8395489457  -0.253206585228 0.15225964  0.00082017  0.1522794 0.7000
                               ***Turning on DIIS***
  2  -3028.0090675674  -0.169518621649 0.10849032  0.00060631  0.1093382 0.7000
  3  -3029.6135427857  -1.604475218288 0.25327470  0.00152422  0.0816795 0.0000
  4  -3028.3054895727   1.308053212941 0.04537838  0.00022261  0.0201482 0.0000
  5  -3028.4277942107  -0.122304637987 0.03916651  0.00017348  0.0117173 0.0000
  6  -3028.4721519058  -0.044357695086 0.02058513  0.00007174  0.0053314 0.0000
  7  -3028.4869541444  -0.014802238589 0.00893046  0.00003304  0.0034855 0.0000
  8  -3028.4772015806   0.009752563772 0.00599129  0.00001901  0.0015345 0.0000
  9  -3028.4718852570   0.005316323590 0.00235192  0.00001089  0.0007594 0.0000
 10  -3028.4595452112   0.012340045851 0.00099708  0.00000335  0.0004217 0.0000
 11  -3028.4655710130  -0.006025801852 0.00029499  0.00000176  0.0000780 0.0000
 12  -3028.4634954124   0.002075600661 0.00029275  0.00000136  0.0000251 0.0000
 13  -3028.4634607368   0.000034675601 0.00049695  0.00000198  0.0000090 0.0000
 14  -3028.4634746312  -0.000013894378 0.00054613  0.00000202  0.0000053 0.0000
 15  -3028.4634301939   0.000044437276 0.00043397  0.00000170  0.0000033 0.0000
 16  -3028.4634343092  -0.000004115280 0.00096400  0.00000251  0.0000028 0.0000
 17  -3028.4634504304  -0.000016121223 0.00042881  0.00000178  0.0000018 0.0000
 18  -3028.4634335208   0.000016909605 0.00146321  0.00000362  0.0000013 0.0000
                            ***DIIS convergence achieved***

               *****************************************************
               *                     SUCCESS                       *
               *           SCF CONVERGED AFTER  19 CYCLES          *
               *****************************************************

Total Energy       :        -3028.46344074 Eh          -82408.67980 eV
  Last Energy change         ...   -7.2158e-06  Tolerance :   1.0000e-08
  Last MAX-Density change    ...    3.8694e-04  Tolerance :   1.0000e-07
             **** THE GBW FILE WAS UPDATED (simple-grid-255-260-b3lyp_d3bj-631gd-gas-singlepoint-DLPNO_CCSD_T1-NormalPNO-augtz-gas.gbw) ****
             **** DENSITY FILE WAS UPDATED (simple-grid-255-260-b3lyp_d3bj-631gd-gas-singlepoint-DLPNO_CCSD_T1-NormalPNO-augtz-gas.scfp.tmp) ****
             **** ENERGY FILE WAS UPDATED (simple-grid-255-260-b3lyp_d3bj-631gd-gas-singlepoint-DLPNO_CCSD_T1-NormalPNO-augtz-gas.en.tmp) ****
----------------------
UHF SPIN CONTAMINATION
----------------------

Expectation value of <S**2>     :     8.764871
Ideal value S*(S+1) for S=2.5   :     8.750000
Deviation                       :     0.014871

----------------
ORBITAL ENERGIES
----------------
                 SPIN UP ORBITALS
  NO   OCC          E(Eh)            E(eV) 
   0   1.0000    -261.574114     -7117.7935 
   1   1.0000    -104.792020     -2851.5358 
   2   1.0000    -104.789442     -2851.4657 
   3   1.0000    -104.788071     -2851.4284 
   4   1.0000     -32.241825      -877.3447 
   5   1.0000     -27.718264      -754.2523 
   6   1.0000     -27.717189      -754.2231 
   7   1.0000     -27.717022      -754.2185 
   8   1.0000     -20.611309      -560.8622 
   9   1.0000     -11.421851      -310.8044 
  10   1.0000     -11.276604      -306.8520 
  11   1.0000     -11.274596      -306.7973 
  12   1.0000     -11.270742      -306.6925 
  13   1.0000     -11.246267      -306.0265 
  14   1.0000     -11.243036      -305.9386 
  15   1.0000     -11.242544      -305.9252 
  16   1.0000     -11.232581      -305.6541 
  17   1.0000     -10.518722      -286.2290 
  18   1.0000     -10.516109      -286.1579 
  19   1.0000     -10.514687      -286.1192 
  20   1.0000      -7.985558      -217.2981 
  21   1.0000      -7.984800      -217.2774 
  22   1.0000      -7.984750      -217.2761 
  23   1.0000      -7.982999      -217.2284 
  24   1.0000      -7.982202      -217.2068 
  25   1.0000      -7.982132      -217.2049 
  26   1.0000      -7.981476      -217.1870 
  27   1.0000      -7.980811      -217.1689 
  28   1.0000      -7.980760      -217.1675 
  29   1.0000      -4.596744      -125.0838 
  30   1.0000      -3.209860       -87.3447 
  31   1.0000      -3.208187       -87.2992 
  32   1.0000      -3.208029       -87.2949 
  33   1.0000      -1.459479       -39.7144 
  34   1.0000      -1.131542       -30.7908 
  35   1.0000      -1.100177       -29.9373 
  36   1.0000      -1.065165       -28.9846 
  37   1.0000      -1.059582       -28.8327 
  38   1.0000      -1.057156       -28.7667 
  39   1.0000      -1.023615       -27.8540 
  40   1.0000      -1.010332       -27.4925 
  41   1.0000      -0.961779       -26.1713 
  42   1.0000      -0.941270       -25.6133 
  43   1.0000      -0.925738       -25.1906 
  44   1.0000      -0.925619       -25.1874 
  45   1.0000      -0.914931       -24.8965 
  46   1.0000      -0.914579       -24.8870 
  47   1.0000      -0.900674       -24.5086 
  48   1.0000      -0.811142       -22.0723 
  49   1.0000      -0.733018       -19.9464 
  50   1.0000      -0.709600       -19.3092 
  51   1.0000      -0.700919       -19.0730 
  52   1.0000      -0.688142       -18.7253 
  53   1.0000      -0.658401       -17.9160 
  54   1.0000      -0.624933       -17.0053 
  55   1.0000      -0.621310       -16.9067 
  56   1.0000      -0.603414       -16.4197 
  57   1.0000      -0.600396       -16.3376 
  58   1.0000      -0.585294       -15.9267 
  59   1.0000      -0.578938       -15.7537 
  60   1.0000      -0.560411       -15.2496 
  61   1.0000      -0.554963       -15.1013 
  62   1.0000      -0.552349       -15.0302 
  63   1.0000      -0.541572       -14.7369 
  64   1.0000      -0.533984       -14.5304 
  65   1.0000      -0.528354       -14.3772 
  66   1.0000      -0.500974       -13.6322 
  67   1.0000      -0.496721       -13.5165 
  68   1.0000      -0.476260       -12.9597 
  69   1.0000      -0.474103       -12.9010 
  70   1.0000      -0.445333       -12.1181 
  71   1.0000      -0.439285       -11.9536 
  72   1.0000      -0.437790       -11.9129 
  73   1.0000      -0.429146       -11.6777 
  74   1.0000      -0.427788       -11.6407 
  75   1.0000      -0.427162       -11.6237 
  76   1.0000      -0.361182        -9.8283 
  77   0.0000       0.012731         0.3464 
  78   0.0000       0.023543         0.6406 
  79   0.0000       0.024060         0.6547 
  80   0.0000       0.030527         0.8307 
  81   0.0000       0.039370         1.0713 
  82   0.0000       0.041208         1.1213 
  83   0.0000       0.042754         1.1634 
  84   0.0000       0.043270         1.1774 
  85   0.0000       0.044077         1.1994 
  86   0.0000       0.056284         1.5316 
  87   0.0000       0.057106         1.5539 
  88   0.0000       0.060622         1.6496 
  89   0.0000       0.064213         1.7473 
  90   0.0000       0.066471         1.8088 
  91   0.0000       0.070096         1.9074 
  92   0.0000       0.073591         2.0025 
  93   0.0000       0.075762         2.0616 
  94   0.0000       0.080315         2.1855 
  95   0.0000       0.092024         2.5041 
  96   0.0000       0.092770         2.5244 
  97   0.0000       0.093150         2.5347 
  98   0.0000       0.098743         2.6869 
  99   0.0000       0.102536         2.7901 
 100   0.0000       0.104537         2.8446 
 101   0.0000       0.107270         2.9190 
 102   0.0000       0.116336         3.1657 
 103   0.0000       0.122307         3.3282 
 104   0.0000       0.122683         3.3384 
 105   0.0000       0.124379         3.3845 
 106   0.0000       0.127485         3.4691 
 107   0.0000       0.127927         3.4811 
 108   0.0000       0.130446         3.5496 
 109   0.0000       0.133862         3.6426 
 110   0.0000       0.136395         3.7115 
 111   0.0000       0.139074         3.7844 
 112   0.0000       0.142694         3.8829 
 113   0.0000       0.144070         3.9204 
 114   0.0000       0.150105         4.0846 
 115   0.0000       0.151654         4.1267 
 116   0.0000       0.154037         4.1916 
 117   0.0000       0.159815         4.3488 
 118   0.0000       0.162642         4.4257 
 119   0.0000       0.165819         4.5122 
 120   0.0000       0.167771         4.5653 
 121   0.0000       0.170264         4.6331 
 122   0.0000       0.174098         4.7374 
 123   0.0000       0.177554         4.8315 
 124   0.0000       0.181654         4.9431 
 125   0.0000       0.185680         5.0526 
 126   0.0000       0.188509         5.1296 
 127   0.0000       0.190220         5.1762 
 128   0.0000       0.194466         5.2917 
 129   0.0000       0.197813         5.3828 
 130   0.0000       0.200686         5.4610 
 131   0.0000       0.202391         5.5073 
 132   0.0000       0.205301         5.5865 
 133   0.0000       0.206415         5.6168 
 134   0.0000       0.209341         5.6965 
 135   0.0000       0.213381         5.8064 
 136   0.0000       0.218795         5.9537 
 137   0.0000       0.222418         6.0523 
 138   0.0000       0.225459         6.1351 
 139   0.0000       0.230719         6.2782 
 140   0.0000       0.233531         6.3547 
 141   0.0000       0.235543         6.4095 
 142   0.0000       0.239587         6.5195 
 143   0.0000       0.241680         6.5765 
 144   0.0000       0.247168         6.7258 
 145   0.0000       0.248023         6.7491 
 146   0.0000       0.250571         6.8184 
 147   0.0000       0.251905         6.8547 
 148   0.0000       0.258632         7.0377 
 149   0.0000       0.260799         7.0967 
 150   0.0000       0.263514         7.1706 
 151   0.0000       0.272029         7.4023 
 152   0.0000       0.273202         7.4342 
 153   0.0000       0.275885         7.5072 
 154   0.0000       0.281567         7.6618 
 155   0.0000       0.286065         7.7842 
 156   0.0000       0.292250         7.9525 
 157   0.0000       0.294485         8.0134 
 158   0.0000       0.298487         8.1223 
 159   0.0000       0.302996         8.2449 
 160   0.0000       0.309978         8.4349 
 161   0.0000       0.311666         8.4809 
 162   0.0000       0.317102         8.6288 
 163   0.0000       0.318322         8.6620 
 164   0.0000       0.327533         8.9126 
 165   0.0000       0.331107         9.0099 
 166   0.0000       0.331581         9.0228 
 167   0.0000       0.337270         9.1776 
 168   0.0000       0.341936         9.3046 
 169   0.0000       0.343961         9.3597 
 170   0.0000       0.349326         9.5057 
 171   0.0000       0.350105         9.5268 
 172   0.0000       0.356008         9.6875 
 173   0.0000       0.359026         9.7696 
 174   0.0000       0.361681         9.8418 
 175   0.0000       0.363136         9.8814 
 176   0.0000       0.366289         9.9672 
 177   0.0000       0.371631        10.1126 
 178   0.0000       0.376519        10.2456 
 179   0.0000       0.377580        10.2745 
 180   0.0000       0.378148        10.2899 
 181   0.0000       0.380313        10.3488 
 182   0.0000       0.383969        10.4483 
 183   0.0000       0.385831        10.4990 
 184   0.0000       0.392724        10.6866 
 185   0.0000       0.393473        10.7069 
 186   0.0000       0.400205        10.8901 
 187   0.0000       0.404180        10.9983 
 188   0.0000       0.406088        11.0502 
 189   0.0000       0.407360        11.0848 
 190   0.0000       0.409070        11.1314 
 191   0.0000       0.413205        11.2439 
 192   0.0000       0.415446        11.3049 
 193   0.0000       0.424101        11.5404 
 194   0.0000       0.428839        11.6693 
 195   0.0000       0.430750        11.7213 
 196   0.0000       0.434314        11.8183 
 197   0.0000       0.440694        11.9919 
 198   0.0000       0.443783        12.0760 
 199   0.0000       0.446317        12.1449 
 200   0.0000       0.452463        12.3122 
 201   0.0000       0.453709        12.3460 
 202   0.0000       0.456252        12.4152 
 203   0.0000       0.458273        12.4702 
 204   0.0000       0.461505        12.5582 
 205   0.0000       0.469235        12.7685 
 206   0.0000       0.471711        12.8359 
 207   0.0000       0.471977        12.8431 
 208   0.0000       0.475294        12.9334 
 209   0.0000       0.479289        13.0421 
 210   0.0000       0.484134        13.1740 
 211   0.0000       0.487811        13.2740 
 212   0.0000       0.490838        13.3564 
 213   0.0000       0.493368        13.4252 
 214   0.0000       0.495934        13.4951 
 215   0.0000       0.501180        13.6378 
 216   0.0000       0.503014        13.6877 
 217   0.0000       0.507517        13.8102 
 218   0.0000       0.509360        13.8604 
 219   0.0000       0.513846        13.9825 
 220   0.0000       0.515327        14.0227 
 221   0.0000       0.519288        14.1305 
 222   0.0000       0.520219        14.1559 
 223   0.0000       0.525155        14.2902 
 224   0.0000       0.529680        14.4133 
 225   0.0000       0.530871        14.4457 
 226   0.0000       0.535560        14.5733 
 227   0.0000       0.538966        14.6660 
 228   0.0000       0.541116        14.7245 
 229   0.0000       0.544156        14.8072 
 230   0.0000       0.547111        14.8877 
 231   0.0000       0.549977        14.9656 
 232   0.0000       0.558931        15.2093 
 233   0.0000       0.560456        15.2508 
 234   0.0000       0.565934        15.3999 
 235   0.0000       0.568517        15.4701 
 236   0.0000       0.571265        15.5449 
 237   0.0000       0.573829        15.6147 
 238   0.0000       0.578674        15.7465 
 239   0.0000       0.580168        15.7872 
 240   0.0000       0.583340        15.8735 
 241   0.0000       0.590946        16.0805 
 242   0.0000       0.594929        16.1888 
 243   0.0000       0.598664        16.2905 
 244   0.0000       0.601085        16.3563 
 245   0.0000       0.604559        16.4509 
 246   0.0000       0.611024        16.6268 
 247   0.0000       0.613471        16.6934 
 248   0.0000       0.617411        16.8006 
 249   0.0000       0.621139        16.9020 
 250   0.0000       0.623424        16.9642 
 251   0.0000       0.628115        17.0919 
 252   0.0000       0.636884        17.3305 
 253   0.0000       0.639136        17.3918 
 254   0.0000       0.639390        17.3987 
 255   0.0000       0.643961        17.5231 
 256   0.0000       0.647566        17.6212 
 257   0.0000       0.651442        17.7267 
 258   0.0000       0.653083        17.7713 
 259   0.0000       0.653692        17.7879 
 260   0.0000       0.659657        17.9502 
 261   0.0000       0.661600        18.0031 
 262   0.0000       0.665548        18.1105 
 263   0.0000       0.671198        18.2642 
 264   0.0000       0.673463        18.3259 
 265   0.0000       0.678682        18.4679 
 266   0.0000       0.684840        18.6354 
 267   0.0000       0.686286        18.6748 
 268   0.0000       0.689896        18.7730 
 269   0.0000       0.699550        19.0357 
 270   0.0000       0.702787        19.1238 
 271   0.0000       0.708047        19.2669 
 272   0.0000       0.713890        19.4259 
 273   0.0000       0.716660        19.5013 
 274   0.0000       0.719525        19.5793 
 275   0.0000       0.723878        19.6977 
 276   0.0000       0.729330        19.8461 
 277   0.0000       0.732244        19.9254 
 278   0.0000       0.736243        20.0342 
 279   0.0000       0.739812        20.1313 
 280   0.0000       0.745067        20.2743 
 281   0.0000       0.753150        20.4942 
 282   0.0000       0.756662        20.5898 
 283   0.0000       0.759091        20.6559 
 284   0.0000       0.762036        20.7361 
 285   0.0000       0.773320        21.0431 
 286   0.0000       0.774856        21.0849 
 287   0.0000       0.783050        21.3079 
 288   0.0000       0.793441        21.5906 
 289   0.0000       0.808404        21.9978 
 290   0.0000       0.811125        22.0718 
 291   0.0000       0.815443        22.1893 
 292   0.0000       0.818392        22.2696 
 293   0.0000       0.828739        22.5511 
 294   0.0000       0.831304        22.6209 
 295   0.0000       0.841295        22.8928 
 296   0.0000       0.842859        22.9354 
 297   0.0000       0.845311        23.0021 
 298   0.0000       0.854432        23.2503 
 299   0.0000       0.859456        23.3870 
 300   0.0000       0.861961        23.4552 
 301   0.0000       0.865169        23.5424 
 302   0.0000       0.870714        23.6933 
 303   0.0000       0.873853        23.7787 
 304   0.0000       0.884693        24.0737 
 305   0.0000       0.886290        24.1172 
 306   0.0000       0.887647        24.1541 
 307   0.0000       0.895051        24.3556 
 308   0.0000       0.901607        24.5340 
 309   0.0000       0.906659        24.6715 
 310   0.0000       0.908944        24.7336 
 311   0.0000       0.913036        24.8450 
 312   0.0000       0.914040        24.8723 
 313   0.0000       0.919438        25.0192 
 314   0.0000       0.923633        25.1333 
 315   0.0000       0.926853        25.2210 
 316   0.0000       0.932197        25.3664 
 317   0.0000       0.932800        25.3828 
 318   0.0000       0.940876        25.6025 
 319   0.0000       0.942425        25.6447 
 320   0.0000       0.950537        25.8654 
 321   0.0000       0.951528        25.8924 
 322   0.0000       0.953800        25.9542 
 323   0.0000       0.958965        26.0948 
 324   0.0000       0.960236        26.1293 
 325   0.0000       0.960809        26.1449 
 326   0.0000       0.965200        26.2644 
 327   0.0000       0.971166        26.4268 
 328   0.0000       0.972490        26.4628 
 329   0.0000       0.975712        26.5505 
 330   0.0000       0.979204        26.6455 
 331   0.0000       0.983963        26.7750 
 332   0.0000       0.988557        26.9000 
 333   0.0000       0.989597        26.9283 
 334   0.0000       0.996927        27.1278 
 335   0.0000       1.002432        27.2776 
 336   0.0000       1.004496        27.3337 
 337   0.0000       1.005775        27.3685 
 338   0.0000       1.007405        27.4129 
 339   0.0000       1.011853        27.5339 
 340   0.0000       1.015749        27.6399 
 341   0.0000       1.019414        27.7397 
 342   0.0000       1.025199        27.8971 
 343   0.0000       1.026698        27.9379 
 344   0.0000       1.028178        27.9781 
 345   0.0000       1.034075        28.1386 
 346   0.0000       1.038430        28.2571 
 347   0.0000       1.043325        28.3903 
 348   0.0000       1.043942        28.4071 
 349   0.0000       1.046704        28.4823 
 350   0.0000       1.051483        28.6123 
 351   0.0000       1.056183        28.7402 
 352   0.0000       1.061686        28.8899 
 353   0.0000       1.064512        28.9668 
 354   0.0000       1.068204        29.0673 
 355   0.0000       1.070150        29.1203 
 356   0.0000       1.076659        29.2974 
 357   0.0000       1.078731        29.3538 
 358   0.0000       1.080721        29.4079 
 359   0.0000       1.086939        29.5771 
 360   0.0000       1.088316        29.6146 
 361   0.0000       1.091573        29.7032 
 362   0.0000       1.095381        29.8068 
 363   0.0000       1.103053        30.0156 
 364   0.0000       1.104708        30.0606 
 365   0.0000       1.108725        30.1699 
 366   0.0000       1.114894        30.3378 
 367   0.0000       1.125398        30.6236 
 368   0.0000       1.127422        30.6787 
 369   0.0000       1.129096        30.7243 
 370   0.0000       1.135348        30.8944 
 371   0.0000       1.138196        30.9719 
 372   0.0000       1.145443        31.1691 
 373   0.0000       1.148407        31.2497 
 374   0.0000       1.154149        31.4060 
 375   0.0000       1.155009        31.4294 
 376   0.0000       1.161464        31.6050 
 377   0.0000       1.167102        31.7584 
 378   0.0000       1.174594        31.9623 
 379   0.0000       1.177518        32.0419 
 380   0.0000       1.180259        32.1165 
 381   0.0000       1.181911        32.1614 
 382   0.0000       1.185589        32.2615 
 383   0.0000       1.189515        32.3683 
 384   0.0000       1.197210        32.5777 
 385   0.0000       1.199987        32.6533 
 386   0.0000       1.205031        32.7906 
 387   0.0000       1.209318        32.9072 
 388   0.0000       1.218147        33.1475 
 389   0.0000       1.224043        33.3079 
 390   0.0000       1.228045        33.4168 
 391   0.0000       1.229425        33.4544 
 392   0.0000       1.233552        33.5666 
 393   0.0000       1.237762        33.6812 
 394   0.0000       1.243099        33.8265 
 395   0.0000       1.250842        34.0371 
 396   0.0000       1.255368        34.1603 
 397   0.0000       1.258760        34.2526 
 398   0.0000       1.265789        34.4439 
 399   0.0000       1.270220        34.5645 
 400   0.0000       1.272560        34.6281 
 401   0.0000       1.275592        34.7106 
 402   0.0000       1.279328        34.8123 
 403   0.0000       1.279840        34.8262 
 404   0.0000       1.290851        35.1258 
 405   0.0000       1.294316        35.2201 
 406   0.0000       1.296438        35.2779 
 407   0.0000       1.302945        35.4549 
 408   0.0000       1.310331        35.6559 
 409   0.0000       1.316277        35.8177 
 410   0.0000       1.320489        35.9323 
 411   0.0000       1.323293        36.0086 
 412   0.0000       1.327926        36.1347 
 413   0.0000       1.332432        36.2573 
 414   0.0000       1.337633        36.3988 
 415   0.0000       1.340557        36.4784 
 416   0.0000       1.349418        36.7195 
 417   0.0000       1.359280        36.9879 
 418   0.0000       1.360366        37.0174 
 419   0.0000       1.364329        37.1253 
 420   0.0000       1.365243        37.1501 
 421   0.0000       1.372778        37.3552 
 422   0.0000       1.382281        37.6138 
 423   0.0000       1.386860        37.7384 
 424   0.0000       1.399420        38.0801 
 425   0.0000       1.402240        38.1569 
 426   0.0000       1.409173        38.3455 
 427   0.0000       1.411478        38.4083 
 428   0.0000       1.417347        38.5680 
 429   0.0000       1.422110        38.6976 
 430   0.0000       1.426973        38.8299 
 431   0.0000       1.431569        38.9550 
 432   0.0000       1.440361        39.1942 
 433   0.0000       1.444309        39.3017 
 434   0.0000       1.449954        39.4552 
 435   0.0000       1.455044        39.5938 
 436   0.0000       1.460070        39.7305 
 437   0.0000       1.468104        39.9491 
 438   0.0000       1.475463        40.1494 
 439   0.0000       1.478316        40.2270 
 440   0.0000       1.481439        40.3120 
 441   0.0000       1.485595        40.4251 
 442   0.0000       1.491800        40.5939 
 443   0.0000       1.497561        40.7507 
 444   0.0000       1.501165        40.8488 
 445   0.0000       1.503646        40.9163 
 446   0.0000       1.509416        41.0733 
 447   0.0000       1.515045        41.2265 
 448   0.0000       1.520319        41.3700 
 449   0.0000       1.523963        41.4691 
 450   0.0000       1.527217        41.5577 
 451   0.0000       1.529039        41.6073 
 452   0.0000       1.537545        41.8387 
 453   0.0000       1.544830        42.0370 
 454   0.0000       1.548649        42.1409 
 455   0.0000       1.556595        42.3571 
 456   0.0000       1.560349        42.4593 
 457   0.0000       1.568106        42.6703 
 458   0.0000       1.570343        42.7312 
 459   0.0000       1.580939        43.0195 
 460   0.0000       1.582245        43.0551 
 461   0.0000       1.587776        43.2056 
 462   0.0000       1.593854        43.3710 
 463   0.0000       1.597192        43.4618 
 464   0.0000       1.601950        43.5913 
 465   0.0000       1.607213        43.7345 
 466   0.0000       1.618184        44.0330 
 467   0.0000       1.627695        44.2918 
 468   0.0000       1.630234        44.3609 
 469   0.0000       1.633758        44.4568 
 470   0.0000       1.645598        44.7790 
 471   0.0000       1.647485        44.8304 
 472   0.0000       1.651434        44.9378 
 473   0.0000       1.658870        45.1401 
 474   0.0000       1.660899        45.1954 
 475   0.0000       1.666882        45.3582 
 476   0.0000       1.667856        45.3847 
 477   0.0000       1.672432        45.5092 
 478   0.0000       1.677370        45.6435 
 479   0.0000       1.683445        45.8089 
 480   0.0000       1.688070        45.9347 
 481   0.0000       1.693922        46.0940 
 482   0.0000       1.708241        46.4836 
 483   0.0000       1.710262        46.5386 
 484   0.0000       1.714325        46.6491 
 485   0.0000       1.719616        46.7931 
 486   0.0000       1.723325        46.8941 
 487   0.0000       1.724505        46.9262 
 488   0.0000       1.734900        47.2090 
 489   0.0000       1.741272        47.3824 
 490   0.0000       1.745695        47.5028 
 491   0.0000       1.749137        47.5964 
 492   0.0000       1.753704        47.7207 
 493   0.0000       1.756476        47.7961 
 494   0.0000       1.763597        47.9899 
 495   0.0000       1.773544        48.2606 
 496   0.0000       1.777586        48.3706 
 497   0.0000       1.781756        48.4840 
 498   0.0000       1.790502        48.7220 
 499   0.0000       1.791355        48.7452 
 500   0.0000       1.794604        48.8337 
 501   0.0000       1.800597        48.9967 
 502   0.0000       1.809918        49.2504 
 503   0.0000       1.814025        49.3621 
 504   0.0000       1.817012        49.4434 
 505   0.0000       1.818527        49.4846 
 506   0.0000       1.829472        49.7825 
 507   0.0000       1.829724        49.7893 
 508   0.0000       1.840130        50.0725 
 509   0.0000       1.842834        50.1461 
 510   0.0000       1.848981        50.3133 
 511   0.0000       1.856125        50.5077 
 512   0.0000       1.862324        50.6764 
 513   0.0000       1.862794        50.6892 
 514   0.0000       1.866901        50.8010 
 515   0.0000       1.874550        51.0091 
 516   0.0000       1.878138        51.1067 
 517   0.0000       1.885573        51.3090 
 518   0.0000       1.887794        51.3695 
 519   0.0000       1.893899        51.5356 
 520   0.0000       1.900919        51.7266 
 521   0.0000       1.908516        51.9334 
 522   0.0000       1.913849        52.0785 
 523   0.0000       1.914804        52.1045 
 524   0.0000       1.918119        52.1947 
 525   0.0000       1.927212        52.4421 
 526   0.0000       1.933151        52.6037 
 527   0.0000       1.938510        52.7495 
 528   0.0000       1.942409        52.8556 
 529   0.0000       1.950422        53.0737 
 530   0.0000       1.955153        53.2024 
 531   0.0000       1.958066        53.2817 
 532   0.0000       1.962342        53.3980 
 533   0.0000       1.967595        53.5410 
 534   0.0000       1.974238        53.7217 
 535   0.0000       1.980057        53.8801 
 536   0.0000       1.987867        54.0926 
 537   0.0000       1.989053        54.1249 
 538   0.0000       1.992360        54.2149 
 539   0.0000       2.002609        54.4938 
 540   0.0000       2.017724        54.9051 
 541   0.0000       2.023461        55.0612 
 542   0.0000       2.024857        55.0992 
 543   0.0000       2.033336        55.3299 
 544   0.0000       2.039954        55.5100 
 545   0.0000       2.045702        55.6664 
 546   0.0000       2.055070        55.9213 
 547   0.0000       2.058012        56.0013 
 548   0.0000       2.067981        56.2726 
 549   0.0000       2.071344        56.3641 
 550   0.0000       2.075891        56.4879 
 551   0.0000       2.077943        56.5437 
 552   0.0000       2.092933        56.9516 
 553   0.0000       2.095945        57.0336 
 554   0.0000       2.103297        57.2336 
 555   0.0000       2.108296        57.3696 
 556   0.0000       2.121167        57.7199 
 557   0.0000       2.125732        57.8441 
 558   0.0000       2.135365        58.1062 
 559   0.0000       2.139202        58.2107 
 560   0.0000       2.144273        58.3486 
 561   0.0000       2.153100        58.5888 
 562   0.0000       2.159927        58.7746 
 563   0.0000       2.165454        58.9250 
 564   0.0000       2.170285        59.0564 
 565   0.0000       2.177835        59.2619 
 566   0.0000       2.187749        59.5317 
 567   0.0000       2.190678        59.6114 
 568   0.0000       2.195246        59.7357 
 569   0.0000       2.208662        60.1007 
 570   0.0000       2.215218        60.2792 
 571   0.0000       2.221635        60.4537 
 572   0.0000       2.226596        60.5888 
 573   0.0000       2.231749        60.7290 
 574   0.0000       2.242611        61.0246 
 575   0.0000       2.243045        61.0363 
 576   0.0000       2.250947        61.2514 
 577   0.0000       2.262211        61.5579 
 578   0.0000       2.263168        61.5839 
 579   0.0000       2.273143        61.8554 
 580   0.0000       2.276685        61.9517 
 581   0.0000       2.281926        62.0944 
 582   0.0000       2.291595        62.3575 
 583   0.0000       2.297197        62.5099 
 584   0.0000       2.306756        62.7700 
 585   0.0000       2.309603        62.8475 
 586   0.0000       2.331285        63.4375 
 587   0.0000       2.336741        63.5860 
 588   0.0000       2.342162        63.7335 
 589   0.0000       2.351093        63.9765 
 590   0.0000       2.366754        64.4027 
 591   0.0000       2.371370        64.5283 
 592   0.0000       2.383041        64.8458 
 593   0.0000       2.386109        64.9293 
 594   0.0000       2.405168        65.4479 
 595   0.0000       2.410476        65.5924 
 596   0.0000       2.413504        65.6748 
 597   0.0000       2.419065        65.8261 
 598   0.0000       2.422996        65.9331 
 599   0.0000       2.432203        66.1836 
 600   0.0000       2.439548        66.3835 
 601   0.0000       2.448415        66.6248 
 602   0.0000       2.455492        66.8173 
 603   0.0000       2.466932        67.1286 
 604   0.0000       2.472518        67.2806 
 605   0.0000       2.489342        67.7384 
 606   0.0000       2.501379        68.0660 
 607   0.0000       2.507081        68.2211 
 608   0.0000       2.512681        68.3735 
 609   0.0000       2.527791        68.7847 
 610   0.0000       2.536343        69.0174 
 611   0.0000       2.549322        69.3706 
 612   0.0000       2.554685        69.5165 
 613   0.0000       2.560700        69.6802 
 614   0.0000       2.573582        70.0307 
 615   0.0000       2.582623        70.2767 
 616   0.0000       2.592358        70.5417 
 617   0.0000       2.609443        71.0065 
 618   0.0000       2.642269        71.8998 
 619   0.0000       2.651782        72.1586 
 620   0.0000       2.653026        72.1925 
 621   0.0000       2.670463        72.6670 
 622   0.0000       2.671597        72.6978 
 623   0.0000       2.676319        72.8264 
 624   0.0000       2.684371        73.0455 
 625   0.0000       2.687527        73.1313 
 626   0.0000       2.694722        73.3271 
 627   0.0000       2.711420        73.7815 
 628   0.0000       2.717600        73.9497 
 629   0.0000       2.727082        74.2077 
 630   0.0000       2.740276        74.5667 
 631   0.0000       2.750093        74.8338 
 632   0.0000       2.759741        75.0964 
 633   0.0000       2.764500        75.2259 
 634   0.0000       2.766267        75.2739 
 635   0.0000       2.776360        75.5486 
 636   0.0000       2.790360        75.9296 
 637   0.0000       2.802157        76.2506 
 638   0.0000       2.809301        76.4450 
 639   0.0000       2.822598        76.8068 
 640   0.0000       2.829798        77.0027 
 641   0.0000       2.850377        77.5627 
 642   0.0000       2.855995        77.7156 
 643   0.0000       2.869140        78.0733 
 644   0.0000       2.884958        78.5037 
 645   0.0000       2.899203        78.8913 
 646   0.0000       2.914446        79.3061 
 647   0.0000       2.924217        79.5720 
 648   0.0000       2.934669        79.8564 
 649   0.0000       2.945086        80.1399 
 650   0.0000       2.958424        80.5028 
 651   0.0000       2.974659        80.9446 
 652   0.0000       2.979451        81.0750 
 653   0.0000       3.006440        81.8094 
 654   0.0000       3.019029        82.1520 
 655   0.0000       3.041314        82.7584 
 656   0.0000       3.048576        82.9560 
 657   0.0000       3.058891        83.2367 
 658   0.0000       3.075687        83.6937 
 659   0.0000       3.085822        83.9695 
 660   0.0000       3.095340        84.2285 
 661   0.0000       3.097563        84.2890 
 662   0.0000       3.122188        84.9590 
 663   0.0000       3.153515        85.8115 
 664   0.0000       3.155055        85.8534 
 665   0.0000       3.165110        86.1270 
 666   0.0000       3.177447        86.4627 
 667   0.0000       3.197242        87.0014 
 668   0.0000       3.206456        87.2521 
 669   0.0000       3.211139        87.3795 
 670   0.0000       3.223900        87.7268 
 671   0.0000       3.231859        87.9433 
 672   0.0000       3.240254        88.1718 
 673   0.0000       3.249629        88.4269 
 674   0.0000       3.259785        88.7032 
 675   0.0000       3.264129        88.8215 
 676   0.0000       3.274016        89.0905 
 677   0.0000       3.283177        89.3398 
 678   0.0000       3.297405        89.7269 
 679   0.0000       3.300519        89.8117 
 680   0.0000       3.312558        90.1393 
 681   0.0000       3.316954        90.2589 
 682   0.0000       3.329709        90.6060 
 683   0.0000       3.340528        90.9004 
 684   0.0000       3.342936        90.9659 
 685   0.0000       3.347434        91.0883 
 686   0.0000       3.373257        91.7910 
 687   0.0000       3.384900        92.1078 
 688   0.0000       3.389757        92.2400 
 689   0.0000       3.411932        92.8434 
 690   0.0000       3.420476        93.0759 
 691   0.0000       3.424194        93.1771 
 692   0.0000       3.436797        93.5200 
 693   0.0000       3.439146        93.5839 
 694   0.0000       3.448469        93.8376 
 695   0.0000       3.460714        94.1708 
 696   0.0000       3.469323        94.4051 
 697   0.0000       3.487943        94.9117 
 698   0.0000       3.490467        94.9804 
 699   0.0000       3.494210        95.0823 
 700   0.0000       3.504867        95.3723 
 701   0.0000       3.505813        95.3980 
 702   0.0000       3.532337        96.1198 
 703   0.0000       3.538403        96.2848 
 704   0.0000       3.542376        96.3930 
 705   0.0000       3.545064        96.4661 
 706   0.0000       3.558624        96.8351 
 707   0.0000       3.567203        97.0685 
 708   0.0000       3.569510        97.1313 
 709   0.0000       3.575252        97.2876 
 710   0.0000       3.587870        97.6309 
 711   0.0000       3.592271        97.7507 
 712   0.0000       3.603126        98.0460 
 713   0.0000       3.613658        98.3326 
 714   0.0000       3.622698        98.5786 
 715   0.0000       3.628196        98.7282 
 716   0.0000       3.637794        98.9894 
 717   0.0000       3.653201        99.4087 
 718   0.0000       3.659104        99.5693 
 719   0.0000       3.662541        99.6628 
 720   0.0000       3.672960        99.9463 
 721   0.0000       3.674480        99.9877 
 722   0.0000       3.688576       100.3712 
 723   0.0000       3.700026       100.6828 
 724   0.0000       3.701625       100.7263 
 725   0.0000       3.708221       100.9058 
 726   0.0000       3.715352       101.0999 
 727   0.0000       3.721338       101.2627 
 728   0.0000       3.730375       101.5087 
 729   0.0000       3.731649       101.5433 
 730   0.0000       3.743136       101.8559 
 731   0.0000       3.747861       101.9845 
 732   0.0000       3.750276       102.0502 
 733   0.0000       3.756637       102.2233 
 734   0.0000       3.768763       102.5533 
 735   0.0000       3.774406       102.7068 
 736   0.0000       3.787969       103.0759 
 737   0.0000       3.793051       103.2142 
 738   0.0000       3.802117       103.4609 
 739   0.0000       3.810061       103.6770 
 740   0.0000       3.816148       103.8427 
 741   0.0000       3.821556       103.9898 
 742   0.0000       3.831211       104.2526 
 743   0.0000       3.840540       104.5064 
 744   0.0000       3.845992       104.6548 
 745   0.0000       3.850436       104.7757 
 746   0.0000       3.858323       104.9903 
 747   0.0000       3.874720       105.4365 
 748   0.0000       3.877949       105.5244 
 749   0.0000       3.885575       105.7319 
 750   0.0000       3.892386       105.9172 
 751   0.0000       3.897091       106.0452 
 752   0.0000       3.904872       106.2570 
 753   0.0000       3.910802       106.4183 
 754   0.0000       3.918103       106.6170 
 755   0.0000       3.925304       106.8130 
 756   0.0000       3.939814       107.2078 
 757   0.0000       3.941910       107.2648 
 758   0.0000       3.948349       107.4400 
 759   0.0000       3.951302       107.5204 
 760   0.0000       3.957635       107.6927 
 761   0.0000       3.958754       107.7232 
 762   0.0000       3.973388       108.1214 
 763   0.0000       3.979047       108.2754 
 764   0.0000       3.982854       108.3790 
 765   0.0000       3.987201       108.4973 
 766   0.0000       3.991882       108.6246 
 767   0.0000       3.997897       108.7883 
 768   0.0000       4.014626       109.2435 
 769   0.0000       4.016988       109.3078 
 770   0.0000       4.019414       109.3738 
 771   0.0000       4.026169       109.5576 
 772   0.0000       4.036519       109.8393 
 773   0.0000       4.051963       110.2595 
 774   0.0000       4.066927       110.6667 
 775   0.0000       4.070422       110.7618 
 776   0.0000       4.073142       110.8358 
 777   0.0000       4.082394       111.0876 
 778   0.0000       4.084992       111.1583 
 779   0.0000       4.104075       111.6776 
 780   0.0000       4.108123       111.7877 
 781   0.0000       4.120702       112.1300 
 782   0.0000       4.125009       112.2472 
 783   0.0000       4.137897       112.5979 
 784   0.0000       4.140062       112.6568 
 785   0.0000       4.148153       112.8770 
 786   0.0000       4.155506       113.0771 
 787   0.0000       4.160843       113.2223 
 788   0.0000       4.172739       113.5460 
 789   0.0000       4.174257       113.5873 
 790   0.0000       4.180148       113.7476 
 791   0.0000       4.191465       114.0556 
 792   0.0000       4.199125       114.2640 
 793   0.0000       4.204570       114.4122 
 794   0.0000       4.215781       114.7172 
 795   0.0000       4.218131       114.7812 
 796   0.0000       4.228723       115.0694 
 797   0.0000       4.232117       115.1618 
 798   0.0000       4.241924       115.4286 
 799   0.0000       4.266062       116.0854 
 800   0.0000       4.269117       116.1686 
 801   0.0000       4.275146       116.3326 
 802   0.0000       4.285775       116.6219 
 803   0.0000       4.294671       116.8640 
 804   0.0000       4.301002       117.0362 
 805   0.0000       4.311888       117.3324 
 806   0.0000       4.312847       117.3585 
 807   0.0000       4.329905       117.8227 
 808   0.0000       4.338530       118.0574 
 809   0.0000       4.349342       118.3516 
 810   0.0000       4.361285       118.6766 
 811   0.0000       4.368705       118.8785 
 812   0.0000       4.376679       119.0955 
 813   0.0000       4.385344       119.3313 
 814   0.0000       4.392867       119.5360 
 815   0.0000       4.403235       119.8181 
 816   0.0000       4.417434       120.2045 
 817   0.0000       4.425481       120.4235 
 818   0.0000       4.432482       120.6140 
 819   0.0000       4.446540       120.9965 
 820   0.0000       4.451447       121.1300 
 821   0.0000       4.460341       121.3720 
 822   0.0000       4.467779       121.5744 
 823   0.0000       4.469832       121.6303 
 824   0.0000       4.487814       122.1196 
 825   0.0000       4.498665       122.4149 
 826   0.0000       4.508266       122.6762 
 827   0.0000       4.516646       122.9042 
 828   0.0000       4.523421       123.0885 
 829   0.0000       4.534443       123.3885 
 830   0.0000       4.546881       123.7269 
 831   0.0000       4.550733       123.8317 
 832   0.0000       4.563515       124.1796 
 833   0.0000       4.570957       124.3821 
 834   0.0000       4.575485       124.5053 
 835   0.0000       4.591550       124.9424 
 836   0.0000       4.601753       125.2201 
 837   0.0000       4.620946       125.7423 
 838   0.0000       4.630228       125.9949 
 839   0.0000       4.639569       126.2491 
 840   0.0000       4.648264       126.4857 
 841   0.0000       4.654706       126.6610 
 842   0.0000       4.667888       127.0197 
 843   0.0000       4.682826       127.4262 
 844   0.0000       4.686321       127.5213 
 845   0.0000       4.704143       128.0062 
 846   0.0000       4.712722       128.2397 
 847   0.0000       4.724235       128.5530 
 848   0.0000       4.732822       128.7866 
 849   0.0000       4.749067       129.2287 
 850   0.0000       4.757524       129.4588 
 851   0.0000       4.770549       129.8132 
 852   0.0000       4.779279       130.0508 
 853   0.0000       4.791771       130.3907 
 854   0.0000       4.797624       130.5500 
 855   0.0000       4.819964       131.1579 
 856   0.0000       4.835005       131.5672 
 857   0.0000       4.842776       131.7786 
 858   0.0000       4.852511       132.0435 
 859   0.0000       4.858805       132.2148 
 860   0.0000       4.873136       132.6048 
 861   0.0000       4.882702       132.8651 
 862   0.0000       4.902975       133.4167 
 863   0.0000       4.908253       133.5603 
 864   0.0000       4.917116       133.8015 
 865   0.0000       4.930876       134.1760 
 866   0.0000       4.943125       134.5093 
 867   0.0000       4.951698       134.7425 
 868   0.0000       4.964910       135.1021 
 869   0.0000       4.973187       135.3273 
 870   0.0000       4.988815       135.7526 
 871   0.0000       4.995486       135.9341 
 872   0.0000       5.002180       136.1162 
 873   0.0000       5.016706       136.5115 
 874   0.0000       5.024864       136.7335 
 875   0.0000       5.029799       136.8678 
 876   0.0000       5.049005       137.3904 
 877   0.0000       5.066202       137.8584 
 878   0.0000       5.075206       138.1034 
 879   0.0000       5.080515       138.2479 
 880   0.0000       5.086304       138.4054 
 881   0.0000       5.115577       139.2019 
 882   0.0000       5.122758       139.3973 
 883   0.0000       5.138485       139.8253 
 884   0.0000       5.139793       139.8609 
 885   0.0000       5.149314       140.1199 
 886   0.0000       5.166485       140.5872 
 887   0.0000       5.176454       140.8585 
 888   0.0000       5.201764       141.5472 
 889   0.0000       5.205487       141.6485 
 890   0.0000       5.215440       141.9193 
 891   0.0000       5.229734       142.3083 
 892   0.0000       5.237875       142.5298 
 893   0.0000       5.260878       143.1558 
 894   0.0000       5.281091       143.7058 
 895   0.0000       5.284485       143.7982 
 896   0.0000       5.293538       144.0445 
 897   0.0000       5.314268       144.6086 
 898   0.0000       5.326996       144.9549 
 899   0.0000       5.337125       145.2306 
 900   0.0000       5.348336       145.5356 
 901   0.0000       5.362509       145.9213 
 902   0.0000       5.369805       146.1198 
 903   0.0000       5.383920       146.5039 
 904   0.0000       5.392434       146.7356 
 905   0.0000       5.410054       147.2151 
 906   0.0000       5.419229       147.4647 
 907   0.0000       5.422561       147.5554 
 908   0.0000       5.449269       148.2821 
 909   0.0000       5.455094       148.4407 
 910   0.0000       5.462977       148.6552 
 911   0.0000       5.472408       148.9118 
 912   0.0000       5.487206       149.3145 
 913   0.0000       5.493880       149.4961 
 914   0.0000       5.514251       150.0504 
 915   0.0000       5.531558       150.5214 
 916   0.0000       5.538993       150.7237 
 917   0.0000       5.553162       151.1092 
 918   0.0000       5.563340       151.3862 
 919   0.0000       5.578695       151.8040 
 920   0.0000       5.592565       152.1814 
 921   0.0000       5.602025       152.4389 
 922   0.0000       5.613701       152.7566 
 923   0.0000       5.626843       153.1142 
 924   0.0000       5.635558       153.3513 
 925   0.0000       5.646592       153.6516 
 926   0.0000       5.664221       154.1313 
 927   0.0000       5.670794       154.3101 
 928   0.0000       5.676479       154.4649 
 929   0.0000       5.685751       154.7172 
 930   0.0000       5.696528       155.0104 
 931   0.0000       5.709152       155.3539 
 932   0.0000       5.721646       155.6939 
 933   0.0000       5.735889       156.0815 
 934   0.0000       5.745077       156.3315 
 935   0.0000       5.758664       156.7012 
 936   0.0000       5.770119       157.0129 
 937   0.0000       5.793625       157.6525 
 938   0.0000       5.813081       158.1820 
 939   0.0000       5.821432       158.4092 
 940   0.0000       5.836870       158.8293 
 941   0.0000       5.875785       159.8882 
 942   0.0000       5.884420       160.1232 
 943   0.0000       5.919933       161.0896 
 944   0.0000       5.945069       161.7735 
 945   0.0000       5.980177       162.7289 
 946   0.0000       6.022152       163.8711 
 947   0.0000       6.087274       165.6432 
 948   0.0000       6.104637       166.1156 
 949   0.0000       6.123857       166.6386 
 950   0.0000       6.160059       167.6237 
 951   0.0000       6.168375       167.8500 
 952   0.0000       6.178260       168.1190 
 953   0.0000       6.200347       168.7200 
 954   0.0000       6.215607       169.1353 
 955   0.0000       6.231441       169.5661 
 956   0.0000       6.233835       169.6313 
 957   0.0000       6.263884       170.4490 
 958   0.0000       6.267797       170.5554 
 959   0.0000       6.283138       170.9729 
 960   0.0000       6.301375       171.4691 
 961   0.0000       6.310166       171.7083 
 962   0.0000       6.328646       172.2112 
 963   0.0000       6.355472       172.9412 
 964   0.0000       6.365662       173.2185 
 965   0.0000       6.392727       173.9550 
 966   0.0000       6.417024       174.6161 
 967   0.0000       6.433984       175.0776 
 968   0.0000       6.505387       177.0206 
 969   0.0000       6.542684       178.0355 
 970   0.0000       6.629310       180.3927 
 971   0.0000       6.630550       180.4264 
 972   0.0000       6.816382       185.4832 
 973   0.0000       6.853900       186.5041 
 974   0.0000       6.863790       186.7732 
 975   0.0000       6.892156       187.5451 
 976   0.0000       6.905710       187.9139 
 977   0.0000       6.947294       189.0455 
 978   0.0000       6.962368       189.4557 
 979   0.0000       6.984430       190.0560 
 980   0.0000       7.002379       190.5444 
 981   0.0000       7.019274       191.0041 
 982   0.0000       7.050509       191.8541 
 983   0.0000       7.058315       192.0665 
 984   0.0000       7.107818       193.4136 
 985   0.0000       7.130781       194.0384 
 986   0.0000       7.284943       198.2334 
 987   0.0000       7.330604       199.4759 
 988   0.0000       7.384099       200.9316 
 989   0.0000       7.421631       201.9528 
 990   0.0000       7.533169       204.9880 
 991   0.0000       7.615585       207.2306 
 992   0.0000       7.653530       208.2631 
 993   0.0000       7.677445       208.9139 
 994   0.0000       7.780631       211.7217 
 995   0.0000       7.853242       213.6976 
 996   0.0000       7.952289       216.3928 
 997   0.0000       8.019456       218.2205 
 998   0.0000       8.249282       224.4744 
 999   0.0000       9.406539       255.9649 
 1000   0.0000       9.419041       256.3051 
 1001   0.0000       9.437813       256.8159 
 1002   0.0000       9.452539       257.2167 
 1003   0.0000       9.462442       257.4861 
 1004   0.0000       9.483481       258.0586 
 1005   0.0000       9.654254       262.7056 
 1006   0.0000      10.085700       274.4458 
 1007   0.0000      10.093974       274.6710 
 1008   0.0000      10.105754       274.9916 
 1009   0.0000      10.198940       277.5273 
 1010   0.0000      10.209572       277.8166 
 1011   0.0000      10.244210       278.7591 
 1012   0.0000      10.335700       281.2487 
 1013   0.0000      10.382034       282.5095 
 1014   0.0000      10.464854       284.7632 
 1015   0.0000      12.638318       343.9061 
 1016   0.0000      16.943266       461.0497 
 1017   0.0000      17.662378       480.6177 
 1018   0.0000      18.126816       493.2557 
 1019   0.0000      18.456634       502.2306 
 1020   0.0000      18.632003       507.0026 
 1021   0.0000      18.781757       511.0776 
 1022   0.0000      20.498281       557.7866 
 1023   0.0000      21.338792       580.6581 
 1024   0.0000      21.818732       593.7179 

                 SPIN DOWN ORBITALS
  NO   OCC          E(Eh)            E(eV) 
   0   1.0000    -261.570540     -7117.6963 
   1   1.0000    -104.790536     -2851.4955 
   2   1.0000    -104.787905     -2851.4239 
   3   1.0000    -104.786532     -2851.3865 
   4   1.0000     -32.079829      -872.9365 
   5   1.0000     -27.557754      -749.8846 
   6   1.0000     -27.557682      -749.8826 
   7   1.0000     -27.557541      -749.8788 
   8   1.0000     -20.607727      -560.7648 
   9   1.0000     -11.421730      -310.8011 
  10   1.0000     -11.276499      -306.8491 
  11   1.0000     -11.274645      -306.7987 
  12   1.0000     -11.270737      -306.6924 
  13   1.0000     -11.246151      -306.0233 
  14   1.0000     -11.243027      -305.9383 
  15   1.0000     -11.242556      -305.9255 
  16   1.0000     -11.232593      -305.6544 
  17   1.0000     -10.517136      -286.1858 
  18   1.0000     -10.514468      -286.1132 
  19   1.0000     -10.513052      -286.0747 
  20   1.0000      -7.983052      -217.2299 
  21   1.0000      -7.982331      -217.2103 
  22   1.0000      -7.982282      -217.2089 
  23   1.0000      -7.980337      -217.1560 
  24   1.0000      -7.979687      -217.1383 
  25   1.0000      -7.979589      -217.1357 
  26   1.0000      -7.979043      -217.1208 
  27   1.0000      -7.978166      -217.0969 
  28   1.0000      -7.978086      -217.0947 
  29   1.0000      -4.154612      -113.0527 
  30   1.0000      -2.676172       -72.8223 
  31   1.0000      -2.676130       -72.8212 
  32   1.0000      -2.675679       -72.8089 
  33   1.0000      -1.450572       -39.4721 
  34   1.0000      -1.131185       -30.7811 
  35   1.0000      -1.097798       -29.8726 
  36   1.0000      -1.049700       -28.5638 
  37   1.0000      -1.037230       -28.2245 
  38   1.0000      -1.034786       -28.1580 
  39   1.0000      -1.023088       -27.8397 
  40   1.0000      -1.009649       -27.4740 
  41   1.0000      -0.961630       -26.1673 
  42   1.0000      -0.900909       -24.5150 
  43   1.0000      -0.823999       -22.4221 
  44   1.0000      -0.733075       -19.9480 
  45   1.0000      -0.711952       -19.3732 
  46   1.0000      -0.700097       -19.0506 
  47   1.0000      -0.687317       -18.7029 
  48   1.0000      -0.658338       -17.9143 
  49   1.0000      -0.624814       -17.0020 
  50   1.0000      -0.620830       -16.8936 
  51   1.0000      -0.603158       -16.4128 
  52   1.0000      -0.600357       -16.3365 
  53   1.0000      -0.585004       -15.9188 
  54   1.0000      -0.578178       -15.7330 
  55   1.0000      -0.559567       -15.2266 
  56   1.0000      -0.554765       -15.0959 
  57   1.0000      -0.550117       -14.9695 
  58   1.0000      -0.541589       -14.7374 
  59   1.0000      -0.530270       -14.4294 
  60   1.0000      -0.520899       -14.1744 
  61   1.0000      -0.501954       -13.6589 
  62   1.0000      -0.496551       -13.5118 
  63   1.0000      -0.483615       -13.1598 
  64   1.0000      -0.481741       -13.1088 
  65   1.0000      -0.452591       -12.3156 
  66   1.0000      -0.449531       -12.2324 
  67   1.0000      -0.446830       -12.1589 
  68   1.0000      -0.430591       -11.7170 
  69   1.0000      -0.428254       -11.6534 
  70   1.0000      -0.412377       -11.2213 
  71   1.0000      -0.360371        -9.8062 
  72   0.0000       0.012717         0.3460 
  73   0.0000       0.023518         0.6399 
  74   0.0000       0.024032         0.6540 
  75   0.0000       0.030481         0.8294 
  76   0.0000       0.039263         1.0684 
  77   0.0000       0.041073         1.1176 
  78   0.0000       0.042692         1.1617 
  79   0.0000       0.043310         1.1785 
  80   0.0000       0.043900         1.1946 
  81   0.0000       0.054550         1.4844 
  82   0.0000       0.056284         1.5316 
  83   0.0000       0.060508         1.6465 
  84   0.0000       0.063749         1.7347 
  85   0.0000       0.065790         1.7902 
  86   0.0000       0.066339         1.8052 
  87   0.0000       0.072493         1.9726 
  88   0.0000       0.075698         2.0598 
  89   0.0000       0.080042         2.1781 
  90   0.0000       0.091049         2.4776 
  91   0.0000       0.092180         2.5083 
  92   0.0000       0.092894         2.5278 
  93   0.0000       0.097883         2.6635 
  94   0.0000       0.101563         2.7637 
  95   0.0000       0.103511         2.8167 
  96   0.0000       0.104511         2.8439 
  97   0.0000       0.106650         2.9021 
  98   0.0000       0.107768         2.9325 
  99   0.0000       0.110865         3.0168 
 100   0.0000       0.112697         3.0666 
 101   0.0000       0.114524         3.1163 
 102   0.0000       0.118614         3.2277 
 103   0.0000       0.122906         3.3444 
 104   0.0000       0.123947         3.3728 
 105   0.0000       0.126293         3.4366 
 106   0.0000       0.128351         3.4926 
 107   0.0000       0.131051         3.5661 
 108   0.0000       0.131150         3.5688 
 109   0.0000       0.135717         3.6930 
 110   0.0000       0.137141         3.7318 
 111   0.0000       0.139959         3.8085 
 112   0.0000       0.143817         3.9134 
 113   0.0000       0.146466         3.9856 
 114   0.0000       0.150847         4.1048 
 115   0.0000       0.152637         4.1535 
 116   0.0000       0.157169         4.2768 
 117   0.0000       0.160086         4.3562 
 118   0.0000       0.163573         4.4511 
 119   0.0000       0.166564         4.5324 
 120   0.0000       0.169538         4.6134 
 121   0.0000       0.173966         4.7338 
 122   0.0000       0.176127         4.7927 
 123   0.0000       0.178288         4.8515 
 124   0.0000       0.182210         4.9582 
 125   0.0000       0.187193         5.0938 
 126   0.0000       0.189149         5.1470 
 127   0.0000       0.190537         5.1848 
 128   0.0000       0.197925         5.3858 
 129   0.0000       0.200613         5.4590 
 130   0.0000       0.202578         5.5124 
 131   0.0000       0.203857         5.5472 
 132   0.0000       0.207410         5.6439 
 133   0.0000       0.209038         5.6882 
 134   0.0000       0.216164         5.8821 
 135   0.0000       0.217525         5.9192 
 136   0.0000       0.220349         5.9960 
 137   0.0000       0.224672         6.1136 
 138   0.0000       0.229242         6.2380 
 139   0.0000       0.232120         6.3163 
 140   0.0000       0.238379         6.4866 
 141   0.0000       0.241120         6.5612 
 142   0.0000       0.244124         6.6430 
 143   0.0000       0.245605         6.6832 
 144   0.0000       0.250213         6.8086 
 145   0.0000       0.252700         6.8763 
 146   0.0000       0.256404         6.9771 
 147   0.0000       0.258252         7.0274 
 148   0.0000       0.263098         7.1593 
 149   0.0000       0.265444         7.2231 
 150   0.0000       0.272699         7.4205 
 151   0.0000       0.275866         7.5067 
 152   0.0000       0.278405         7.5758 
 153   0.0000       0.281186         7.6515 
 154   0.0000       0.288638         7.8542 
 155   0.0000       0.292923         7.9708 
 156   0.0000       0.295152         8.0315 
 157   0.0000       0.299022         8.1368 
 158   0.0000       0.302517         8.2319 
 159   0.0000       0.308630         8.3983 
 160   0.0000       0.310882         8.4595 
 161   0.0000       0.319087         8.6828 
 162   0.0000       0.320589         8.7237 
 163   0.0000       0.323387         8.7998 
 164   0.0000       0.329771         8.9735 
 165   0.0000       0.333701         9.0805 
 166   0.0000       0.337004         9.1704 
 167   0.0000       0.341103         9.2819 
 168   0.0000       0.344475         9.3737 
 169   0.0000       0.346841         9.4380 
 170   0.0000       0.350169         9.5286 
 171   0.0000       0.356630         9.7044 
 172   0.0000       0.359557         9.7840 
 173   0.0000       0.362262         9.8576 
 174   0.0000       0.363162         9.8822 
 175   0.0000       0.366276         9.9669 
 176   0.0000       0.367757        10.0072 
 177   0.0000       0.375856        10.2276 
 178   0.0000       0.379768        10.3340 
 179   0.0000       0.381898        10.3920 
 180   0.0000       0.384495        10.4626 
 181   0.0000       0.387221        10.5368 
 182   0.0000       0.391697        10.6586 
 183   0.0000       0.394019        10.7218 
 184   0.0000       0.394968        10.7476 
 185   0.0000       0.397420        10.8143 
 186   0.0000       0.404373        11.0035 
 187   0.0000       0.405756        11.0412 
 188   0.0000       0.408052        11.1037 
 189   0.0000       0.409888        11.1536 
 190   0.0000       0.413204        11.2439 
 191   0.0000       0.415589        11.3087 
 192   0.0000       0.418783        11.3957 
 193   0.0000       0.427774        11.6403 
 194   0.0000       0.432560        11.7705 
 195   0.0000       0.436121        11.8675 
 196   0.0000       0.437081        11.8936 
 197   0.0000       0.443710        12.0740 
 198   0.0000       0.448125        12.1941 
 199   0.0000       0.451557        12.2875 
 200   0.0000       0.454084        12.3563 
 201   0.0000       0.458061        12.4645 
 202   0.0000       0.459698        12.5090 
 203   0.0000       0.465933        12.6787 
 204   0.0000       0.468014        12.7353 
 205   0.0000       0.473538        12.8856 
 206   0.0000       0.473982        12.8977 
 207   0.0000       0.478651        13.0248 
 208   0.0000       0.479215        13.0401 
 209   0.0000       0.483851        13.1662 
 210   0.0000       0.488268        13.2864 
 211   0.0000       0.489279        13.3140 
 212   0.0000       0.495658        13.4875 
 213   0.0000       0.498211        13.5570 
 214   0.0000       0.500111        13.6087 
 215   0.0000       0.505889        13.7659 
 216   0.0000       0.507255        13.8031 
 217   0.0000       0.509272        13.8580 
 218   0.0000       0.514407        13.9977 
 219   0.0000       0.516859        14.0645 
 220   0.0000       0.520277        14.1575 
 221   0.0000       0.521407        14.1882 
 222   0.0000       0.523902        14.2561 
 223   0.0000       0.526868        14.3368 
 224   0.0000       0.532391        14.4871 
 225   0.0000       0.535254        14.5650 
 226   0.0000       0.536824        14.6077 
 227   0.0000       0.540453        14.7065 
 228   0.0000       0.543099        14.7785 
 229   0.0000       0.545837        14.8530 
 230   0.0000       0.551859        15.0169 
 231   0.0000       0.552342        15.0300 
 232   0.0000       0.560495        15.2518 
 233   0.0000       0.562054        15.2943 
 234   0.0000       0.567579        15.4446 
 235   0.0000       0.570066        15.5123 
 236   0.0000       0.572506        15.5787 
 237   0.0000       0.576492        15.6872 
 238   0.0000       0.580374        15.7928 
 239   0.0000       0.580886        15.8067 
 240   0.0000       0.586169        15.9505 
 241   0.0000       0.592611        16.1258 
 242   0.0000       0.597988        16.2721 
 243   0.0000       0.600712        16.3462 
 244   0.0000       0.602186        16.3863 
 245   0.0000       0.608239        16.5510 
 246   0.0000       0.612584        16.6692 
 247   0.0000       0.615858        16.7583 
 248   0.0000       0.621046        16.8995 
 249   0.0000       0.622323        16.9343 
 250   0.0000       0.625969        17.0335 
 251   0.0000       0.629568        17.1314 
 252   0.0000       0.638803        17.3827 
 253   0.0000       0.639955        17.4141 
 254   0.0000       0.640976        17.4418 
 255   0.0000       0.646691        17.5974 
 256   0.0000       0.651441        17.7266 
 257   0.0000       0.654265        17.8034 
 258   0.0000       0.655906        17.8481 
 259   0.0000       0.656344        17.8600 
 260   0.0000       0.663143        18.0450 
 261   0.0000       0.664045        18.0696 
 262   0.0000       0.670077        18.2337 
 263   0.0000       0.675043        18.3689 
 264   0.0000       0.677245        18.4288 
 265   0.0000       0.682769        18.5791 
 266   0.0000       0.687298        18.7023 
 267   0.0000       0.688110        18.7244 
 268   0.0000       0.691701        18.8221 
 269   0.0000       0.702706        19.1216 
 270   0.0000       0.705952        19.2099 
 271   0.0000       0.710951        19.3460 
 272   0.0000       0.716902        19.5079 
 273   0.0000       0.722826        19.6691 
 274   0.0000       0.723557        19.6890 
 275   0.0000       0.727175        19.7874 
 276   0.0000       0.731700        19.9106 
 277   0.0000       0.737952        20.0807 
 278   0.0000       0.740383        20.1468 
 279   0.0000       0.744865        20.2688 
 280   0.0000       0.750053        20.4100 
 281   0.0000       0.755103        20.5474 
 282   0.0000       0.759089        20.6559 
 283   0.0000       0.763204        20.7678 
[...]
  | sigma^2 in % of trace(Dij) retained ...   9.05e+00
  | sigma^2 in % of trace(Dip) retained ...   1.94e+01
  | sigma^2 in % of trace(Dpq) retained ...   1.38e-01
  | Av. % of trace(Di) retained         ...  99.998557656269
  | Av. % of trace(Dp) retained         ...  99.999997889124
  | sigma^2 in % of trace(Di) retained  ...   6.94e-07
  | sigma^2 in % of trace(Dp) retained  ...   5.43e-12
 Distributions of % trace(Dij) recovered:
  |       >= 99.9  ...   105 ( 21.6 % of all IJ-pairs)
  |   [80.0, 90.0) ...    23 (  4.7 % of all IJ-pairs)
  |   [90.0, 99.0) ...   272 ( 56.0 % of all IJ-pairs)
  |   [99.0, 99.9) ...    86 ( 17.7 % of all IJ-pairs)
 Distributions of % trace(Dip) recovered:
  |   [70.0, 80.0) ...     1 (  0.9 % of all IP-pairs)
  |   [80.0, 90.0) ...    14 ( 12.2 % of all IP-pairs)
  |   [90.0, 99.0) ...    55 ( 47.8 % of all IP-pairs)
  |   [99.0, 99.9) ...    45 ( 39.1 % of all IP-pairs)
 Distributions of % trace(Dpq) recovered:
  |       >= 99.9  ...     5 ( 33.3 % of all PQ-pairs)
  |   [99.0, 99.9) ...    10 ( 66.7 % of all PQ-pairs)
 Distributions of % trace(Di) recovered :
  |       >= 99.9  ...    43 (100.0 % of all I-pairs )
 Distributions of % trace(Dp) recovered :
  |       >= 99.9  ...     5 (100.0 % of all P-pairs )

                       ===========================
                       1069 OF 1701 PAIRS ARE KEPT
                       ===========================

 Initial PAO correlation energy (all pairs)    ...  -2.6861392799 Eh
 Energy constituents in PAO basis (Eh):
  | Vijab(+0) ...  -2.2585507945
  | Viab (-1) ...  -0.1743300216
  | Vab  (-2) ...  -0.0573375085
  | Va   (-1) ...  -0.0000448714
  | Vija (+1) ...  -0.0716200504
  | Vij  (+2) ...  -0.0155395942
  | Via  (+0) ...  -0.1085532001
  | Vi   (+1) ...  -0.0001632392
 Initial PNO correlation energy                ...  -2.6512670123 Eh
 Energy constituents in PNO basis (Eh):
  | Vijab(+0) ...  -2.2394424209 (err=  0.0191083737)
  | Viab (-1) ...  -0.1602134408 (err=  0.0141165808)
  | Vab  (-2) ...  -0.0568819380 (err=  0.0004555705)
  | Va   (-1) ...  -0.0000260147 (err=  0.0000188567)
  | Vija (+1) ...  -0.0706433436 (err=  0.0009767068)
  | Vij  (+2) ...  -0.0154836736 (err=  0.0000559206)
  | Via  (+0) ...  -0.1084136628 (err=  0.0001395373)
  | Vi   (+1) ...  -0.0001625178 (err=  0.0000007213)
 Sum of total truncation errors ...   0.0348722676 Eh
  | Pair screening ...   0.0123741800 Eh
  | PNO truncation ...   0.0224980876 Eh

 UMP2 correlation energy (PAO) ...  -2.6810949412
  | alpha-alpha ...  -0.3848094932 (NP_aa=  915)
  | alpha-beta  ...  -1.9910451288 (NP_ab= 1676)
  | beta -beta  ...  -0.3052403191 (NP_bb=  728)
 UMP2 correlation energy (PNO) ...  -2.6458658294
  | alpha-alpha ...  -0.3726347088 (err=  0.0121747844, NP_aa=  568)
  | alpha-beta  ...  -1.9722080338 (err=  0.0188370951, NP_ab= 1044)
  | beta -beta  ...  -0.3010230868 (err=  0.0042172324, NP_bb=  443)
 Sum of total UMP2 truncation errors ...   0.0352291118 Eh
  | Pair screening ...   0.0123741199 Eh
  | PNO truncation ...   0.0228549920 Eh
 Timing for NEV-PNO construction (sec.)
  | Intermediate construction  ..           44.886
  | Amplitude construction     ..           63.808
  | Total time                 ..          108.694
 Making pair pair interaction lists ...      ok
 Total size for 2-ext PNO integrals ...     10.7 MB
Checking the number of SOMO/SOMO doubles PNOs ... 
 #Truncate: (72, 72)[171] -> [85] .. 
 #Truncate: (73, 73)[173] -> [85] .. 
 #Truncate: (74, 74)[171] -> [85] .. 
 #Truncate: (75, 75)[172] -> [85] .. 
 #Truncate: (76, 76)[171] -> [85] .. 

--------------------------------
LOCAL RI TRANSFORMATION (VABPAO)
--------------------------------

Number of PAOs:    1030
Basis functions:   1025 (343 shells)
Aux. functions:    2424 (644 shells)

Processing maps (0.0 sec)
Average map sizes:
   Aux shells -> PAOs           1030.0
   PAOs       -> AO shells       343.0

Calculating integrals (197.0 sec, 37370.165 MB)
Finished
-----------------------------
LOCAL RI TRANSFORMATION (IJV)
-----------------------------

Orbital window:      29 to 76
Basis functions:   1025 (343 shells)
Aux. functions:    2424 (644 shells)

Processing maps (0.0 sec)
Average map sizes:
   Aux shells -> MOs(i)           46.3
   Aux shells -> MOs(j)           48.0
   MOs        -> AO shells       339.9

Calculating integrals (24.0 sec, 41.270 MB)
Sorting integrals (0.3 sec, 41.242 MB)
Total time for the integral transformation: 24.3 sec


-------------------------------------
Pair Pair Term precalculation with     
RI-(ij|mn) and (im|jn) transformation  
ON THE FLY                             
-------------------------------------

   IBatch   1 (of   2)              ... done ( 1303.237 sec)
   IBatch   2 (of   2)              ... done (  998.754 sec)
Total EXT                           ...        2301.991 sec

---------------------
RI-PNO TRANSFORMATION
---------------------

Total Number of PNOs                   ... 33334
Total Number of IJ-PNOs                ... 29228
Total Number of IP-PNOs                ...  3153
Total Number of PQ-PNOs                ...   953
Total Number of IJ-pairs               ...   929
Total Number of PI-pairs               ...   115
Total Number of PQ-pairs               ...    25
Average number of PNOs per pair        ...    31
Maximal number of PNOs per pair        ...    85
>> Statistics for ij-pairs..
   #pairs with  1 -  5 PNOs   :    0
   #pairs with  6 - 10 PNOs   :    0
   #pairs with 11 - 15 PNOs   :   86
   #pairs with 16 - 20 PNOs   :  198
   #pairs with 21 - 25 PNOs   :  156
   #pairs with 26 - 30 PNOs   :  136
   #pairs with 31 - 35 PNOs   :   64
   #pairs with 36 - 40 PNOs   :   52
   #pairs with 41 - 45 PNOs   :   50
   #pairs with 46 - 50 PNOs   :   20
   #pairs with 51 - 55 PNOs   :   33
   #pairs with 56 - 60 PNOs   :   56
   #pairs with 61 - 65 PNOs   :   73
   #pairs with 66 - 70 PNOs   :    3
   #pairs with 81 - 85 PNOs   :    2
>> Statistics for ip-pairs..
   #pairs with  1 -  5 PNOs   :    0
   #pairs with  6 - 10 PNOs   :    2
   #pairs with 11 - 15 PNOs   :   13
   #pairs with 16 - 20 PNOs   :    8
   #pairs with 21 - 25 PNOs   :   24
   #pairs with 26 - 30 PNOs   :   10
   #pairs with 31 - 35 PNOs   :   45
   #pairs with 36 - 40 PNOs   :   12
   #pairs with 41 - 45 PNOs   :    1
   #pairs with 46 - 50 PNOs   :    0
>> Statistics for pq-pairs..
   #pairs with  1 -  5 PNOs   :    0
   #pairs with  6 - 10 PNOs   :    0
   #pairs with 11 - 15 PNOs   :    0
   #pairs with 16 - 20 PNOs   :    0
   #pairs with 21 - 25 PNOs   :   10
   #pairs with 26 - 30 PNOs   :   10
   #pairs with 31 - 35 PNOs   :    0
   #pairs with 36 - 40 PNOs   :    0
   #pairs with 41 - 45 PNOs   :    0
   #pairs with 46 - 50 PNOs   :    0
   #pairs with 81 - 85 PNOs   :    5

Generation of (ij|ab)[P] integrals            ... on
Generation of (ia|bc)[P],(ja|bc)[P] integrals ... on
Storage of 3 and 4 external integrals         ... on
Generation of ALL (ka|bc)[P] integrals        ... on
Keep RI integrals in memory                   ... off

Ibatch:  1 (of  1)
Starting 2-4 index PNO integral generation ... done

Timings:
Total PNO integral transformation time     ...       2181.492 sec
Size of the 3-external file                ...       280 MB
Size of the 4-external file                ...      1907 MB
Size of the IKJL file                      ...        17 MB
Size of the all 3-external file            ...      6742 MB
Size of the 1-external file                ...        21 MB

Size of the PAO/PNO coefficient matrices   ...     212.3 MB

Making pair/pair overlap matrices          ... done (  350.439 sec)
Size of the pair overlap file              ...    2324.0 MB
Total # unrestricted pairs ...       2055
  # of alpha-alpha pairs   ...        568
  # of alpha-beta pairs    ...       1044
  # of beta-beta pairs     ...        443
Constructing the guess amplitudes          ... done (    0.692 sec)

-------------------------
FINAL STARTUP INFORMATION
-------------------------

E(0)                                       ...  -3028.455361845
E(SL-UMP2 in NEV-PNO space)                ...     -2.682002984
Initial E(tot)                             ...  -3031.137364830
<T|T>                                      ...      0.532844932
Number of unrestricted pairs included      ... 2055
Total number of pairs                      ... 4095
----------------------------------------------------------
                     OPEN-SHELL COUPLED CLUSTER ITERATIONS
----------------------------------------------------------

Number of PNO amplitudes to be optimized        ...          2052076
Number of canonical amplitudes for strong pairs ...       1856082478
Untruncated number of canonical amplitudes      ...       3698645738

Iter       E(tot)           E(Corr)          Delta-E          Residual     Time
  0  -3031.144560948     -2.653061948      0.028941037      0.021217191 1774.88
                           *** Turning on DIIS ***
  1  -3031.259918932     -2.768419932     -0.115357984      0.010063953 1787.77
  2  -3031.324717466     -2.833218466     -0.064798534      0.008484005 1786.80
  3  -3031.346560485     -2.855061484     -0.021843019      0.003268475 1805.47
  4  -3031.354124932     -2.862625932     -0.007564447      0.002653069 1805.18
  5  -3031.358267289     -2.866768289     -0.004142357      0.001513721 1542.78
  6  -3031.359795909     -2.868296908     -0.001528620      0.000770818 1531.03
  7  -3031.360446616     -2.868947616     -0.000650708      0.000495135 1534.27
  8  -3031.360590362     -2.869091362     -0.000143746      0.000236655 1542.85
  9  -3031.360650091     -2.869151091     -0.000059729      0.000137542 1542.05
 10  -3031.360650078     -2.869151077      0.000000013      0.000095236 1536.74
 11  -3031.360662750     -2.869163749     -0.000012672      0.000057192 1560.08
 12  -3031.360668071     -2.869169070     -0.000005321      0.000032300 1584.58
 13  -3031.360670544     -2.869171544     -0.000002473      0.000017183 1587.63
 14  -3031.360672267     -2.869173267     -0.000001723      0.000009575 1583.86
               --- The CCSD iterations have converged ---

E(0)                                       ...  -3028.455361845
E(CORR)(strong-pairs)                      ...     -2.869173267
E(CORR)(weak-pairs)                        ...     -0.036137155
E(CORR)(corrected)                         ...     -2.905310422
E(TOT)                                     ...  -3031.360672267
Singles norm <S|S>**1/2                    ...      0.195068798 ( 0.064774072, 0.130294726)  
T1 diagnostic                              ...      0.020448766                              
<S**2>(linearized)                         ...      8.7508394 (ideal value:      8.7500000)

----------------------
LARGEST PNO AMPLITUDES
----------------------
  46a-> 78a  46b-> 78b       0.061280
  52b-> 76b  -1b-> -1b       0.055014
  49b-> 72b  -1b-> -1b       0.054190
  51b-> 76b  -1b-> -1b       0.053691
  49b-> 75b  -1b-> -1b       0.046842
  49b-> 74b  -1b-> -1b       0.046367
  47a-> 78a  47b-> 78b       0.045578
  42b-> 73b  -1b-> -1b       0.045554
  56a-> 77a  56b-> 77b       0.045046
  55a-> 77a  55b-> 77b       0.044518
  70a-> 77a  70b-> 77b       0.044374
  38b-> 73b  -1b-> -1b       0.044238
  43a-> 77a  43b-> 77b       0.043457
  36b-> 72b  -1b-> -1b       0.043361
  64a-> 77a  64b-> 77b       0.043329
  62a-> 77a  62b-> 77b       0.043204

Total # unrestricted pairs ...       1264
  # of alpha-alpha pairs   ...        347
  # of alpha-beta pairs    ...        632
  # of beta-beta pairs     ...        285

-------------------------------------------
DLPNO BASED TRIPLES CORRECTION
-------------------------------------------

Singles multiplier          ...  1.000000
Fragment selection                          .... not used
TCutTNO                     ... 1.000e-09
TCutMP2Pairs                ... 1.000e-05
TCutDOStrong                ... 2.000e-02
TCutMKNStrong               ... 1.000e-02
TCutDOWeak                  ... 4.000e-02
TCutMKNWeak                 ... 1.000e-01
NTCutTNO                    ... 1

Number of Triples that are to be computed         ...     32718

 . . . . . . . . .
10% done  
20% done  
30% done  
40% done  
50% done  
60% done  
70% done  
80% done  
90% done  
          Batch   1   done (  12775.697 sec)

Triples-Correction TCutTNO=   1.000e-09 (NWeakPairs = 0  1  2  3)  -0.116488848979   -0.001891426233    0.000000000000    0.000000000000
Triples-Correction  -0.118380275212

Triples timings:
Total time                      ... 13324.864 sec

Triples List generation         ...     0.000 sec
TNO generation                  ...   548.930 sec
Pair density generation         ...     0.083 sec
Look up tables                  ...     0.105 sec
Generating 3-index integrals    ...  7606.718 sec
Make 4-ind.int. from 3-ind.int  ...     3.091 sec
Projecting amplitudes (D + S)   ...  4940.803 sec
Sorting integrals for spin cases...    47.109 sec
Calculate W0/W1                 ...   144.115 sec
Energy contr. (sum over a,b,c)  ...    33.738 sec

Everything after 3-index        ...  5277.675 sec

Energy contribution AAA         ...    21.601 sec
Energy contribution AAB         ...    99.856 sec
Energy contribution ABB         ...    91.358 sec
Energy contribution BBB         ...    12.181 sec
prep                ...     2.902 sec
makeTTNO            ...  4890.296 sec
copyij              ...     0.116 sec
copyil              ...     3.743 sec
transposeij         ...     0.071 sec
newMatInDoubleProj  ...    47.968 sec
BlasInDoubleProj    ...  2631.695 sec
ProjSingles         ...    41.411 sec
ProjDoubles         ...  4899.392 sec
overall Doubles for projection      ... 2943952
used Doubles for projection         ... 2943952


Number of Triples   (0, 1, 2, 3 weak pairs; overall):  15057   12011       0       0  ( 27068)
Number of Atoms     (0, 1, 2, 3 weak pairs; overall):   19.1    13.8     0.0     0.0  (    29)
Number of PAOs      (0, 1, 2, 3 weak pairs; overall):  748.3   561.0     0.0     0.0  (  1025)
Number of AuxFcns   (0, 1, 2, 3 weak pairs; overall):  861.5   592.8     0.0     0.0  (  2424)
Number of TNOs (0, 1, 2, 3 weak pairs         ):   78.6    55.7     0.0     0.0
Aver. Number of NTNO, Atoms, PAOs, AuxFcns / Triples:  27068    68.4    16.7   665.2   742.3

Triples Correction (T)                     ...     -0.118380275
    alpha-alpha-alpha ... -0.003803332 (  3.2%)
    alpha-alpha-beta  ... -0.055588529 ( 47.0%)
    alpha-beta -beta  ... -0.054925286 ( 46.4%)
    beta -beta -beta  ... -0.004063129 (  3.4%)
Final correlation energy                   ...     -3.023690697
E(CCSD)                                    ...  -3031.360672267
E(CCSD(T))                                 ...  -3031.479052542

----------------------------
STATISTICS FOR PAIR-ENERGIES
----------------------------
Minimum, maximum and average ratios of UMP and CCSD pair-energies ... 0.44, 1.45, 1.02


------------------------------------------------------------------------------- 
                                     TIMINGS                                   
------------------------------------------------------------------------------- 


Total execution time                   ...    46613.462 sec

Localization of occupied MO's          ...       10.991 sec (  0.0%)
Fock Matrix Formation                  ...     1556.700 sec (  3.3%)
Differential overlap integrals         ...        1.471 sec (  0.0%)
Organizing maps                        ...        1.759 sec (  0.0%)
RI 3-index integral generations        ...      288.333 sec (  0.6%)
RI-PNO integral transformation         ...     5001.664 sec ( 10.7%)
Initial Guess                          ...     1954.888 sec (  4.2%)
DIIS Solver                            ...       14.608 sec (  0.0%)
State Vector Update                    ...        0.716 sec (  0.0%)
Sigma-vector construction              ...    24505.982 sec ( 52.6%)
  <0|H|D>                              ...        0.029 sec (  0.0% of sigma)
  <D|H|D>(0-ext)                       ...     4548.976 sec ( 18.6% of sigma)
  <D|H|D>(2-ext Fock)                  ...        1.246 sec (  0.0% of sigma)
  <D|H|D>(2-ext)                       ...     3400.954 sec ( 13.9% of sigma)
  <D|H|D>(4-ext)                       ...      142.686 sec (  0.6% of sigma)
  <D|H|D>(4-ext-corr)                  ...      889.659 sec (  3.6% of sigma)
  CCSD doubles correction              ...      425.431 sec (  1.7% of sigma)
  <S|H|S>                              ...      638.211 sec (  2.6% of sigma)
  <S|H|D>(1-ext)                       ...      236.494 sec (  1.0% of sigma)
  <D|H|S>(1-ext)                       ...        1.054 sec (  0.0% of sigma)
  <S|H|D>(3-ext)                       ...       18.908 sec (  0.1% of sigma)
  CCSD singles correction              ...        0.004 sec (  0.0% of sigma)
  Fock-dressing                        ...     7124.476 sec ( 29.1% of sigma)
  Singles amplitudes                   ...      105.513 sec (  0.4% of sigma)
  (ik|jl)-dressing                     ...     5496.067 sec ( 22.4% of sigma)
  (ij|ab),(ia|jb)-dressing             ...     1219.154 sec (  5.0% of sigma)
  Pair energies                        ...        0.123 sec (  0.0% of sigma)
Total Time for computing (T)           ...    13655.804 sec ( 29.3% of ALL)


-------------------------   --------------------
FINAL SINGLE POINT ENERGY     -3031.479052542491
-------------------------   --------------------


                            ***************************************
                            *     ORCA property calculations      *
                            ***************************************

                                    ---------------------
                                    Active property flags
                                    ---------------------
   (+) Dipole Moment


------------------------------------------------------------------------------
                       ORCA ELECTRIC PROPERTIES CALCULATION
------------------------------------------------------------------------------

Dipole Moment Calculation                       ... on
Quadrupole Moment Calculation                   ... off
Polarizability Calculation                      ... off
GBWName                                         ... simple-grid-255-260-b3lyp_d3bj-631gd-gas-singlepoint-DLPNO_CCSD_T1-NormalPNO-augtz-gas.gbw
Electron density file                           ... simple-grid-255-260-b3lyp_d3bj-631gd-gas-singlepoint-DLPNO_CCSD_T1-NormalPNO-augtz-gas.scfp.tmp
The origin for moment calculation is the CENTER OF MASS  = ( 0.313330,  0.029863  0.018894)

-------------
DIPOLE MOMENT
-------------
                                X             Y             Z
Electronic contribution:     43.21747       3.28067       2.18361
Nuclear contribution   :    -46.68620      -4.44961      -2.81516
                        -----------------------------------------
Total Dipole Moment    :     -3.46874      -1.16894      -0.63155
                        -----------------------------------------
Magnitude (a.u.)       :      3.71449
Magnitude (Debye)      :      9.44147



--------------------
Rotational spectrum 
--------------------
 
Rotational constants in cm-1:     0.019058     0.010894     0.010267 
Rotational constants in MHz :   571.334424   326.593302   307.794960 

 Dipole components along the rotational axes: 
x,y,z [a.u.] :    -3.462533     1.178907    -0.646875 
x,y,z [Debye]:    -8.801059     2.996543    -1.644225 

 

Timings for individual modules:

Sum of individual times         ...    64178.053 sec (=1069.634 min)
GTO integral calculation        ...       12.207 sec (=   0.203 min)   0.0 %
SCF iterations                  ...    17534.691 sec (= 292.245 min)  27.3 %
MDCI module                     ...    46631.156 sec (= 777.186 min)  72.7 %
                             ****ORCA TERMINATED NORMALLY****
TOTAL RUN TIME: 0 days 17 hours 49 minutes 40 seconds 512 msec
