
                                 *****************
                                 * O   R   C   A *
                                 *****************

           --- An Ab Initio, DFT and Semiempirical electronic structure package ---

                  #######################################################
                  #                        -***-                        #
                  #          Department of theory and spectroscopy      #
                  #               Directorship: Frank Neese             #
                  #        Max Planck Institute fuer Kohlenforschung    #
                  #                Kaiser Wilhelm Platz 1               #
                  #                 D-45470 Muelheim/Ruhr               #
                  #                      Germany                        #
                  #                                                     #
                  #                  All rights reserved                #
                  #                        -***-                        #
                  #######################################################


                         Program Version 4.1.2  - RELEASE  -


 With contributions from (in alphabetic order):
   Daniel Aravena         : Magnetic Properties
   Michael Atanasov       : Ab Initio Ligand Field Theory
   Alexander A. Auer      : GIAO ZORA
   Ute Becker             : Parallelization
   Giovanni Bistoni       : ED, Open-shell LED
   Martin Brehm           : Molecular dynamics
   Dmytro Bykov           : SCF Hessian
   Vijay G. Chilkuri      : MRCI spin determinant printing
   Dipayan Datta          : RHF DLPNO-CCSD density
   Achintya Kumar Dutta   : EOM-CC, STEOM-CC
   Dmitry Ganyushin       : Spin-Orbit,Spin-Spin,Magnetic field MRCI
   Miquel Garcia          : C-PCM Hessian
   Yang Guo               : DLPNO-NEVPT2, CIM, IAO-localization
   Andreas Hansen         : Spin unrestricted coupled pair/coupled cluster methods
   Benjamin Helmich-Paris : CASSCF linear response (MC-RPA)
   Lee Huntington         : MR-EOM, pCC
   Robert Izsak           : Overlap fitted RIJCOSX, COSX-SCS-MP3, EOM
   Christian Kollmar      : KDIIS, OOCD, Brueckner-CCSD(T), CCSD density
   Simone Kossmann        : Meta GGA functionals, TD-DFT gradient, OOMP2, MP2 Hessian
   Martin Krupicka        : AUTO-CI
   Lucas Lang             : DCDCAS
   Dagmar Lenk            : GEPOL surface, SMD
   Dimitrios Liakos       : Extrapolation schemes; parallel MDCI
   Dimitrios Manganas     : ROCIS; embedding schemes
   Dimitrios Pantazis     : SARC Basis sets
   Taras Petrenko         : DFT Hessian,TD-DFT gradient, ASA, ECA, R-Raman, ABS, FL, XAS/XES, NRVS
   Peter Pinski           : DLPNO-MP2, DLPNO-MP2 Gradient
   Christoph Reimann      : Effective Core Potentials
   Marius Retegan         : Local ZFS, SOC
   Christoph Riplinger    : Optimizer, TS searches, QM/MM, DLPNO-CCSD(T), (RO)-DLPNO pert. Triples
   Tobias Risthaus        : Range-separated hybrids, TD-DFT gradient, RPA, STAB
   Michael Roemelt        : Restricted open shell CIS
   Masaaki Saitow         : Open-shell DLPNO
   Barbara Sandhoefer     : DKH picture change effects
   Avijit Sen             : IP-ROCIS
   Kantharuban Sivalingam : CASSCF convergence, NEVPT2, FIC-MRCI
   Bernardo de Souza      : ESD, SOC TD-DFT
   Georgi Stoychev        : AutoAux, RI-MP2 NMR
   Willem Van den Heuvel  : Paramagnetic NMR
   Boris Wezisla          : Elementary symmetry handling
   Frank Wennmohs         : Technical directorship


 We gratefully acknowledge several colleagues who have allowed us to
 interface, adapt or use parts of their codes:
   Stefan Grimme, W. Hujo, H. Kruse,             : VdW corrections, initial TS optimization,
                  C. Bannwarth                     DFT functionals, gCP, sTDA/sTD-DF
   Ed Valeev                                     : LibInt (2-el integral package), F12 methods
   Garnet Chan, S. Sharma, J. Yang, R. Olivares  : DMRG
   Ulf Ekstrom                                   : XCFun DFT Library
   Mihaly Kallay                                 : mrcc  (arbitrary order and MRCC methods)
   Andreas Klamt, Michael Diedenhofen            : otool_cosmo (COSMO solvation model)
   Jiri Pittner, Ondrej Demel                    : Mk-CCSD
   Frank Weinhold                                : gennbo (NPA and NBO analysis)
   Christopher J. Cramer and Donald G. Truhlar   : smd solvation model
   Lars Goerigk                                  : TD-DFT with DH, B97 family of functionals
   V. Asgeirsson, H. Jonsson                     : NEB implementation
   FAccTs GmbH                                   : IRC, NEB, NEB-TS, Multilevel


 Your calculation uses the libint2 library for the computation of 2-el integrals
 For citations please refer to: http://libint.valeyev.net

 This ORCA versions uses:
   CBLAS   interface :  Fast vector & matrix operations
   LAPACKE interface :  Fast linear algebra routines
   SCALAPACK package :  Parallel linear algebra routines


----- Orbital basis set information -----
Your calculation utilizes the basis: aug-cc-pVTZ 
    H, B-Ne : Obtained from the ccRepo (grant-hill.group.shef.ac.uk/ccrepo) Feb. 2017
              R. A. Kendall, T. H. Dunning, Jr., R. J. Harrison, J. Chem. Phys. 96, 6796 (1992)
         He : Obtained from the ccRepo (grant-hill.group.shef.ac.uk/ccrepo) Feb. 2017
              D. E. Woon, T. H. Dunning, Jr., J. Chem. Phys. 100, 2975 (1994)
  Li-Be, Na : Obtained from the ccRepo (grant-hill.group.shef.ac.uk/ccrepo) Feb. 2017
              B. P. Prascher, D. E. Woon, K. A. Peterson, T. H. Dunning, Jr., A. K. Wilson, Theor. Chem. Acc. 128, 69 (2011)
         Mg : Obtained from the Peterson Research Group Website (tyr0.chem.wsu.edu/~kipeters) Feb. 2017
              B. P. Prascher, D. E. Woon, K. A. Peterson, T. H. Dunning, Jr., A. K. Wilson, Theor. Chem. Acc. 128, 69 (2011)
      Al-Ar : Obtained from the ccRepo (grant-hill.group.shef.ac.uk/ccrepo) Feb. 2017
              D. E. Woon, T. H. Dunning, Jr., J. Chem. Phys. 98, 1358 (1993)
      Sc-Zn : Obtained from the ccRepo (grant-hill.group.shef.ac.uk/ccrepo) Feb. 2017
              N. B. Balabanov, K. A. Peterson, J. Chem. Phys. 123, 064107 (2005)
              N. B. Balabanov, K. A. Peterson, J. Chem. Phys. 125, 074110 (2006)
      Ga-Kr : Obtained from the ccRepo (grant-hill.group.shef.ac.uk/ccrepo) Feb. 2017
              A. K. Wilson, D. E. Woon, K. A. Peterson, T. H. Dunning, Jr., J. Chem. Phys. 110, 7667 (1999)
     Ag, Au : Obtained from the Peterson Research Group Website (tyr0.chem.wsu.edu/~kipeters) Feb. 2017
              K. A. Peterson, C. Puzzarini, Theor. Chem. Acc. 114, 283 (2005)

----- AuxJ basis set information -----
Your calculation utilizes the AutoAux generation procedure.
  G. L. Stoychev, A. A. Auer, F. Neese, J. Chem. Theory Comput. 13, 554 (2017)

----- AuxC basis set information -----
Your calculation utilizes the auxiliary basis: aug-cc-pVTZ/C 
  H-He, B-F, Al-Ar, Ga-Kr : Obtained from the EMSL Basis Set Exchange (bse.pnl.gov) Feb. 2017
                            F. Weigend, A. Kohn, C. Hattig, J. Chem. Phys. 116, 3175 (2002)
                   Be, Mg : Obtained from the TURBOMOLE 7.0 basis set library
                            C. Haettig, Phys. Chem. Chem. Phys. 7, 59 (2005)
                       Ne : Obtained from the EMSL Basis Set Exchange (bse.pnl.gov) Feb. 2017
                            C. Haettig, Phys. Chem. Chem. Phys. 7, 59 (2005)
                            F. Weigend, A. Kohn, C. Hattig, J. Chem. Phys. 116, 3175 (2002)
                    Sc-Zn : Obtained from the EMSL Basis Set Exchange (bse.pnl.gov) Feb. 2017
                            J. G. Hill, J. A. Platts, J. Chem. Phys. 128, 044104 (2008)

----- AuxJK basis set information -----
Your calculation utilizes the AutoAux generation procedure.
  G. L. Stoychev, A. A. Auer, F. Neese, J. Chem. Theory Comput. 13, 554 (2017)

================================================================================
                                        WARNINGS
                       Please study these warnings very carefully!
================================================================================


WARNING: your system is open-shell and RHF/RKS was chosen
  ===> : WILL SWITCH to UHF/UKS


WARNING: MDCI localization with Augmented Hessian Foster-Boys
  ===> : Switching off randomization!

WARNING: Post HF methods need fully converged wavefunctions
  ===> : Setting SCFConvForced true
         You can overwrite this default with %scf ConvForced false 


INFO   : the flag for use of LIBINT has been found!

================================================================================
                                       INPUT FILE
================================================================================
NAME = simple-grid-205-210-b3lyp_d3bj-631gd-gas-singlepoint-DLPNO_CCSD_T1-NormalPNO-augtz-gas.inp
|  1> ! aug-cc-pVTZ aug-cc-pVTZ/C DLPNO-CCSD(T1) TightSCF NormalPNO UNO MiniPrint AutoAux
|  2> %pal nproc 10 end
|  3> %maxcore 20000
|  4> %mdci
|  5>      density none
|  6> end
|  7> 
|  8> * xyz 0 6
|  9>  O     -0.37845900     -0.08099500     -0.47054600
| 10>  C     -1.28963700     -1.07364000     -0.42120100
| 11>  C     -3.02329300     -0.01168400     -0.15818000
| 12>  C     -2.12308800      1.06694600     -0.25032000
| 13>  C     -1.90604100      1.76124700     -1.55202000
| 14> Fe      1.42116300      0.04986900      0.05313200
| 15> Cl      1.97982700      2.00320600     -0.80590500
| 16>  C     -1.60192500      1.75922100      0.96399900
| 17> Cl      2.38466300     -1.74751000     -0.77946600
| 18> Cl      1.41784300      0.06143600      2.26650600
| 19>  H     -3.55558200     -0.24670600     -1.07774200
| 20>  H     -2.39679200      2.43971300      1.30673400
| 21>  H     -1.37796400      1.07558400      1.78356500
| 22>  H     -0.71162000      2.34848700      0.73960300
| 23>  H     -2.57097900      2.63926500     -1.54754200
| 24>  H     -0.87724800      2.11283900     -1.65311000
| 25>  H     -2.18264300      1.14372500     -2.40868600
| 26>  C     -3.75360700     -0.38352800      1.10942900
| 27>  H     -4.64204300      0.24913600      1.23494900
| 28>  H     -4.10018500     -1.42060900      1.06871500
| 29>  H     -3.13980400     -0.26940800      2.00541400
| 30>  C     -1.21167300     -1.97401800      0.77998300
| 31>  H     -2.05633100     -2.66321900      0.84019400
| 32>  H     -0.29210500     -2.56459900      0.65647100
| 33>  H     -1.10529600     -1.41085500      1.70792200
| 34>  C     -1.52183000     -1.75651800     -1.74355700
| 35>  H     -0.59661900     -2.30530400     -1.96974200
| 36>  H     -2.35567800     -2.46202200     -1.70437900
| 37>  H     -1.67477400     -1.03404800     -2.54751800
| 38> *
| 39> 
| 40> 
| 41>                          ****END OF INPUT****
================================================================================

                       ****************************
                       * Single Point Calculation *
                       ****************************

---------------------------------
CARTESIAN COORDINATES (ANGSTROEM)
---------------------------------
  O     -0.378459   -0.080995   -0.470546
  C     -1.289637   -1.073640   -0.421201
  C     -3.023293   -0.011684   -0.158180
  C     -2.123088    1.066946   -0.250320
  C     -1.906041    1.761247   -1.552020
  Fe     1.421163    0.049869    0.053132
  Cl     1.979827    2.003206   -0.805905
  C     -1.601925    1.759221    0.963999
  Cl     2.384663   -1.747510   -0.779466
  Cl     1.417843    0.061436    2.266506
  H     -3.555582   -0.246706   -1.077742
  H     -2.396792    2.439713    1.306734
  H     -1.377964    1.075584    1.783565
  H     -0.711620    2.348487    0.739603
  H     -2.570979    2.639265   -1.547542
  H     -0.877248    2.112839   -1.653110
  H     -2.182643    1.143725   -2.408686
  C     -3.753607   -0.383528    1.109429
  H     -4.642043    0.249136    1.234949
  H     -4.100185   -1.420609    1.068715
  H     -3.139804   -0.269408    2.005414
  C     -1.211673   -1.974018    0.779983
  H     -2.056331   -2.663219    0.840194
  H     -0.292105   -2.564599    0.656471
  H     -1.105296   -1.410855    1.707922
  C     -1.521830   -1.756518   -1.743557
  H     -0.596619   -2.305304   -1.969742
  H     -2.355678   -2.462022   -1.704379
  H     -1.674774   -1.034048   -2.547518

----------------------------
CARTESIAN COORDINATES (A.U.)
----------------------------
  NO LB      ZA    FRAG     MASS         X           Y           Z
   0 O     8.0000    0    15.999   -0.715184   -0.153058   -0.889203
   1 C     6.0000    0    12.011   -2.437061   -2.028886   -0.795955
   2 C     6.0000    0    12.011   -5.713196   -0.022080   -0.298917
   3 C     6.0000    0    12.011   -4.012055    2.016236   -0.473036
   4 C     6.0000    0    12.011   -3.601895    3.328274   -2.932893
   5 Fe   26.0000    0    55.850    2.685609    0.094239    0.100405
   6 Cl   17.0000    0    35.453    3.741331    3.785511   -1.522940
   7 C     6.0000    0    12.011   -3.027200    3.324446    1.821694
   8 Cl   17.0000    0    35.453    4.506360   -3.302315   -1.472977
   9 Cl   17.0000    0    35.453    2.679335    0.116097    4.283076
  10 H     1.0000    0     1.008   -6.719076   -0.466207   -2.036637
  11 H     1.0000    0     1.008   -4.529280    4.610389    2.469369
  12 H     1.0000    0     1.008   -2.603975    2.032559    3.370449
  13 H     1.0000    0     1.008   -1.344767    4.437997    1.397647
  14 H     1.0000    0     1.008   -4.858446    4.987488   -2.924431
  15 H     1.0000    0     1.008   -1.657758    3.992687   -3.123925
  16 H     1.0000    0     1.008   -4.124598    2.161327   -4.551757
  17 C     6.0000    0    12.011   -7.093289   -0.724763    2.096517
  18 H     1.0000    0     1.008   -8.772190    0.470799    2.333715
  19 H     1.0000    0     1.008   -7.748227   -2.684562    2.019579
  20 H     1.0000    0     1.008   -5.933370   -0.509107    3.789683
  21 C     6.0000    0    12.011   -2.289730   -3.730353    1.473954
  22 H     1.0000    0     1.008   -3.885902   -5.032755    1.587737
  23 H     1.0000    0     1.008   -0.551998   -4.846390    1.240550
  24 H     1.0000    0     1.008   -2.088707   -2.666130    3.227505
  25 C     6.0000    0    12.011   -2.875842   -3.319338   -3.294845
  26 H     1.0000    0     1.008   -1.127447   -4.356393   -3.722273
  27 H     1.0000    0     1.008   -4.451586   -4.652547   -3.220810
  28 H     1.0000    0     1.008   -3.164864   -1.954068   -4.814111



           ************************************************************
           *        Program running with 10 parallel MPI-processes    *
           *              working on a common directory               *
           ************************************************************


           ************************************************************
           *        Program running with 10 parallel MPI-processes    *
           *              working on a common directory               *
           ************************************************************

Diagonalization of the overlap matrix:
Smallest eigenvalue                        ... 6.528e-07
Time for diagonalization                   ...    0.329 sec
Threshold for overlap eigenvalues          ... 1.000e-08
Number of eigenvalues below threshold      ... 0
Time for construction of square roots      ...    0.269 sec
Total time needed                          ...    0.603 sec

-------------------
DFT GRID GENERATION
-------------------

General Integration Accuracy     IntAcc      ...  4.340
Radial Grid Type                 RadialGrid  ... Gauss-Chebyshev
Angular Grid (max. acc.)         AngularGrid ... Lebedev-110
Angular grid pruning method      GridPruning ... 3 (G Style)
Weight generation scheme         WeightScheme... Becke
Basis function cutoff            BFCut       ...    1.0000e-11
Integration weight cutoff        WCut        ...    1.0000e-14
Grids for H and He will be reduced by one unit

# of grid points (after initial pruning)     ...  36112 (   0.0 sec)
# of grid points (after weights+screening)   ...  32290 (   0.1 sec)
nearest neighbour list constructed           ...    0.0 sec
Grid point re-assignment to atoms done       ...    0.0 sec
Grid point division into batches done        ...    0.0 sec
Reduced shell lists constructed in    0.2 sec

Total number of grid points                  ...    32290
Total number of batches                      ...      519
Average number of points per batch           ...       62
Average number of grid points per atom       ...     1113
Average number of shells per batch           ...   295.47 (86.14%)
Average number of basis functions per batch  ...   879.66 (85.82%)
Average number of large shells per batch     ...   244.53 (82.76%)
Average number of large basis fcns per batch ...   727.02 (82.65%)
Maximum spatial batch extension              ...   2.91,  3.14,  3.35 au
Average spatial batch extension              ...   0.17,  0.17,  0.17 au

Time for grid setup =    0.351 sec

Loading Hartree-Fock densities                     ... done
Calculating cut-offs                               ... done
Setting up the integral package                    ... done
Initializing the effective Hamiltonian             ... done
Starting the Coulomb interaction                   ... done (   1.1 sec)
Reading the grid                                   ... done
Mapping shells                                     ... done
Starting the XC term evaluation                    ... done (   0.8 sec)
Transforming the Hamiltonian                       ... done (   0.2 sec)
Diagonalizing the Hamiltonian                      ... done (   0.3 sec)
Back transforming the eigenvectors                 ... done (   0.1 sec)
Now organizing SCF variables                       ... done
--------------
SCF ITERATIONS
--------------
ITER       Energy         Delta-E        Max-DP      RMS-DP      [F,P]     Damp
               ***  Starting incremental Fock matrix formation  ***
  0  -3027.5529217197   0.000000000000 0.31231643  0.00130588  0.2699793 0.7000
  1  -3027.8011091241  -0.248187404425 0.22288494  0.00099855  0.1642048 0.7000
                               ***Turning on DIIS***
  2  -3027.9685357152  -0.167426591132 0.15426523  0.00072531  0.1090195 0.7000
  3  -3029.6598174601  -1.691281744826 0.35042766  0.00178617  0.0817467 0.0000
  4  -3028.2777606235   1.382056836580 0.04643503  0.00024437  0.0185780 0.0000
  5  -3028.4033181418  -0.125557518278 0.03927779  0.00017731  0.0117449 0.0000
  6  -3028.4248917614  -0.021573619591 0.01997128  0.00007045  0.0054399 0.0000
  7  -3028.4389585886  -0.014066827257 0.00878417  0.00003120  0.0032681 0.0000
  8  -3028.4373424928   0.001616095770 0.00584683  0.00001861  0.0013565 0.0000
  9  -3028.4261601140   0.011182378837 0.00225979  0.00001042  0.0007034 0.0000
 10  -3028.4154840186   0.010676095441 0.00102634  0.00000365  0.0004535 0.0000
 11  -3028.4221859052  -0.006701886647 0.00028815  0.00000194  0.0000824 0.0000
 12  -3028.4195906070   0.002595298192 0.00065784  0.00000158  0.0000306 0.0000
 13  -3028.4195248248   0.000065782184 0.00057573  0.00000206  0.0000118 0.0000
 14  -3028.4194767837   0.000048041156 0.00128386  0.00000292  0.0000059 0.0000
 15  -3028.4194432887   0.000033494951 0.00089690  0.00000272  0.0000034 0.0000
 16  -3028.4194533088  -0.000010020100 0.00133014  0.00000290  0.0000025 0.0000
 17  -3028.4194691308  -0.000015821991 0.00109032  0.00000273  0.0000016 0.0000
 18  -3028.4194565325   0.000012598271 0.00181623  0.00000399  0.0000013 0.0000
                            ***DIIS convergence achieved***

               *****************************************************
               *                     SUCCESS                       *
               *           SCF CONVERGED AFTER  19 CYCLES          *
               *****************************************************

Total Energy       :        -3028.41946737 Eh          -82407.48322 eV
  Last Energy change         ...   -1.0833e-05  Tolerance :   1.0000e-08
  Last MAX-Density change    ...    1.8211e-03  Tolerance :   1.0000e-07
             **** THE GBW FILE WAS UPDATED (simple-grid-205-210-b3lyp_d3bj-631gd-gas-singlepoint-DLPNO_CCSD_T1-NormalPNO-augtz-gas.gbw) ****
             **** DENSITY FILE WAS UPDATED (simple-grid-205-210-b3lyp_d3bj-631gd-gas-singlepoint-DLPNO_CCSD_T1-NormalPNO-augtz-gas.scfp.tmp) ****
             **** ENERGY FILE WAS UPDATED (simple-grid-205-210-b3lyp_d3bj-631gd-gas-singlepoint-DLPNO_CCSD_T1-NormalPNO-augtz-gas.en.tmp) ****
----------------------
UHF SPIN CONTAMINATION
----------------------

Expectation value of <S**2>     :     8.764744
Ideal value S*(S+1) for S=2.5   :     8.750000
Deviation                       :     0.014744

----------------
ORBITAL ENERGIES
----------------
                 SPIN UP ORBITALS
  NO   OCC          E(Eh)            E(eV) 
   0   1.0000    -261.554771     -7117.2672 
   1   1.0000    -104.779224     -2851.1876 
   2   1.0000    -104.778798     -2851.1761 
   3   1.0000    -104.778328     -2851.1633 
   4   1.0000     -32.222645      -876.8228 
   5   1.0000     -27.698652      -753.7186 
   6   1.0000     -27.698272      -753.7083 
   7   1.0000     -27.698086      -753.7032 
   8   1.0000     -20.560527      -559.4804 
   9   1.0000     -11.393788      -310.0407 
  10   1.0000     -11.364519      -309.2443 
  11   1.0000     -11.271127      -306.7030 
  12   1.0000     -11.265020      -306.5368 
  13   1.0000     -11.262563      -306.4699 
  14   1.0000     -11.258064      -306.3475 
  15   1.0000     -11.257183      -306.3235 
  16   1.0000     -11.253850      -306.2328 
  17   1.0000     -10.505739      -285.8757 
  18   1.0000     -10.505345      -285.8650 
  19   1.0000     -10.504914      -285.8532 
  20   1.0000      -7.972540      -216.9438 
  21   1.0000      -7.972172      -216.9338 
  22   1.0000      -7.971840      -216.9248 
  23   1.0000      -7.971799      -216.9237 
  24   1.0000      -7.971760      -216.9226 
  25   1.0000      -7.971443      -216.9140 
  26   1.0000      -7.971367      -216.9119 
  27   1.0000      -7.970974      -216.9012 
  28   1.0000      -7.970916      -216.8997 
  29   1.0000      -4.578053      -124.5752 
  30   1.0000      -3.190755       -86.8248 
  31   1.0000      -3.190077       -86.8064 
  32   1.0000      -3.189526       -86.7914 
  33   1.0000      -1.401179       -38.1280 
  34   1.0000      -1.165096       -31.7039 
  35   1.0000      -1.089071       -29.6351 
  36   1.0000      -1.051404       -28.6102 
  37   1.0000      -1.045410       -28.4471 
  38   1.0000      -1.044938       -28.4342 
  39   1.0000      -1.037765       -28.2390 
  40   1.0000      -0.999595       -27.2004 
  41   1.0000      -0.985592       -26.8193 
  42   1.0000      -0.930703       -25.3257 
  43   1.0000      -0.914318       -24.8799 
  44   1.0000      -0.907694       -24.6996 
  45   1.0000      -0.907542       -24.6955 
  46   1.0000      -0.898817       -24.4581 
  47   1.0000      -0.898098       -24.4385 
  48   1.0000      -0.787498       -21.4289 
  49   1.0000      -0.759537       -20.6681 
  50   1.0000      -0.696387       -18.9496 
  51   1.0000      -0.691956       -18.8291 
  52   1.0000      -0.677107       -18.4250 
  53   1.0000      -0.656489       -17.8640 
  54   1.0000      -0.640475       -17.4282 
  55   1.0000      -0.621948       -16.9241 
  56   1.0000      -0.599618       -16.3164 
  57   1.0000      -0.591670       -16.1002 
  58   1.0000      -0.585796       -15.9403 
  59   1.0000      -0.582664       -15.8551 
  60   1.0000      -0.572123       -15.5683 
  61   1.0000      -0.566481       -15.4147 
  62   1.0000      -0.553356       -15.0576 
  63   1.0000      -0.548472       -14.9247 
  64   1.0000      -0.540728       -14.7140 
  65   1.0000      -0.528898       -14.3921 
  66   1.0000      -0.511627       -13.9221 
  67   1.0000      -0.484772       -13.1913 
  68   1.0000      -0.466595       -12.6967 
  69   1.0000      -0.455193       -12.3864 
  70   1.0000      -0.434895       -11.8341 
  71   1.0000      -0.429089       -11.6761 
  72   1.0000      -0.426345       -11.6014 
  73   1.0000      -0.420120       -11.4321 
  74   1.0000      -0.417461       -11.3597 
  75   1.0000      -0.416878       -11.3438 
  76   1.0000      -0.372172       -10.1273 
  77   0.0000       0.010413         0.2834 
  78   0.0000       0.020915         0.5691 
  79   0.0000       0.022960         0.6248 
  80   0.0000       0.030613         0.8330 
  81   0.0000       0.038180         1.0389 
  82   0.0000       0.040098         1.0911 
  83   0.0000       0.042403         1.1539 
  84   0.0000       0.043673         1.1884 
  85   0.0000       0.044858         1.2206 
  86   0.0000       0.051883         1.4118 
  87   0.0000       0.056495         1.5373 
  88   0.0000       0.060508         1.6465 
  89   0.0000       0.062902         1.7116 
  90   0.0000       0.064556         1.7567 
  91   0.0000       0.067030         1.8240 
  92   0.0000       0.071791         1.9535 
  93   0.0000       0.073980         2.0131 
  94   0.0000       0.082064         2.2331 
  95   0.0000       0.088767         2.4155 
  96   0.0000       0.089382         2.4322 
  97   0.0000       0.091589         2.4923 
  98   0.0000       0.095998         2.6122 
  99   0.0000       0.100825         2.7436 
 100   0.0000       0.103358         2.8125 
 101   0.0000       0.110561         3.0085 
 102   0.0000       0.115571         3.1449 
 103   0.0000       0.118907         3.2356 
 104   0.0000       0.122359         3.3296 
 105   0.0000       0.124339         3.3834 
 106   0.0000       0.127931         3.4812 
 107   0.0000       0.129050         3.5116 
 108   0.0000       0.130702         3.5566 
 109   0.0000       0.132720         3.6115 
 110   0.0000       0.136260         3.7078 
 111   0.0000       0.138874         3.7790 
 112   0.0000       0.144774         3.9395 
 113   0.0000       0.147588         4.0161 
 114   0.0000       0.149409         4.0656 
 115   0.0000       0.153323         4.1721 
 116   0.0000       0.157304         4.2805 
 117   0.0000       0.161980         4.4077 
 118   0.0000       0.163732         4.4554 
 119   0.0000       0.165785         4.5112 
 120   0.0000       0.170447         4.6381 
 121   0.0000       0.174920         4.7598 
 122   0.0000       0.178172         4.8483 
 123   0.0000       0.180479         4.9111 
 124   0.0000       0.183493         4.9931 
 125   0.0000       0.186366         5.0713 
 126   0.0000       0.192284         5.2323 
 127   0.0000       0.194525         5.2933 
 128   0.0000       0.195076         5.3083 
 129   0.0000       0.198932         5.4132 
 130   0.0000       0.201503         5.4832 
 131   0.0000       0.204461         5.5637 
 132   0.0000       0.207492         5.6461 
 133   0.0000       0.210390         5.7250 
 134   0.0000       0.212507         5.7826 
 135   0.0000       0.213663         5.8141 
 136   0.0000       0.219122         5.9626 
 137   0.0000       0.221302         6.0219 
 138   0.0000       0.228544         6.2190 
 139   0.0000       0.232971         6.3395 
 140   0.0000       0.235664         6.4128 
 141   0.0000       0.238268         6.4836 
 142   0.0000       0.240980         6.5574 
 143   0.0000       0.241418         6.5693 
 144   0.0000       0.247222         6.7273 
 145   0.0000       0.253198         6.8899 
 146   0.0000       0.253289         6.8923 
 147   0.0000       0.256414         6.9774 
 148   0.0000       0.258025         7.0212 
 149   0.0000       0.261015         7.1026 
 150   0.0000       0.267810         7.2875 
 151   0.0000       0.275002         7.4832 
 152   0.0000       0.276342         7.5196 
 153   0.0000       0.281170         7.6510 
 154   0.0000       0.286178         7.7873 
 155   0.0000       0.287592         7.8258 
 156   0.0000       0.290292         7.8993 
 157   0.0000       0.294667         8.0183 
 158   0.0000       0.297217         8.0877 
 159   0.0000       0.303919         8.2701 
 160   0.0000       0.306231         8.3330 
 161   0.0000       0.309557         8.4235 
 162   0.0000       0.312846         8.5130 
 163   0.0000       0.320177         8.7124 
 164   0.0000       0.326080         8.8731 
 165   0.0000       0.328366         8.9353 
 166   0.0000       0.331366         9.0169 
 167   0.0000       0.339004         9.2248 
 168   0.0000       0.341194         9.2844 
 169   0.0000       0.346619         9.4320 
 170   0.0000       0.351391         9.5618 
 171   0.0000       0.356426         9.6988 
 172   0.0000       0.360352         9.8057 
 173   0.0000       0.362244         9.8572 
 174   0.0000       0.363117         9.8809 
 175   0.0000       0.365938         9.9577 
 176   0.0000       0.368932        10.0391 
 177   0.0000       0.372444        10.1347 
 178   0.0000       0.376567        10.2469 
 179   0.0000       0.379821        10.3355 
 180   0.0000       0.384116        10.4523 
 181   0.0000       0.385304        10.4846 
 182   0.0000       0.385846        10.4994 
 183   0.0000       0.389239        10.5917 
 184   0.0000       0.390204        10.6180 
 185   0.0000       0.397184        10.8079 
 186   0.0000       0.398447        10.8423 
 187   0.0000       0.398791        10.8517 
 188   0.0000       0.405957        11.0467 
 189   0.0000       0.409156        11.1337 
 190   0.0000       0.413646        11.2559 
 191   0.0000       0.419930        11.4269 
 192   0.0000       0.420886        11.4529 
 193   0.0000       0.424382        11.5480 
 194   0.0000       0.425763        11.5856 
 195   0.0000       0.431271        11.7355 
 196   0.0000       0.437748        11.9117 
 197   0.0000       0.441978        12.0268 
 198   0.0000       0.448729        12.2105 
 199   0.0000       0.450318        12.2538 
 200   0.0000       0.451458        12.2848 
 201   0.0000       0.456607        12.4249 
 202   0.0000       0.460468        12.5300 
 203   0.0000       0.464960        12.6522 
 204   0.0000       0.467085        12.7100 
 205   0.0000       0.467861        12.7311 
 206   0.0000       0.472075        12.8458 
 207   0.0000       0.473246        12.8777 
 208   0.0000       0.475286        12.9332 
 209   0.0000       0.480068        13.0633 
 210   0.0000       0.483872        13.1668 
 211   0.0000       0.486468        13.2375 
 212   0.0000       0.492166        13.3925 
 213   0.0000       0.493258        13.4222 
 214   0.0000       0.497742        13.5442 
 215   0.0000       0.500162        13.6101 
 216   0.0000       0.502804        13.6820 
 217   0.0000       0.506801        13.7908 
 218   0.0000       0.508726        13.8431 
 219   0.0000       0.514812        14.0088 
 220   0.0000       0.515634        14.0311 
 221   0.0000       0.518513        14.1095 
 222   0.0000       0.520186        14.1550 
 223   0.0000       0.525353        14.2956 
 224   0.0000       0.525913        14.3108 
 225   0.0000       0.529700        14.4139 
 226   0.0000       0.533089        14.5061 
 227   0.0000       0.540119        14.6974 
 228   0.0000       0.542830        14.7711 
 229   0.0000       0.549142        14.9429 
 230   0.0000       0.551009        14.9937 
 231   0.0000       0.554746        15.0954 
 232   0.0000       0.559540        15.2259 
 233   0.0000       0.563003        15.3201 
 234   0.0000       0.569498        15.4968 
 235   0.0000       0.570819        15.5328 
 236   0.0000       0.574734        15.6393 
 237   0.0000       0.577120        15.7042 
 238   0.0000       0.578394        15.7389 
 239   0.0000       0.583971        15.8907 
 240   0.0000       0.587444        15.9852 
 241   0.0000       0.589627        16.0446 
 242   0.0000       0.600285        16.3346 
 243   0.0000       0.601623        16.3710 
 244   0.0000       0.606192        16.4953 
 245   0.0000       0.609084        16.5740 
 246   0.0000       0.612271        16.6607 
 247   0.0000       0.615482        16.7481 
 248   0.0000       0.622200        16.9309 
 249   0.0000       0.623039        16.9538 
 250   0.0000       0.627757        17.0821 
 251   0.0000       0.631206        17.1760 
 252   0.0000       0.634280        17.2596 
 253   0.0000       0.637582        17.3495 
 254   0.0000       0.639048        17.3894 
 255   0.0000       0.643776        17.5180 
 256   0.0000       0.646086        17.5809 
 257   0.0000       0.653085        17.7714 
 258   0.0000       0.657852        17.9011 
 259   0.0000       0.660008        17.9597 
 260   0.0000       0.666446        18.1349 
 261   0.0000       0.667569        18.1655 
 262   0.0000       0.669667        18.2226 
 263   0.0000       0.675758        18.3883 
 264   0.0000       0.676093        18.3974 
 265   0.0000       0.682626        18.5752 
 266   0.0000       0.688323        18.7302 
 267   0.0000       0.693848        18.8806 
 268   0.0000       0.700010        19.0482 
 269   0.0000       0.704487        19.1701 
 270   0.0000       0.709281        19.3005 
 271   0.0000       0.715501        19.4698 
 272   0.0000       0.718260        19.5449 
 273   0.0000       0.723442        19.6859 
 274   0.0000       0.727491        19.7960 
 275   0.0000       0.731518        19.9056 
 276   0.0000       0.736284        20.0353 
 277   0.0000       0.740389        20.1470 
 278   0.0000       0.746782        20.3210 
 279   0.0000       0.750845        20.4315 
 280   0.0000       0.759496        20.6669 
 281   0.0000       0.763664        20.7804 
 282   0.0000       0.765112        20.8198 
 283   0.0000       0.773484        21.0476 
 284   0.0000       0.778711        21.1898 
 285   0.0000       0.784124        21.3371 
 286   0.0000       0.787072        21.4173 
 287   0.0000       0.791290        21.5321 
 288   0.0000       0.797067        21.6893 
 289   0.0000       0.802915        21.8484 
 290   0.0000       0.813033        22.1238 
 291   0.0000       0.813845        22.1458 
 292   0.0000       0.819986        22.3130 
 293   0.0000       0.825779        22.4706 
 294   0.0000       0.835289        22.7294 
 295   0.0000       0.838966        22.8294 
 296   0.0000       0.843474        22.9521 
 297   0.0000       0.850686        23.1483 
 298   0.0000       0.858891        23.3716 
 299   0.0000       0.860301        23.4100 
 300   0.0000       0.861691        23.4478 
 301   0.0000       0.871480        23.7142 
 302   0.0000       0.872192        23.7336 
 303   0.0000       0.877134        23.8680 
 304   0.0000       0.882593        24.0166 
 305   0.0000       0.884334        24.0640 
 306   0.0000       0.885888        24.1062 
 307   0.0000       0.891061        24.2470 
 308   0.0000       0.898175        24.4406 
 309   0.0000       0.900236        24.4967 
 310   0.0000       0.907788        24.7022 
 311   0.0000       0.911857        24.8129 
 312   0.0000       0.920037        25.0355 
 313   0.0000       0.923423        25.1276 
 314   0.0000       0.926411        25.2089 
 315   0.0000       0.927542        25.2397 
 316   0.0000       0.936093        25.4724 
 317   0.0000       0.936326        25.4787 
 318   0.0000       0.940215        25.5846 
 319   0.0000       0.943509        25.6742 
 320   0.0000       0.949298        25.8317 
 321   0.0000       0.952131        25.9088 
 322   0.0000       0.954295        25.9677 
 323   0.0000       0.961067        26.1520 
 324   0.0000       0.965592        26.2751 
 325   0.0000       0.966221        26.2922 
 326   0.0000       0.969930        26.3931 
 327   0.0000       0.973518        26.4908 
 328   0.0000       0.979246        26.6466 
 329   0.0000       0.981111        26.6974 
 330   0.0000       0.984169        26.7806 
 331   0.0000       0.988554        26.8999 
 332   0.0000       0.989748        26.9324 
 333   0.0000       0.993653        27.0387 
 334   0.0000       0.994626        27.0652 
 335   0.0000       1.000445        27.2235 
 336   0.0000       1.004771        27.3412 
 337   0.0000       1.011275        27.5182 
 338   0.0000       1.017500        27.6876 
 339   0.0000       1.021022        27.7834 
 340   0.0000       1.024727        27.8843 
 341   0.0000       1.027418        27.9575 
 342   0.0000       1.030809        28.0497 
 343   0.0000       1.036065        28.1927 
 344   0.0000       1.038350        28.2550 
 345   0.0000       1.040408        28.3109 
 346   0.0000       1.043433        28.3933 
 347   0.0000       1.045917        28.4609 
 348   0.0000       1.052380        28.6367 
 349   0.0000       1.054260        28.6879 
 350   0.0000       1.057443        28.7745 
 351   0.0000       1.061876        28.8951 
 352   0.0000       1.062540        28.9132 
 353   0.0000       1.069427        29.1006 
 354   0.0000       1.072997        29.1977 
 355   0.0000       1.075156        29.2565 
 356   0.0000       1.079137        29.3648 
 357   0.0000       1.082551        29.4577 
 358   0.0000       1.085719        29.5439 
 359   0.0000       1.089486        29.6464 
 360   0.0000       1.096981        29.8504 
 361   0.0000       1.103810        30.0362 
 362   0.0000       1.108677        30.1686 
 363   0.0000       1.113489        30.2996 
 364   0.0000       1.116666        30.3860 
 365   0.0000       1.122166        30.5357 
 366   0.0000       1.127345        30.6766 
 367   0.0000       1.129784        30.7430 
 368   0.0000       1.130464        30.7615 
 369   0.0000       1.138858        30.9899 
 370   0.0000       1.142532        31.0899 
 371   0.0000       1.144208        31.1355 
 372   0.0000       1.149752        31.2863 
 373   0.0000       1.153860        31.3981 
 374   0.0000       1.159390        31.5486 
 375   0.0000       1.161769        31.6133 
 376   0.0000       1.167436        31.7676 
 377   0.0000       1.170750        31.8577 
 378   0.0000       1.177104        32.0306 
 379   0.0000       1.182561        32.1791 
 380   0.0000       1.186224        32.2788 
 381   0.0000       1.189995        32.3814 
 382   0.0000       1.190764        32.4023 
 383   0.0000       1.200149        32.6577 
 384   0.0000       1.204262        32.7696 
 385   0.0000       1.208480        32.8844 
 386   0.0000       1.209475        32.9115 
 387   0.0000       1.214002        33.0347 
 388   0.0000       1.222573        33.2679 
 389   0.0000       1.225367        33.3439 
 390   0.0000       1.228813        33.4377 
 391   0.0000       1.231435        33.5090 
 392   0.0000       1.238512        33.7016 
 393   0.0000       1.243120        33.8270 
 394   0.0000       1.246405        33.9164 
 395   0.0000       1.249719        34.0066 
 396   0.0000       1.259468        34.2719 
 397   0.0000       1.261968        34.3399 
 398   0.0000       1.267076        34.4789 
 399   0.0000       1.273737        34.6601 
 400   0.0000       1.276936        34.7472 
 401   0.0000       1.288032        35.0491 
 402   0.0000       1.290965        35.1289 
 403   0.0000       1.297380        35.3035 
 404   0.0000       1.302391        35.4399 
 405   0.0000       1.306320        35.5468 
 406   0.0000       1.312995        35.7284 
 407   0.0000       1.315098        35.7856 
 408   0.0000       1.316217        35.8161 
 409   0.0000       1.327198        36.1149 
 410   0.0000       1.332474        36.2585 
 411   0.0000       1.344056        36.5736 
 412   0.0000       1.347223        36.6598 
 413   0.0000       1.350457        36.7478 
 414   0.0000       1.355447        36.8836 
 415   0.0000       1.361318        37.0434 
 416   0.0000       1.368695        37.2441 
 417   0.0000       1.370299        37.2877 
 418   0.0000       1.375138        37.4194 
 419   0.0000       1.383131        37.6369 
 420   0.0000       1.389111        37.7996 
 421   0.0000       1.393365        37.9154 
 422   0.0000       1.398915        38.0664 
 423   0.0000       1.409511        38.3547 
 424   0.0000       1.410698        38.3871 
 425   0.0000       1.421087        38.6697 
 426   0.0000       1.423690        38.7406 
 427   0.0000       1.427029        38.8314 
 428   0.0000       1.434977        39.0477 
 429   0.0000       1.442578        39.2545 
 430   0.0000       1.444925        39.3184 
 431   0.0000       1.447818        39.3971 
 432   0.0000       1.452412        39.5222 
 433   0.0000       1.456074        39.6218 
 434   0.0000       1.465837        39.8874 
 435   0.0000       1.469757        39.9941 
 436   0.0000       1.479747        40.2660 
 437   0.0000       1.481882        40.3240 
 438   0.0000       1.490299        40.5531 
 439   0.0000       1.490691        40.5638 
 440   0.0000       1.492274        40.6068 
 441   0.0000       1.498886        40.7868 
 442   0.0000       1.503175        40.9035 
 443   0.0000       1.509611        41.0786 
 444   0.0000       1.511431        41.1281 
 445   0.0000       1.518272        41.3143 
 446   0.0000       1.523097        41.4456 
 447   0.0000       1.529135        41.6099 
 448   0.0000       1.530356        41.6431 
 449   0.0000       1.542126        41.9634 
 450   0.0000       1.545022        42.0422 
 451   0.0000       1.551509        42.2187 
 452   0.0000       1.558493        42.4088 
 453   0.0000       1.560284        42.4575 
 454   0.0000       1.565463        42.5984 
 455   0.0000       1.570502        42.7355 
 456   0.0000       1.572685        42.7949 
 457   0.0000       1.576774        42.9062 
 458   0.0000       1.579326        42.9756 
 459   0.0000       1.586919        43.1823 
 460   0.0000       1.597266        43.4638 
 461   0.0000       1.599776        43.5321 
 462   0.0000       1.604898        43.6715 
 463   0.0000       1.614620        43.9360 
 464   0.0000       1.616485        43.9868 
 465   0.0000       1.620846        44.1055 
 466   0.0000       1.626167        44.2503 
 467   0.0000       1.636564        44.5332 
 468   0.0000       1.640044        44.6279 
 469   0.0000       1.645598        44.7790 
 470   0.0000       1.651282        44.9337 
 471   0.0000       1.654672        45.0259 
 472   0.0000       1.663878        45.2764 
 473   0.0000       1.667872        45.3851 
 474   0.0000       1.673196        45.5300 
 475   0.0000       1.680261        45.7222 
 476   0.0000       1.687085        45.9079 
 477   0.0000       1.690584        46.0031 
 478   0.0000       1.691991        46.0414 
 479   0.0000       1.698734        46.2249 
 480   0.0000       1.705570        46.4109 
 481   0.0000       1.709670        46.5225 
 482   0.0000       1.717382        46.7323 
 483   0.0000       1.724428        46.9241 
 484   0.0000       1.727290        47.0019 
 485   0.0000       1.729403        47.0594 
 486   0.0000       1.732142        47.1340 
 487   0.0000       1.738822        47.3157 
 488   0.0000       1.739712        47.3400 
 489   0.0000       1.748469        47.5782 
 490   0.0000       1.753518        47.7156 
 491   0.0000       1.761041        47.9204 
 492   0.0000       1.768536        48.1243 
 493   0.0000       1.770929        48.1894 
 494   0.0000       1.779299        48.4172 
 495   0.0000       1.784764        48.5659 
 496   0.0000       1.786020        48.6001 
 497   0.0000       1.787619        48.6436 
 498   0.0000       1.792486        48.7760 
 499   0.0000       1.794976        48.8438 
 500   0.0000       1.803803        49.0840 
 501   0.0000       1.808657        49.2160 
 502   0.0000       1.825669        49.6790 
 503   0.0000       1.829150        49.7737 
 504   0.0000       1.830046        49.7981 
 505   0.0000       1.832571        49.8668 
 506   0.0000       1.836822        49.9825 
 507   0.0000       1.841295        50.1042 
 508   0.0000       1.850527        50.3554 
 509   0.0000       1.858142        50.5626 
 510   0.0000       1.861079        50.6425 
 511   0.0000       1.864438        50.7339 
 512   0.0000       1.870154        50.8895 
 513   0.0000       1.874498        51.0077 
 514   0.0000       1.879319        51.1389 
 515   0.0000       1.881609        51.2012 
 516   0.0000       1.892631        51.5011 
 517   0.0000       1.896760        51.6135 
 518   0.0000       1.899420        51.6858 
 519   0.0000       1.903608        51.7998 
 520   0.0000       1.908689        51.9381 
 521   0.0000       1.914921        52.1077 
 522   0.0000       1.918777        52.2126 
 523   0.0000       1.924101        52.3574 
 524   0.0000       1.927242        52.4429 
 525   0.0000       1.929233        52.4971 
 526   0.0000       1.941883        52.8413 
 527   0.0000       1.944853        52.9221 
 528   0.0000       1.952464        53.1293 
 529   0.0000       1.956701        53.2445 
 530   0.0000       1.971454        53.6460 
 531   0.0000       1.976533        53.7842 
 532   0.0000       1.979993        53.8783 
 533   0.0000       1.981998        53.9329 
 534   0.0000       1.990188        54.1558 
 535   0.0000       1.992686        54.2237 
 536   0.0000       2.011318        54.7307 
 537   0.0000       2.012010        54.7496 
 538   0.0000       2.018182        54.9175 
 539   0.0000       2.021203        54.9997 
 540   0.0000       2.030143        55.2430 
 541   0.0000       2.034033        55.3489 
 542   0.0000       2.038283        55.4645 
 543   0.0000       2.045002        55.6473 
 544   0.0000       2.049844        55.7791 
 545   0.0000       2.063841        56.1600 
 546   0.0000       2.072837        56.4048 
 547   0.0000       2.078251        56.5521 
 548   0.0000       2.085653        56.7535 
 549   0.0000       2.096400        57.0459 
 550   0.0000       2.098910        57.1142 
 551   0.0000       2.101064        57.1729 
 552   0.0000       2.106366        57.3171 
 553   0.0000       2.108101        57.3643 
 554   0.0000       2.116452        57.5916 
 555   0.0000       2.130678        57.9787 
 556   0.0000       2.139095        58.2077 
 557   0.0000       2.148849        58.4732 
 558   0.0000       2.152432        58.5707 
 559   0.0000       2.166175        58.9446 
 560   0.0000       2.172619        59.1200 
 561   0.0000       2.174853        59.1808 
 562   0.0000       2.179258        59.3006 
 563   0.0000       2.182852        59.3984 
 564   0.0000       2.194785        59.7231 
 565   0.0000       2.202099        59.9222 
 566   0.0000       2.204988        60.0008 
 567   0.0000       2.224307        60.5265 
 568   0.0000       2.229060        60.6558 
 569   0.0000       2.232522        60.7500 
 570   0.0000       2.247889        61.1682 
 571   0.0000       2.248695        61.1901 
 572   0.0000       2.251630        61.2700 
 573   0.0000       2.261912        61.5497 
 574   0.0000       2.271091        61.7995 
 575   0.0000       2.279469        62.0275 
 576   0.0000       2.281405        62.0802 
 577   0.0000       2.288090        62.2621 
 578   0.0000       2.292692        62.3873 
 579   0.0000       2.295894        62.4745 
 580   0.0000       2.302755        62.6612 
 581   0.0000       2.311633        62.9027 
 582   0.0000       2.319969        63.1296 
 583   0.0000       2.323994        63.2391 
 584   0.0000       2.332312        63.4654 
 585   0.0000       2.333181        63.4891 
 586   0.0000       2.341951        63.7277 
 587   0.0000       2.357472        64.1501 
 588   0.0000       2.359010        64.1919 
 589   0.0000       2.368348        64.4460 
 590   0.0000       2.381202        64.7958 
 591   0.0000       2.391566        65.0778 
 592   0.0000       2.402013        65.3621 
 593   0.0000       2.403663        65.4070 
 594   0.0000       2.406296        65.4786 
 595   0.0000       2.415241        65.7221 
 596   0.0000       2.424880        65.9843 
 597   0.0000       2.433210        66.2110 
 598   0.0000       2.447715        66.6057 
 599   0.0000       2.455607        66.8205 
 600   0.0000       2.463881        67.0456 
 601   0.0000       2.466407        67.1144 
 602   0.0000       2.473129        67.2973 
 603   0.0000       2.482372        67.5488 
 604   0.0000       2.494109        67.8682 
 605   0.0000       2.504360        68.1471 
 606   0.0000       2.507449        68.2312 
 607   0.0000       2.514954        68.4354 
 608   0.0000       2.519748        68.5658 
 609   0.0000       2.538741        69.0826 
 610   0.0000       2.553090        69.4731 
 611   0.0000       2.553963        69.4969 
 612   0.0000       2.569532        69.9205 
 613   0.0000       2.592037        70.5329 
 614   0.0000       2.599728        70.7422 
 615   0.0000       2.611839        71.0718 
 616   0.0000       2.633249        71.6543 
 617   0.0000       2.641702        71.8844 
 618   0.0000       2.655527        72.2606 
 619   0.0000       2.660402        72.3932 
 620   0.0000       2.675155        72.7947 
 621   0.0000       2.678578        72.8878 
 622   0.0000       2.697046        73.3904 
 623   0.0000       2.697544        73.4039 
 624   0.0000       2.706841        73.6569 
 625   0.0000       2.717615        73.9501 
 626   0.0000       2.724308        74.1322 
 627   0.0000       2.731205        74.3199 
 628   0.0000       2.734394        74.4066 
 629   0.0000       2.736510        74.4642 
 630   0.0000       2.747239        74.7562 
 631   0.0000       2.767612        75.3106 
 632   0.0000       2.776176        75.5436 
 633   0.0000       2.781331        75.6839 
 634   0.0000       2.788481        75.8784 
 635   0.0000       2.800341        76.2011 
 636   0.0000       2.811026        76.4919 
 637   0.0000       2.836423        77.1830 
 638   0.0000       2.841574        77.3232 
 639   0.0000       2.844992        77.4162 
 640   0.0000       2.872043        78.1523 
 641   0.0000       2.885617        78.5216 
 642   0.0000       2.901449        78.9524 
 643   0.0000       2.908674        79.1491 
 644   0.0000       2.917108        79.3786 
 645   0.0000       2.920008        79.4575 
 646   0.0000       2.935380        79.8758 
 647   0.0000       2.948223        80.2252 
 648   0.0000       2.970498        80.8314 
 649   0.0000       2.978522        81.0497 
 650   0.0000       2.989736        81.3549 
 651   0.0000       3.013018        81.9884 
 652   0.0000       3.020398        82.1892 
 653   0.0000       3.038554        82.6832 
 654   0.0000       3.056064        83.1597 
 655   0.0000       3.064812        83.3978 
 656   0.0000       3.078793        83.7782 
 657   0.0000       3.096122        84.2498 
 658   0.0000       3.117426        84.8295 
 659   0.0000       3.126502        85.0765 
 660   0.0000       3.135095        85.3103 
 661   0.0000       3.149403        85.6996 
 662   0.0000       3.172998        86.3417 
 663   0.0000       3.176944        86.4491 
 664   0.0000       3.192224        86.8648 
 665   0.0000       3.202745        87.1511 
 666   0.0000       3.210153        87.3527 
 667   0.0000       3.218192        87.5715 
 668   0.0000       3.222107        87.6780 
 669   0.0000       3.235680        88.0473 
 670   0.0000       3.249732        88.4297 
 671   0.0000       3.255313        88.5816 
 672   0.0000       3.268352        88.9364 
 673   0.0000       3.275912        89.1421 
 674   0.0000       3.279764        89.2469 
 675   0.0000       3.296166        89.6932 
 676   0.0000       3.304466        89.9191 
 677   0.0000       3.314490        90.1919 
 678   0.0000       3.320162        90.3462 
 679   0.0000       3.328448        90.5717 
 680   0.0000       3.332465        90.6810 
 681   0.0000       3.347361        91.0863 
 682   0.0000       3.355541        91.3089 
 683   0.0000       3.363650        91.5296 
 684   0.0000       3.370242        91.7089 
 685   0.0000       3.372322        91.7655 
 686   0.0000       3.408569        92.7519 
 687   0.0000       3.412035        92.8462 
 688   0.0000       3.420302        93.0711 
 689   0.0000       3.428402        93.2916 
 690   0.0000       3.432276        93.3970 
 691   0.0000       3.437966        93.5518 
 692   0.0000       3.448567        93.8403 
 693   0.0000       3.455344        94.0247 
 694   0.0000       3.463936        94.2585 
 695   0.0000       3.469246        94.4030 
 696   0.0000       3.489021        94.9411 
 697   0.0000       3.489681        94.9590 
 698   0.0000       3.507678        95.4488 
 699   0.0000       3.509846        95.5078 
 700   0.0000       3.517343        95.7118 
 701   0.0000       3.530248        96.0629 
 702   0.0000       3.536882        96.2435 
 703   0.0000       3.544607        96.4537 
 704   0.0000       3.556938        96.7892 
 705   0.0000       3.564663        96.9994 
 706   0.0000       3.578500        97.3759 
 707   0.0000       3.583367        97.5084 
 708   0.0000       3.593171        97.7751 
 709   0.0000       3.601944        98.0139 
 710   0.0000       3.605467        98.1098 
 711   0.0000       3.616442        98.4084 
 712   0.0000       3.626492        98.6819 
 713   0.0000       3.629263        98.7573 
 714   0.0000       3.643443        99.1431 
 715   0.0000       3.646266        99.2199 
 716   0.0000       3.658756        99.5598 
 717   0.0000       3.668786        99.8328 
 718   0.0000       3.671295        99.9010 
 719   0.0000       3.679572       100.1263 
 720   0.0000       3.688093       100.3581 
 721   0.0000       3.695476       100.5590 
 722   0.0000       3.705728       100.8380 
 723   0.0000       3.722501       101.2944 
 724   0.0000       3.723739       101.3281 
 725   0.0000       3.732000       101.5529 
 726   0.0000       3.736828       101.6842 
 727   0.0000       3.743823       101.8746 
 728   0.0000       3.752993       102.1241 
 729   0.0000       3.757542       102.2479 
 730   0.0000       3.766610       102.4947 
 731   0.0000       3.770976       102.6135 
 732   0.0000       3.774768       102.7167 
 733   0.0000       3.784191       102.9731 
 734   0.0000       3.791156       103.1626 
 735   0.0000       3.796702       103.3135 
 736   0.0000       3.802707       103.4769 
 737   0.0000       3.814977       103.8108 
 738   0.0000       3.817883       103.8899 
 739   0.0000       3.823898       104.0535 
 740   0.0000       3.834651       104.3462 
 741   0.0000       3.849066       104.7384 
 742   0.0000       3.854762       104.8934 
 743   0.0000       3.860944       105.0616 
 744   0.0000       3.864418       105.1562 
 745   0.0000       3.873399       105.4005 
 746   0.0000       3.878302       105.5340 
 747   0.0000       3.884218       105.6950 
 748   0.0000       3.893991       105.9609 
 749   0.0000       3.896624       106.0325 
 750   0.0000       3.911840       106.4466 
 751   0.0000       3.917338       106.5962 
 752   0.0000       3.920269       106.6759 
 753   0.0000       3.925560       106.8199 
 754   0.0000       3.935242       107.0834 
 755   0.0000       3.938731       107.1783 
 756   0.0000       3.940983       107.2396 
 757   0.0000       3.950265       107.4922 
 758   0.0000       3.960169       107.7617 
 759   0.0000       3.965212       107.8989 
 760   0.0000       3.970467       108.0419 
 761   0.0000       3.982324       108.3645 
 762   0.0000       3.995320       108.7182 
 763   0.0000       4.003083       108.9294 
 764   0.0000       4.013456       109.2117 
 765   0.0000       4.020249       109.3965 
 766   0.0000       4.033573       109.7591 
 767   0.0000       4.034994       109.7978 
 768   0.0000       4.039854       109.9300 
 769   0.0000       4.049346       110.1883 
 770   0.0000       4.059912       110.4758 
 771   0.0000       4.067717       110.6882 
 772   0.0000       4.073313       110.8405 
 773   0.0000       4.084679       111.1498 
 774   0.0000       4.090455       111.3069 
 775   0.0000       4.091998       111.3489 
 776   0.0000       4.105079       111.7049 
 777   0.0000       4.107924       111.7823 
 778   0.0000       4.117018       112.0298 
 779   0.0000       4.124905       112.2444 
 780   0.0000       4.133310       112.4731 
 781   0.0000       4.138808       112.6227 
 782   0.0000       4.154280       113.0437 
 783   0.0000       4.154709       113.0554 
 784   0.0000       4.163458       113.2935 
 785   0.0000       4.173649       113.5708 
 786   0.0000       4.185857       113.9030 
 787   0.0000       4.189596       114.0047 
 788   0.0000       4.190520       114.0299 
 789   0.0000       4.212798       114.6361 
 790   0.0000       4.216725       114.7429 
 791   0.0000       4.224550       114.9559 
 792   0.0000       4.229172       115.0816 
 793   0.0000       4.234756       115.2336 
 794   0.0000       4.250899       115.6728 
 795   0.0000       4.255557       115.7996 
 796   0.0000       4.259373       115.9034 
 797   0.0000       4.265477       116.0695 
 798   0.0000       4.280186       116.4698 
 799   0.0000       4.292000       116.7913 
 800   0.0000       4.293747       116.8388 
 801   0.0000       4.308989       117.2535 
 802   0.0000       4.321784       117.6017 
 803   0.0000       4.328463       117.7835 
 804   0.0000       4.333830       117.9295 
 805   0.0000       4.340643       118.1149 
 806   0.0000       4.344161       118.2106 
 807   0.0000       4.355320       118.5143 
 808   0.0000       4.364621       118.7674 
 809   0.0000       4.371548       118.9559 
 810   0.0000       4.380762       119.2066 
 811   0.0000       4.387024       119.3770 
 812   0.0000       4.397454       119.6608 
 813   0.0000       4.400968       119.7564 
 814   0.0000       4.413557       120.0990 
 815   0.0000       4.429967       120.5455 
 816   0.0000       4.437203       120.7424 
 817   0.0000       4.442080       120.8751 
 818   0.0000       4.448179       121.0411 
 819   0.0000       4.465625       121.5158 
 820   0.0000       4.469481       121.6208 
 821   0.0000       4.483487       122.0019 
 822   0.0000       4.487629       122.1146 
 823   0.0000       4.491778       122.2275 
 824   0.0000       4.494303       122.2962 
 825   0.0000       4.505441       122.5993 
 826   0.0000       4.522664       123.0679 
 827   0.0000       4.551957       123.8650 
 828   0.0000       4.557037       124.0033 
 829   0.0000       4.570370       124.3661 
 830   0.0000       4.580539       124.6428 
 831   0.0000       4.582413       124.6938 
 832   0.0000       4.590528       124.9146 
 833   0.0000       4.603253       125.2609 
 834   0.0000       4.610456       125.4569 
 835   0.0000       4.618210       125.6679 
 836   0.0000       4.628878       125.9582 
 837   0.0000       4.635118       126.1280 
 838   0.0000       4.654287       126.6496 
 839   0.0000       4.667277       127.0031 
 840   0.0000       4.680148       127.3533 
 841   0.0000       4.683840       127.4538 
 842   0.0000       4.697175       127.8166 
 843   0.0000       4.709205       128.1440 
 844   0.0000       4.714056       128.2760 
 845   0.0000       4.738469       128.9403 
 846   0.0000       4.749972       129.2533 
 847   0.0000       4.768424       129.7554 
 848   0.0000       4.773704       129.8991 
 849   0.0000       4.789854       130.3385 
 850   0.0000       4.796779       130.5270 
 851   0.0000       4.802264       130.6763 
 852   0.0000       4.828489       131.3899 
 853   0.0000       4.835346       131.5765 
 854   0.0000       4.841280       131.7379 
 855   0.0000       4.856065       132.1403 
 856   0.0000       4.864704       132.3753 
 857   0.0000       4.884864       132.9239 
 858   0.0000       4.893114       133.1484 
 859   0.0000       4.912501       133.6759 
 860   0.0000       4.918640       133.8430 
 861   0.0000       4.924196       133.9942 
 862   0.0000       4.930598       134.1684 
 863   0.0000       4.940545       134.4391 
 864   0.0000       4.947209       134.6204 
 865   0.0000       4.955690       134.8512 
 866   0.0000       4.976291       135.4118 
 867   0.0000       4.987710       135.7225 
 868   0.0000       4.992560       135.8545 
 869   0.0000       5.014380       136.4482 
 870   0.0000       5.023031       136.6836 
 871   0.0000       5.031360       136.9103 
 872   0.0000       5.032863       136.9512 
 873   0.0000       5.037647       137.0814 
 874   0.0000       5.059230       137.6686 
 875   0.0000       5.073562       138.0587 
 876   0.0000       5.089809       138.5007 
 877   0.0000       5.097588       138.7124 
 878   0.0000       5.118368       139.2779 
 879   0.0000       5.126585       139.5015 
 880   0.0000       5.134013       139.7036 
 881   0.0000       5.143468       139.9609 
 882   0.0000       5.158002       140.3564 
 883   0.0000       5.175647       140.8365 
 884   0.0000       5.193518       141.3228 
 885   0.0000       5.198636       141.4621 
 886   0.0000       5.212677       141.8441 
 887   0.0000       5.215959       141.9335 
 888   0.0000       5.229526       142.3026 
 889   0.0000       5.249714       142.8520 
 890   0.0000       5.252926       142.9394 
 891   0.0000       5.273994       143.5127 
 892   0.0000       5.278885       143.6458 
 893   0.0000       5.300488       144.2336 
 894   0.0000       5.307804       144.4327 
 895   0.0000       5.314113       144.6044 
 896   0.0000       5.341748       145.3563 
 897   0.0000       5.352766       145.6562 
 898   0.0000       5.367734       146.0635 
 899   0.0000       5.379037       146.3710 
 900   0.0000       5.387021       146.5883 
 901   0.0000       5.392679       146.7422 
 902   0.0000       5.400968       146.9678 
 903   0.0000       5.407561       147.1472 
 904   0.0000       5.436710       147.9404 
 905   0.0000       5.451538       148.3439 
 906   0.0000       5.453711       148.4030 
 907   0.0000       5.459782       148.5682 
 908   0.0000       5.467483       148.7778 
 909   0.0000       5.491579       149.4335 
 910   0.0000       5.502545       149.7319 
 911   0.0000       5.523653       150.3063 
 912   0.0000       5.533213       150.5664 
 913   0.0000       5.540869       150.7747 
 914   0.0000       5.556060       151.1881 
 915   0.0000       5.565152       151.4355 
 916   0.0000       5.578577       151.8008 
 917   0.0000       5.585231       151.9819 
 918   0.0000       5.602595       152.4544 
 919   0.0000       5.606014       152.5474 
 920   0.0000       5.636034       153.3643 
 921   0.0000       5.644754       153.6016 
 922   0.0000       5.651000       153.7715 
 923   0.0000       5.654636       153.8705 
 924   0.0000       5.661379       154.0539 
 925   0.0000       5.685622       154.7136 
 926   0.0000       5.688522       154.7926 
 927   0.0000       5.696140       154.9998 
 928   0.0000       5.716667       155.5584 
 929   0.0000       5.721482       155.6894 
 930   0.0000       5.728791       155.8883 
 931   0.0000       5.739190       156.1713 
 932   0.0000       5.758516       156.6972 
 933   0.0000       5.768306       156.9636 
 934   0.0000       5.771961       157.0630 
 935   0.0000       5.777382       157.2106 
 936   0.0000       5.793749       157.6559 
 937   0.0000       5.819797       158.3647 
 938   0.0000       5.833986       158.7508 
 939   0.0000       5.850955       159.2126 
 940   0.0000       5.873263       159.8196 
 941   0.0000       5.885876       160.1628 
 942   0.0000       5.894317       160.3925 
 943   0.0000       5.912182       160.8786 
 944   0.0000       5.947359       161.8359 
 945   0.0000       5.991410       163.0346 
 946   0.0000       6.037021       164.2757 
 947   0.0000       6.086778       165.6297 
 948   0.0000       6.118045       166.4805 
 949   0.0000       6.140349       167.0874 
 950   0.0000       6.168073       167.8418 
 951   0.0000       6.174641       168.0205 
 952   0.0000       6.181347       168.2030 
 953   0.0000       6.198732       168.6761 
 954   0.0000       6.221197       169.2874 
 955   0.0000       6.236372       169.7003 
 956   0.0000       6.247269       169.9968 
 957   0.0000       6.259368       170.3261 
 958   0.0000       6.263113       170.4280 
 959   0.0000       6.270802       170.6372 
 960   0.0000       6.287337       171.0871 
 961   0.0000       6.334648       172.3745 
 962   0.0000       6.363092       173.1485 
 963   0.0000       6.372575       173.4066 
 964   0.0000       6.381736       173.6559 
 965   0.0000       6.409742       174.4180 
 966   0.0000       6.428485       174.9280 
 967   0.0000       6.452820       175.5902 
 968   0.0000       6.517739       177.3567 
 969   0.0000       6.547373       178.1631 
 970   0.0000       6.585383       179.1974 
 971   0.0000       6.716430       182.7634 
 972   0.0000       6.838578       186.0872 
 973   0.0000       6.883747       187.3163 
 974   0.0000       6.891522       187.5278 
 975   0.0000       6.911139       188.0617 
 976   0.0000       6.940705       188.8662 
 977   0.0000       6.969094       189.6387 
 978   0.0000       6.981106       189.9655 
 979   0.0000       6.993707       190.3084 
 980   0.0000       7.011071       190.7809 
 981   0.0000       7.016229       190.9213 
 982   0.0000       7.075501       192.5342 
 983   0.0000       7.139536       194.2767 
 984   0.0000       7.167309       195.0324 
 985   0.0000       7.263221       197.6423 
 986   0.0000       7.398289       201.3177 
 987   0.0000       7.464897       203.1302 
 988   0.0000       7.514152       204.4705 
 989   0.0000       7.571112       206.0204 
 990   0.0000       7.576991       206.1804 
 991   0.0000       7.599321       206.7880 
 992   0.0000       7.732045       210.3996 
 993   0.0000       7.778671       211.6684 
 994   0.0000       7.840282       213.3449 
 995   0.0000       7.933216       215.8738 
 996   0.0000       8.080415       219.8793 
 997   0.0000       8.165251       222.1878 
 998   0.0000       8.309623       226.1163 
 999   0.0000       9.430077       256.6054 
 1000   0.0000       9.455779       257.3048 
 1001   0.0000       9.466895       257.6073 
 1002   0.0000       9.474139       257.8044 
 1003   0.0000       9.487460       258.1669 
 1004   0.0000       9.520364       259.0623 
 1005   0.0000       9.751349       265.3477 
 1006   0.0000      10.092538       274.6319 
 1007   0.0000      10.135081       275.7896 
 1008   0.0000      10.143641       276.0225 
 1009   0.0000      10.217943       278.0444 
 1010   0.0000      10.226284       278.2713 
 1011   0.0000      10.264589       279.3137 
 1012   0.0000      10.385960       282.6163 
 1013   0.0000      10.436490       283.9913 
 1014   0.0000      10.550119       287.0833 
 1015   0.0000      17.377598       472.8685 
 1016   0.0000      18.056789       491.3502 
 1017   0.0000      18.523315       504.0450 
 1018   0.0000      18.692075       508.6372 
 1019   0.0000      18.924324       514.9570 
 1020   0.0000      19.237132       523.4690 
 1021   0.0000      20.278857       551.8157 
 1022   0.0000      20.622413       561.1644 
 1023   0.0000      21.818561       593.7132 
 1024   0.0000      21.980496       598.1197 

                 SPIN DOWN ORBITALS
  NO   OCC          E(Eh)            E(eV) 
   0   1.0000    -261.551221     -7117.1706 
   1   1.0000    -104.777859     -2851.1505 
   2   1.0000    -104.777367     -2851.1371 
   3   1.0000    -104.776925     -2851.1251 
   4   1.0000     -32.060663      -872.4150 
   5   1.0000     -27.538666      -749.3652 
   6   1.0000     -27.538548      -749.3620 
   7   1.0000     -27.538161      -749.3515 
   8   1.0000     -20.555365      -559.3399 
   9   1.0000     -11.393864      -310.0428 
  10   1.0000     -11.364558      -309.2454 
  11   1.0000     -11.270583      -306.6882 
  12   1.0000     -11.265000      -306.5362 
  13   1.0000     -11.262572      -306.4702 
  14   1.0000     -11.258121      -306.3490 
  15   1.0000     -11.257099      -306.3212 
  16   1.0000     -11.253809      -306.2317 
  17   1.0000     -10.504278      -285.8359 
  18   1.0000     -10.503812      -285.8233 
  19   1.0000     -10.503407      -285.8122 
  20   1.0000      -7.970257      -216.8817 
  21   1.0000      -7.969752      -216.8680 
  22   1.0000      -7.969562      -216.8628 
  23   1.0000      -7.969476      -216.8605 
  24   1.0000      -7.969298      -216.8556 
  25   1.0000      -7.969065      -216.8493 
  26   1.0000      -7.968992      -216.8473 
  27   1.0000      -7.968724      -216.8400 
  28   1.0000      -7.968647      -216.8379 
  29   1.0000      -4.135927      -112.5443 
  30   1.0000      -2.657717       -72.3202 
  31   1.0000      -2.657555       -72.3157 
  32   1.0000      -2.657078       -72.3028 
  33   1.0000      -1.388035       -37.7703 
  34   1.0000      -1.163690       -31.6656 
  35   1.0000      -1.086415       -29.5629 
  36   1.0000      -1.037243       -28.2248 
  37   1.0000      -1.036447       -28.2032 
  38   1.0000      -1.025161       -27.8960 
  39   1.0000      -1.024664       -27.8825 
  40   1.0000      -0.999100       -27.1869 
  41   1.0000      -0.985261       -26.8103 
  42   1.0000      -0.924213       -25.1491 
  43   1.0000      -0.798588       -21.7307 
  44   1.0000      -0.760420       -20.6921 
  45   1.0000      -0.696160       -18.9435 
  46   1.0000      -0.692673       -18.8486 
  47   1.0000      -0.678172       -18.4540 
  48   1.0000      -0.656041       -17.8518 
  49   1.0000      -0.640057       -17.4168 
  50   1.0000      -0.622033       -16.9264 
  51   1.0000      -0.598521       -16.2866 
  52   1.0000      -0.591377       -16.0922 
  53   1.0000      -0.585661       -15.9366 
  54   1.0000      -0.582437       -15.8489 
  55   1.0000      -0.571906       -15.5623 
  56   1.0000      -0.566376       -15.4119 
  57   1.0000      -0.552524       -15.0349 
  58   1.0000      -0.548090       -14.9143 
  59   1.0000      -0.535656       -14.5760 
  60   1.0000      -0.528255       -14.3745 
  61   1.0000      -0.506994       -13.7960 
  62   1.0000      -0.480573       -13.0771 
  63   1.0000      -0.470654       -12.8072 
  64   1.0000      -0.466016       -12.6809 
  65   1.0000      -0.440590       -11.9891 
  66   1.0000      -0.438531       -11.9330 
  67   1.0000      -0.436158       -11.8685 
  68   1.0000      -0.424306       -11.5459 
  69   1.0000      -0.415481       -11.3058 
  70   1.0000      -0.403610       -10.9828 
  71   1.0000      -0.371118       -10.0986 
  72   0.0000       0.010414         0.2834 
  73   0.0000       0.020838         0.5670 
  74   0.0000       0.022940         0.6242 
  75   0.0000       0.030655         0.8342 
  76   0.0000       0.038155         1.0382 
  77   0.0000       0.039853         1.0845 
  78   0.0000       0.042205         1.1485 
  79   0.0000       0.043541         1.1848 
  80   0.0000       0.044907         1.2220 
  81   0.0000       0.050657         1.3784 
  82   0.0000       0.056457         1.5363 
  83   0.0000       0.060494         1.6461 
  84   0.0000       0.062392         1.6978 
  85   0.0000       0.064494         1.7550 
  86   0.0000       0.067029         1.8239 
  87   0.0000       0.071710         1.9513 
  88   0.0000       0.073902         2.0110 
  89   0.0000       0.081792         2.2257 
  90   0.0000       0.088525         2.4089 
  91   0.0000       0.089166         2.4263 
  92   0.0000       0.091487         2.4895 
  93   0.0000       0.095869         2.6087 
  94   0.0000       0.100422         2.7326 
  95   0.0000       0.103295         2.8108 
  96   0.0000       0.109732         2.9860 
  97   0.0000       0.115333         3.1384 
  98   0.0000       0.118136         3.2146 
  99   0.0000       0.118778         3.2321 
 100   0.0000       0.121098         3.2952 
 101   0.0000       0.121725         3.3123 
 102   0.0000       0.123055         3.3485 
 103   0.0000       0.125287         3.4092 
 104   0.0000       0.127647         3.4734 
 105   0.0000       0.129387         3.5208 
 106   0.0000       0.131308         3.5731 
 107   0.0000       0.132566         3.6073 
 108   0.0000       0.134245         3.6530 
 109   0.0000       0.137390         3.7386 
 110   0.0000       0.137917         3.7529 
 111   0.0000       0.139650         3.8001 
 112   0.0000       0.147572         4.0156 
 113   0.0000       0.148053         4.0287 
 114   0.0000       0.150942         4.1073 
 115   0.0000       0.153871         4.1870 
 116   0.0000       0.157633         4.2894 
 117   0.0000       0.162943         4.4339 
 118   0.0000       0.164324         4.4715 
 119   0.0000       0.166746         4.5374 
 120   0.0000       0.171729         4.6730 
 121   0.0000       0.175390         4.7726 
 122   0.0000       0.178903         4.8682 
 123   0.0000       0.182169         4.9571 
 124   0.0000       0.185461         5.0466 
 125   0.0000       0.187572         5.1041 
 126   0.0000       0.193253         5.2587 
 127   0.0000       0.195525         5.3205 
 128   0.0000       0.197387         5.3712 
 129   0.0000       0.202702         5.5158 
 130   0.0000       0.206011         5.6058 
 131   0.0000       0.206733         5.6255 
 132   0.0000       0.209114         5.6903 
 133   0.0000       0.212706         5.7880 
 134   0.0000       0.216391         5.8883 
 135   0.0000       0.217525         5.9192 
 136   0.0000       0.226050         6.1511 
 137   0.0000       0.226446         6.1619 
 138   0.0000       0.234424         6.3790 
 139   0.0000       0.235689         6.4134 
 140   0.0000       0.238713         6.4957 
 141   0.0000       0.240382         6.5411 
 142   0.0000       0.243314         6.6209 
 143   0.0000       0.246520         6.7082 
 144   0.0000       0.249346         6.7850 
 145   0.0000       0.254376         6.9219 
 146   0.0000       0.258072         7.0225 
 147   0.0000       0.259120         7.0510 
 148   0.0000       0.260895         7.0993 
 149   0.0000       0.266760         7.2589 
 150   0.0000       0.270432         7.3588 
 151   0.0000       0.280732         7.6391 
 152   0.0000       0.282321         7.6823 
 153   0.0000       0.286743         7.8027 
 154   0.0000       0.287587         7.8256 
 155   0.0000       0.293179         7.9778 
 156   0.0000       0.299197         8.1416 
 157   0.0000       0.303194         8.2503 
 158   0.0000       0.305984         8.3263 
 159   0.0000       0.308138         8.3849 
 160   0.0000       0.311922         8.4878 
 161   0.0000       0.315197         8.5769 
 162   0.0000       0.315505         8.5853 
 163   0.0000       0.323331         8.7983 
 164   0.0000       0.330591         8.9958 
 165   0.0000       0.332872         9.0579 
 166   0.0000       0.336998         9.1702 
 167   0.0000       0.342719         9.3259 
 168   0.0000       0.343800         9.3553 
 169   0.0000       0.350479         9.5370 
 170   0.0000       0.354095         9.6354 
 171   0.0000       0.358557         9.7568 
 172   0.0000       0.362419         9.8619 
 173   0.0000       0.364334         9.9140 
 174   0.0000       0.365346         9.9416 
 175   0.0000       0.371701        10.1145 
 176   0.0000       0.372976        10.1492 
 177   0.0000       0.377596        10.2749 
 178   0.0000       0.381385        10.3780 
 179   0.0000       0.384609        10.4657 
 180   0.0000       0.386842        10.5265 
 181   0.0000       0.387466        10.5435 
 182   0.0000       0.390732        10.6324 
 183   0.0000       0.394044        10.7225 
 184   0.0000       0.396519        10.7898 
 185   0.0000       0.400781        10.9058 
 186   0.0000       0.402949        10.9648 
 187   0.0000       0.404509        11.0072 
 188   0.0000       0.411212        11.1897 
 189   0.0000       0.413156        11.2425 
 190   0.0000       0.417559        11.3624 
 191   0.0000       0.421053        11.4574 
 192   0.0000       0.425470        11.5776 
 193   0.0000       0.426293        11.6000 
 194   0.0000       0.427952        11.6452 
 195   0.0000       0.435258        11.8440 
 196   0.0000       0.441033        12.0011 
 197   0.0000       0.448093        12.1932 
 198   0.0000       0.452143        12.3034 
 199   0.0000       0.453770        12.3477 
 200   0.0000       0.457794        12.4572 
 201   0.0000       0.461685        12.5631 
 202   0.0000       0.467685        12.7264 
 203   0.0000       0.469296        12.7702 
 204   0.0000       0.470821        12.8117 
 205   0.0000       0.473621        12.8879 
 206   0.0000       0.474605        12.9147 
 207   0.0000       0.477391        12.9905 
 208   0.0000       0.479153        13.0384 
 209   0.0000       0.484003        13.1704 
 210   0.0000       0.486835        13.2475 
 211   0.0000       0.490759        13.3542 
 212   0.0000       0.494858        13.4658 
 213   0.0000       0.495944        13.4953 
 214   0.0000       0.500548        13.6206 
 215   0.0000       0.503895        13.7117 
 216   0.0000       0.505253        13.7486 
 217   0.0000       0.508192        13.8286 
 218   0.0000       0.514772        14.0077 
 219   0.0000       0.515939        14.0394 
 220   0.0000       0.517174        14.0730 
 221   0.0000       0.519813        14.1448 
 222   0.0000       0.525194        14.2913 
 223   0.0000       0.527712        14.3598 
 224   0.0000       0.532452        14.4888 
 225   0.0000       0.536231        14.5916 
 226   0.0000       0.537791        14.6340 
 227   0.0000       0.545515        14.8442 
 228   0.0000       0.545795        14.8518 
 229   0.0000       0.551469        15.0062 
 230   0.0000       0.553888        15.0721 
 231   0.0000       0.556319        15.1382 
 232   0.0000       0.563965        15.3463 
 233   0.0000       0.564832        15.3698 
 234   0.0000       0.571432        15.5494 
 235   0.0000       0.572971        15.5913 
 236   0.0000       0.576133        15.6774 
 237   0.0000       0.578759        15.7488 
 238   0.0000       0.581349        15.8193 
 239   0.0000       0.586182        15.9508 
 240   0.0000       0.589431        16.0392 
 241   0.0000       0.590271        16.0621 
 242   0.0000       0.603162        16.4129 
 243   0.0000       0.604687        16.4544 
 244   0.0000       0.608237        16.5510 
 245   0.0000       0.610186        16.6040 
 246   0.0000       0.614502        16.7215 
 247   0.0000       0.618064        16.8184 
 248   0.0000       0.623485        16.9659 
 249   0.0000       0.625072        17.0091 
 250   0.0000       0.629876        17.1398 
 251   0.0000       0.633992        17.2518 
 252   0.0000       0.635427        17.2909 
 253   0.0000       0.640189        17.4204 
 254   0.0000       0.642092        17.4722 
 255   0.0000       0.647137        17.6095 
 256   0.0000       0.648418        17.6443 
 257   0.0000       0.654312        17.8047 
 258   0.0000       0.658781        17.9263 
 259   0.0000       0.661784        18.0081 
 260   0.0000       0.668337        18.1864 
 261   0.0000       0.669710        18.2237 
 262   0.0000       0.673672        18.3316 
 263   0.0000       0.677532        18.4366 
 264   0.0000       0.679421        18.4880 
 265   0.0000       0.687337        18.7034 
 266   0.0000       0.692311        18.8387 
 267   0.0000       0.698896        19.0179 
 268   0.0000       0.703259        19.1367 
 269   0.0000       0.706064        19.2130 
 270   0.0000       0.713332        19.4108 
 271   0.0000       0.717433        19.5223 
 272   0.0000       0.722898        19.6711 
 273   0.0000       0.727878        19.8066 
 274   0.0000       0.733524        19.9602 
 275   0.0000       0.735713        20.0198 
 276   0.0000       0.739017        20.1097 
 277   0.0000       0.743755        20.2386 
 278   0.0000       0.749174        20.3861 
 279   0.0000       0.752390        20.4736 
 280   0.0000       0.765024        20.8174 
 281   0.0000       0.766717        20.8634 
 282   0.0000       0.769129        20.9291 
 283   0.0000       0.777241        21.1498 
[...]
  | sigma^2 in % of trace(Dij) retained ...   8.21e+00
  | sigma^2 in % of trace(Dip) retained ...   1.57e+01
  | sigma^2 in % of trace(Dpq) retained ...   1.44e-01
  | Av. % of trace(Di) retained         ...  99.998467085547
  | Av. % of trace(Dp) retained         ...  99.999999486565
  | sigma^2 in % of trace(Di) retained  ...   8.05e-07
  | sigma^2 in % of trace(Dp) retained  ...   3.13e-13
 Distributions of % trace(Dij) recovered:
  |       >= 99.9  ...   103 ( 19.5 % of all IJ-pairs)
  |   [80.0, 90.0) ...    34 (  6.5 % of all IJ-pairs)
  |   [90.0, 99.0) ...   291 ( 55.2 % of all IJ-pairs)
  |   [99.0, 99.9) ...    99 ( 18.8 % of all IJ-pairs)
 Distributions of % trace(Dip) recovered:
  |   [70.0, 80.0) ...     1 (  0.9 % of all IP-pairs)
  |   [80.0, 90.0) ...     9 (  7.8 % of all IP-pairs)
  |   [90.0, 99.0) ...    63 ( 54.3 % of all IP-pairs)
  |   [99.0, 99.9) ...    43 ( 37.1 % of all IP-pairs)
 Distributions of % trace(Dpq) recovered:
  |       >= 99.9  ...     5 ( 33.3 % of all PQ-pairs)
  |   [99.0, 99.9) ...    10 ( 66.7 % of all PQ-pairs)
 Distributions of % trace(Di) recovered :
  |       >= 99.9  ...    43 (100.0 % of all I-pairs )
 Distributions of % trace(Dp) recovered :
  |       >= 99.9  ...     5 (100.0 % of all P-pairs )

                       ===========================
                       1152 OF 1724 PAIRS ARE KEPT
                       ===========================

 Initial PAO correlation energy (all pairs)    ...  -2.6963885827 Eh
 Energy constituents in PAO basis (Eh):
  | Vijab(+0) ...  -2.2660424422
  | Viab (-1) ...  -0.1757789888
  | Vab  (-2) ...  -0.0573574941
  | Va   (-1) ...  -0.0000429432
  | Vija (+1) ...  -0.0731094468
  | Vij  (+2) ...  -0.0155156557
  | Via  (+0) ...  -0.1083809272
  | Vi   (+1) ...  -0.0001606848
 Initial PNO correlation energy                ...  -2.6618401464 Eh
 Energy constituents in PNO basis (Eh):
  | Vijab(+0) ...  -2.2479002674 (err=  0.0181421748)
  | Viab (-1) ...  -0.1611436652 (err=  0.0146353236)
  | Vab  (-2) ...  -0.0568690468 (err=  0.0004884473)
  | Va   (-1) ...  -0.0000246768 (err=  0.0000182664)
  | Vija (+1) ...  -0.0720361307 (err=  0.0010733160)
  | Vij  (+2) ...  -0.0154513088 (err=  0.0000643470)
  | Via  (+0) ...  -0.1082549747 (err=  0.0001259525)
  | Vi   (+1) ...  -0.0001600762 (err=  0.0000006087)
 Sum of total truncation errors ...   0.0345484363 Eh
  | Pair screening ...   0.0111479849 Eh
  | PNO truncation ...   0.0234004514 Eh

 UMP2 correlation energy (PAO) ...  -2.6914372313
  | alpha-alpha ...  -0.3870785180 (NP_aa=  939)
  | alpha-beta  ...  -1.9968108014 (NP_ab= 1699)
  | beta -beta  ...  -0.3075479118 (NP_bb=  727)
 UMP2 correlation energy (PNO) ...  -2.6565124142
  | alpha-alpha ...  -0.3749360610 (err=  0.0121424571, NP_aa=  610)
  | alpha-beta  ...  -1.9779972538 (err=  0.0188135477, NP_ab= 1127)
  | beta -beta  ...  -0.3035790994 (err=  0.0039688124, NP_bb=  484)
 Sum of total UMP2 truncation errors ...   0.0349248171 Eh
  | Pair screening ...   0.0111591622 Eh
  | PNO truncation ...   0.0237656549 Eh
 Timing for NEV-PNO construction (sec.)
  | Intermediate construction  ..           42.880
  | Amplitude construction     ..           62.720
  | Total time                 ..          105.600
 Making pair pair interaction lists ...      ok
 Total size for 2-ext PNO integrals ...     11.1 MB
Checking the number of SOMO/SOMO doubles PNOs ... 
 #Truncate: (72, 72)[172] -> [84] .. 
 #Truncate: (73, 73)[172] -> [84] .. 
 #Truncate: (74, 74)[171] -> [84] .. 
 #Truncate: (75, 75)[171] -> [84] .. 
 #Truncate: (76, 76)[170] -> [84] .. 

--------------------------------
LOCAL RI TRANSFORMATION (VABPAO)
--------------------------------

Number of PAOs:    1030
Basis functions:   1025 (343 shells)
Aux. functions:    2424 (644 shells)

Processing maps (0.0 sec)
Average map sizes:
   Aux shells -> PAOs           1030.0
   PAOs       -> AO shells       343.0

Calculating integrals (188.5 sec, 37370.165 MB)
Finished
-----------------------------
LOCAL RI TRANSFORMATION (IJV)
-----------------------------

Orbital window:      29 to 76
Basis functions:   1025 (343 shells)
Aux. functions:    2424 (644 shells)

Processing maps (0.0 sec)
Average map sizes:
   Aux shells -> MOs(i)           46.6
   Aux shells -> MOs(j)           48.0
   MOs        -> AO shells       341.8

Calculating integrals (22.2 sec, 41.479 MB)
Sorting integrals (0.3 sec, 41.452 MB)
Total time for the integral transformation: 22.6 sec


-------------------------------------
Pair Pair Term precalculation with     
RI-(ij|mn) and (im|jn) transformation  
ON THE FLY                             
-------------------------------------

   IBatch   1 (of   2)              ... done ( 1068.997 sec)
   IBatch   2 (of   2)              ... done ( 1303.704 sec)
Total EXT                           ...        2372.701 sec

---------------------
RI-PNO TRANSFORMATION
---------------------

Total Number of PNOs                   ... 35497
Total Number of IJ-PNOs                ... 31337
Total Number of IP-PNOs                ...  3220
Total Number of PQ-PNOs                ...   940
Total Number of IJ-pairs               ...  1011
Total Number of PI-pairs               ...   116
Total Number of PQ-pairs               ...    25
Average number of PNOs per pair        ...    30
Maximal number of PNOs per pair        ...    84
>> Statistics for ij-pairs..
   #pairs with  1 -  5 PNOs   :    0
   #pairs with  6 - 10 PNOs   :    0
   #pairs with 11 - 15 PNOs   :   64
   #pairs with 16 - 20 PNOs   :  256
   #pairs with 21 - 25 PNOs   :  184
   #pairs with 26 - 30 PNOs   :  144
   #pairs with 31 - 35 PNOs   :   60
   #pairs with 36 - 40 PNOs   :   60
   #pairs with 41 - 45 PNOs   :   50
   #pairs with 46 - 50 PNOs   :   17
   #pairs with 51 - 55 PNOs   :   42
   #pairs with 56 - 60 PNOs   :   51
   #pairs with 61 - 65 PNOs   :   76
   #pairs with 66 - 70 PNOs   :    4
   #pairs with 76 - 80 PNOs   :    3
>> Statistics for ip-pairs..
   #pairs with  1 -  5 PNOs   :    0
   #pairs with  6 - 10 PNOs   :    2
   #pairs with 11 - 15 PNOs   :    9
   #pairs with 16 - 20 PNOs   :    8
   #pairs with 21 - 25 PNOs   :   26
   #pairs with 26 - 30 PNOs   :   11
   #pairs with 31 - 35 PNOs   :   48
   #pairs with 36 - 40 PNOs   :   12
   #pairs with 41 - 45 PNOs   :    0
   #pairs with 46 - 50 PNOs   :    0
>> Statistics for pq-pairs..
   #pairs with  1 -  5 PNOs   :    0
   #pairs with  6 - 10 PNOs   :    0
   #pairs with 11 - 15 PNOs   :    0
   #pairs with 16 - 20 PNOs   :    0
   #pairs with 21 - 25 PNOs   :   12
   #pairs with 26 - 30 PNOs   :    8
   #pairs with 31 - 35 PNOs   :    0
   #pairs with 36 - 40 PNOs   :    0
   #pairs with 41 - 45 PNOs   :    0
   #pairs with 46 - 50 PNOs   :    0
   #pairs with 81 - 85 PNOs   :    5

Generation of (ij|ab)[P] integrals            ... on
Generation of (ia|bc)[P],(ja|bc)[P] integrals ... on
Storage of 3 and 4 external integrals         ... on
Generation of ALL (ka|bc)[P] integrals        ... on
Keep RI integrals in memory                   ... off

Ibatch:  1 (of  1)
Starting 2-4 index PNO integral generation ... done

Timings:
Total PNO integral transformation time     ...       2252.717 sec
Size of the 3-external file                ...       289 MB
Size of the 4-external file                ...      1949 MB
Size of the IKJL file                      ...        20 MB
Size of the all 3-external file            ...      6945 MB
Size of the 1-external file                ...        22 MB

Size of the PAO/PNO coefficient matrices   ...     235.4 MB

Making pair/pair overlap matrices          ... done (  362.848 sec)
Size of the pair overlap file              ...    2543.0 MB
Total # unrestricted pairs ...       2221
  # of alpha-alpha pairs   ...        610
  # of alpha-beta pairs    ...       1127
  # of beta-beta pairs     ...        484
Constructing the guess amplitudes          ... done (    0.619 sec)

-------------------------
FINAL STARTUP INFORMATION
-------------------------

E(0)                                       ...  -3028.411427596
E(SL-UMP2 in NEV-PNO space)                ...     -2.692416568
Initial E(tot)                             ...  -3031.103844164
<T|T>                                      ...      0.536418856
Number of unrestricted pairs included      ... 2221
Total number of pairs                      ... 4095
----------------------------------------------------------
                     OPEN-SHELL COUPLED CLUSTER ITERATIONS
----------------------------------------------------------

Number of PNO amplitudes to be optimized        ...          2159959
Number of canonical amplitudes for strong pairs ...       2006050467
Untruncated number of canonical amplitudes      ...       3698645738

Iter       E(tot)           E(Corr)          Delta-E          Residual     Time
  0  -3031.111056500     -2.663724751      0.028691817      0.022125842 1941.51
                           *** Turning on DIIS ***
  1  -3031.222488854     -2.775157104     -0.111432354      0.009362075 1975.97
  2  -3031.286970528     -2.839638779     -0.064481675      0.008759699 2225.43
  3  -3031.308028717     -2.860696967     -0.021058188      0.003180076 2240.76
  4  -3031.315065835     -2.867734086     -0.007037119      0.002780306 2223.85
  5  -3031.318727747     -2.871395998     -0.003661912      0.001922470 2269.78
  6  -3031.320050099     -2.872718350     -0.001322352      0.000848135 2247.55
  7  -3031.320811894     -2.873480144     -0.000761795      0.000474040 2221.24
  8  -3031.320968044     -2.873636294     -0.000156150      0.000191691 2279.76
  9  -3031.321014128     -2.873682379     -0.000046084      0.000071941 2249.12
 10  -3031.321009412     -2.873677662      0.000004717      0.000059334 2205.87
 11  -3031.321018340     -2.873686590     -0.000008928      0.000031462 2277.79
 12  -3031.321022918     -2.873691168     -0.000004578      0.000015268 2206.73
 13  -3031.321024993     -2.873693243     -0.000002075      0.000011839 2256.88
 14  -3031.321025654     -2.873693905     -0.000000661      0.000005169 2255.65
               --- The CCSD iterations have converged ---

E(0)                                       ...  -3028.411427596
E(CORR)(strong-pairs)                      ...     -2.873693905
E(CORR)(weak-pairs)                        ...     -0.035904154
E(CORR)(corrected)                         ...     -2.909598058
E(TOT)                                     ...  -3031.321025654
Singles norm <S|S>**1/2                    ...      0.187371958 ( 0.061763658, 0.125608301)  
T1 diagnostic                              ...      0.019641918                              
<S**2>(linearized)                         ...      8.7507632 (ideal value:      8.7500000)

----------------------
LARGEST PNO AMPLITUDES
----------------------
  45a-> 78a  45b-> 78b       0.061696
  45a-> 77a  45b-> 77b       0.059088
  51b-> 76b  -1b-> -1b       0.057378
  49b-> 72b  -1b-> -1b       0.047345
  52b-> 76b  -1b-> -1b       0.046958
  49b-> 75b  -1b-> -1b       0.045537
  49b-> 74b  -1b-> -1b       0.045119
  58a-> 77a  58b-> 77b       0.044929
  44a-> 78a  44b-> 78b       0.044589
  56a-> 77a  56b-> 77b       0.044558
  66a-> 77a  66b-> 77b       0.044350
  52b-> 73b  -1b-> -1b       0.043385
  62a-> 77a  62b-> 77b       0.043280
  70a-> 77a  70b-> 77b       0.042929
  39b-> 73b  -1b-> -1b       0.042886
  59a-> 77a  59b-> 77b       0.042820

Total # unrestricted pairs ...       1144
  # of alpha-alpha pairs   ...        329
  # of alpha-beta pairs    ...        572
  # of beta-beta pairs     ...        243

-------------------------------------------
DLPNO BASED TRIPLES CORRECTION
-------------------------------------------

Singles multiplier          ...  1.000000
Fragment selection                          .... not used
TCutTNO                     ... 1.000e-09
TCutMP2Pairs                ... 1.000e-05
TCutDOStrong                ... 2.000e-02
TCutMKNStrong               ... 1.000e-02
TCutDOWeak                  ... 4.000e-02
TCutMKNWeak                 ... 1.000e-01
NTCutTNO                    ... 1

Number of Triples that are to be computed         ...     36368

 . . . . . . . . .
10% done  
20% done  
30% done  
40% done  
50% done  
60% done  
70% done  
80% done  
90% done  
          Batch   1   done (  17496.092 sec)

Triples-Correction TCutTNO=   1.000e-09 (NWeakPairs = 0  1  2  3)  -0.118141216525   -0.001824879435    0.000000000000    0.000000000000
Triples-Correction  -0.119966095960

Triples timings:
Total time                      ... 18206.123 sec

Triples List generation         ...     0.000 sec
TNO generation                  ...   709.769 sec
Pair density generation         ...     0.096 sec
Look up tables                  ...     0.126 sec
Generating 3-index integrals    ... 10968.112 sec
Make 4-ind.int. from 3-ind.int  ...     4.019 sec
Projecting amplitudes (D + S)   ...  6240.884 sec
Sorting integrals for spin cases...    58.677 sec
Calculate W0/W1                 ...   181.115 sec
Energy contr. (sum over a,b,c)  ...    43.129 sec

Everything after 3-index        ...  6676.522 sec

Energy contribution AAA         ...    27.585 sec
Energy contribution AAB         ...   124.847 sec
Energy contribution ABB         ...   114.823 sec
Energy contribution BBB         ...    15.710 sec
prep                ...     3.450 sec
makeTTNO            ...  6177.488 sec
copyij              ...     0.140 sec
copyil              ...     4.555 sec
transposeij         ...     0.084 sec
newMatInDoubleProj  ...    60.314 sec
BlasInDoubleProj    ...  3350.179 sec
ProjSingles         ...    52.324 sec
ProjDoubles         ...  6188.559 sec
overall Doubles for projection      ... 3330084
used Doubles for projection         ... 3330084


Number of Triples   (0, 1, 2, 3 weak pairs; overall):  18180   11984       0       0  ( 30164)
Number of Atoms     (0, 1, 2, 3 weak pairs; overall):   20.4    14.9     0.0     0.0  (    29)
Number of PAOs      (0, 1, 2, 3 weak pairs; overall):  783.0   599.3     0.0     0.0  (  1025)
Number of AuxFcns   (0, 1, 2, 3 weak pairs; overall):  979.2   576.3     0.0     0.0  (  2424)
Number of TNOs (0, 1, 2, 3 weak pairs         ):   78.6    56.2     0.0     0.0
Aver. Number of NTNO, Atoms, PAOs, AuxFcns / Triples:  30164    69.7    18.2   710.0   819.1

Triples Correction (T)                     ...     -0.119966096
    alpha-alpha-alpha ... -0.003937125 (  3.3%)
    alpha-alpha-beta  ... -0.056306763 ( 46.9%)
    alpha-beta -beta  ... -0.055562241 ( 46.3%)
    beta -beta -beta  ... -0.004159966 (  3.5%)
Final correlation energy                   ...     -3.029564154
E(CCSD)                                    ...  -3031.321025654
E(CCSD(T))                                 ...  -3031.440991750

----------------------------
STATISTICS FOR PAIR-ENERGIES
----------------------------
Minimum, maximum and average ratios of UMP and CCSD pair-energies ... 0.48, 1.43, 1.02


------------------------------------------------------------------------------- 
                                     TIMINGS                                   
------------------------------------------------------------------------------- 


Total execution time                   ...    59928.270 sec

Localization of occupied MO's          ...       11.187 sec (  0.0%)
Fock Matrix Formation                  ...     1411.411 sec (  2.4%)
Differential overlap integrals         ...        1.430 sec (  0.0%)
Organizing maps                        ...        1.713 sec (  0.0%)
RI 3-index integral generations        ...      273.239 sec (  0.5%)
RI-PNO integral transformation         ...     5050.979 sec (  8.4%)
Initial Guess                          ...     1893.632 sec (  3.2%)
DIIS Solver                            ...       20.750 sec (  0.0%)
State Vector Update                    ...        0.745 sec (  0.0%)
Sigma-vector construction              ...    33077.890 sec ( 55.2%)
  <0|H|D>                              ...        0.032 sec (  0.0% of sigma)
  <D|H|D>(0-ext)                       ...     6212.482 sec ( 18.8% of sigma)
  <D|H|D>(2-ext Fock)                  ...        1.581 sec (  0.0% of sigma)
  <D|H|D>(2-ext)                       ...     4590.546 sec ( 13.9% of sigma)
  <D|H|D>(4-ext)                       ...      151.232 sec (  0.5% of sigma)
  <D|H|D>(4-ext-corr)                  ...      941.691 sec (  2.8% of sigma)
  CCSD doubles correction              ...      581.285 sec (  1.8% of sigma)
  <S|H|S>                              ...      810.811 sec (  2.5% of sigma)
  <S|H|D>(1-ext)                       ...      274.869 sec (  0.8% of sigma)
  <D|H|S>(1-ext)                       ...        1.088 sec (  0.0% of sigma)
  <S|H|D>(3-ext)                       ...       23.490 sec (  0.1% of sigma)
  CCSD singles correction              ...        0.004 sec (  0.0% of sigma)
  Fock-dressing                        ...    10223.901 sec ( 30.9% of sigma)
  Singles amplitudes                   ...      123.930 sec (  0.4% of sigma)
  (ik|jl)-dressing                     ...     7150.610 sec ( 21.6% of sigma)
  (ij|ab),(ia|jb)-dressing             ...     1813.995 sec (  5.5% of sigma)
  Pair energies                        ...        0.147 sec (  0.0% of sigma)
Total Time for computing (T)           ...    18528.521 sec ( 30.9% of ALL)


-------------------------   --------------------
FINAL SINGLE POINT ENERGY     -3031.440991749947
-------------------------   --------------------


                            ***************************************
                            *     ORCA property calculations      *
                            ***************************************

                                    ---------------------
                                    Active property flags
                                    ---------------------
   (+) Dipole Moment


------------------------------------------------------------------------------
                       ORCA ELECTRIC PROPERTIES CALCULATION
------------------------------------------------------------------------------

Dipole Moment Calculation                       ... on
Quadrupole Moment Calculation                   ... off
Polarizability Calculation                      ... off
GBWName                                         ... simple-grid-205-210-b3lyp_d3bj-631gd-gas-singlepoint-DLPNO_CCSD_T1-NormalPNO-augtz-gas.gbw
Electron density file                           ... simple-grid-205-210-b3lyp_d3bj-631gd-gas-singlepoint-DLPNO_CCSD_T1-NormalPNO-augtz-gas.scfp.tmp
The origin for moment calculation is the CENTER OF MASS  = ( 0.306205,  0.019489  0.017785)

-------------
DIPOLE MOMENT
-------------
                                X             Y             Z
Electronic contribution:     41.31193       2.80373       2.15188
Nuclear contribution   :    -45.62462      -2.90389      -2.65002
                        -----------------------------------------
Total Dipole Moment    :     -4.31269      -0.10016      -0.49814
                        -----------------------------------------
Magnitude (a.u.)       :      4.34252
Magnitude (Debye)      :     11.03780



--------------------
Rotational spectrum 
--------------------
 
Rotational constants in cm-1:     0.019406     0.011525     0.010648 
Rotational constants in MHz :   581.775332   345.522685   319.233485 

 Dipole components along the rotational axes: 
x,y,z [a.u.] :     4.313335    -0.123227    -0.487241 
x,y,z [Debye]:    10.963627    -0.313218    -1.238468 

 

Timings for individual modules:

Sum of individual times         ...    77162.447 sec (=1286.041 min)
GTO integral calculation        ...       11.738 sec (=   0.196 min)   0.0 %
SCF iterations                  ...    17204.462 sec (= 286.741 min)  22.3 %
MDCI module                     ...    59946.247 sec (= 999.104 min)  77.7 %
                             ****ORCA TERMINATED NORMALLY****
TOTAL RUN TIME: 0 days 21 hours 26 minutes 4 seconds 940 msec
