
                                 *****************
                                 * O   R   C   A *
                                 *****************

           --- An Ab Initio, DFT and Semiempirical electronic structure package ---

                  #######################################################
                  #                        -***-                        #
                  #          Department of theory and spectroscopy      #
                  #               Directorship: Frank Neese             #
                  #        Max Planck Institute fuer Kohlenforschung    #
                  #                Kaiser Wilhelm Platz 1               #
                  #                 D-45470 Muelheim/Ruhr               #
                  #                      Germany                        #
                  #                                                     #
                  #                  All rights reserved                #
                  #                        -***-                        #
                  #######################################################


                         Program Version 4.1.2  - RELEASE  -


 With contributions from (in alphabetic order):
   Daniel Aravena         : Magnetic Properties
   Michael Atanasov       : Ab Initio Ligand Field Theory
   Alexander A. Auer      : GIAO ZORA
   Ute Becker             : Parallelization
   Giovanni Bistoni       : ED, Open-shell LED
   Martin Brehm           : Molecular dynamics
   Dmytro Bykov           : SCF Hessian
   Vijay G. Chilkuri      : MRCI spin determinant printing
   Dipayan Datta          : RHF DLPNO-CCSD density
   Achintya Kumar Dutta   : EOM-CC, STEOM-CC
   Dmitry Ganyushin       : Spin-Orbit,Spin-Spin,Magnetic field MRCI
   Miquel Garcia          : C-PCM Hessian
   Yang Guo               : DLPNO-NEVPT2, CIM, IAO-localization
   Andreas Hansen         : Spin unrestricted coupled pair/coupled cluster methods
   Benjamin Helmich-Paris : CASSCF linear response (MC-RPA)
   Lee Huntington         : MR-EOM, pCC
   Robert Izsak           : Overlap fitted RIJCOSX, COSX-SCS-MP3, EOM
   Christian Kollmar      : KDIIS, OOCD, Brueckner-CCSD(T), CCSD density
   Simone Kossmann        : Meta GGA functionals, TD-DFT gradient, OOMP2, MP2 Hessian
   Martin Krupicka        : AUTO-CI
   Lucas Lang             : DCDCAS
   Dagmar Lenk            : GEPOL surface, SMD
   Dimitrios Liakos       : Extrapolation schemes; parallel MDCI
   Dimitrios Manganas     : ROCIS; embedding schemes
   Dimitrios Pantazis     : SARC Basis sets
   Taras Petrenko         : DFT Hessian,TD-DFT gradient, ASA, ECA, R-Raman, ABS, FL, XAS/XES, NRVS
   Peter Pinski           : DLPNO-MP2, DLPNO-MP2 Gradient
   Christoph Reimann      : Effective Core Potentials
   Marius Retegan         : Local ZFS, SOC
   Christoph Riplinger    : Optimizer, TS searches, QM/MM, DLPNO-CCSD(T), (RO)-DLPNO pert. Triples
   Tobias Risthaus        : Range-separated hybrids, TD-DFT gradient, RPA, STAB
   Michael Roemelt        : Restricted open shell CIS
   Masaaki Saitow         : Open-shell DLPNO
   Barbara Sandhoefer     : DKH picture change effects
   Avijit Sen             : IP-ROCIS
   Kantharuban Sivalingam : CASSCF convergence, NEVPT2, FIC-MRCI
   Bernardo de Souza      : ESD, SOC TD-DFT
   Georgi Stoychev        : AutoAux, RI-MP2 NMR
   Willem Van den Heuvel  : Paramagnetic NMR
   Boris Wezisla          : Elementary symmetry handling
   Frank Wennmohs         : Technical directorship


 We gratefully acknowledge several colleagues who have allowed us to
 interface, adapt or use parts of their codes:
   Stefan Grimme, W. Hujo, H. Kruse,             : VdW corrections, initial TS optimization,
                  C. Bannwarth                     DFT functionals, gCP, sTDA/sTD-DF
   Ed Valeev                                     : LibInt (2-el integral package), F12 methods
   Garnet Chan, S. Sharma, J. Yang, R. Olivares  : DMRG
   Ulf Ekstrom                                   : XCFun DFT Library
   Mihaly Kallay                                 : mrcc  (arbitrary order and MRCC methods)
   Andreas Klamt, Michael Diedenhofen            : otool_cosmo (COSMO solvation model)
   Jiri Pittner, Ondrej Demel                    : Mk-CCSD
   Frank Weinhold                                : gennbo (NPA and NBO analysis)
   Christopher J. Cramer and Donald G. Truhlar   : smd solvation model
   Lars Goerigk                                  : TD-DFT with DH, B97 family of functionals
   V. Asgeirsson, H. Jonsson                     : NEB implementation
   FAccTs GmbH                                   : IRC, NEB, NEB-TS, Multilevel


 Your calculation uses the libint2 library for the computation of 2-el integrals
 For citations please refer to: http://libint.valeyev.net

 This ORCA versions uses:
   CBLAS   interface :  Fast vector & matrix operations
   LAPACKE interface :  Fast linear algebra routines
   SCALAPACK package :  Parallel linear algebra routines


----- Orbital basis set information -----
Your calculation utilizes the basis: aug-cc-pVTZ 
    H, B-Ne : Obtained from the ccRepo (grant-hill.group.shef.ac.uk/ccrepo) Feb. 2017
              R. A. Kendall, T. H. Dunning, Jr., R. J. Harrison, J. Chem. Phys. 96, 6796 (1992)
         He : Obtained from the ccRepo (grant-hill.group.shef.ac.uk/ccrepo) Feb. 2017
              D. E. Woon, T. H. Dunning, Jr., J. Chem. Phys. 100, 2975 (1994)
  Li-Be, Na : Obtained from the ccRepo (grant-hill.group.shef.ac.uk/ccrepo) Feb. 2017
              B. P. Prascher, D. E. Woon, K. A. Peterson, T. H. Dunning, Jr., A. K. Wilson, Theor. Chem. Acc. 128, 69 (2011)
         Mg : Obtained from the Peterson Research Group Website (tyr0.chem.wsu.edu/~kipeters) Feb. 2017
              B. P. Prascher, D. E. Woon, K. A. Peterson, T. H. Dunning, Jr., A. K. Wilson, Theor. Chem. Acc. 128, 69 (2011)
      Al-Ar : Obtained from the ccRepo (grant-hill.group.shef.ac.uk/ccrepo) Feb. 2017
              D. E. Woon, T. H. Dunning, Jr., J. Chem. Phys. 98, 1358 (1993)
      Sc-Zn : Obtained from the ccRepo (grant-hill.group.shef.ac.uk/ccrepo) Feb. 2017
              N. B. Balabanov, K. A. Peterson, J. Chem. Phys. 123, 064107 (2005)
              N. B. Balabanov, K. A. Peterson, J. Chem. Phys. 125, 074110 (2006)
      Ga-Kr : Obtained from the ccRepo (grant-hill.group.shef.ac.uk/ccrepo) Feb. 2017
              A. K. Wilson, D. E. Woon, K. A. Peterson, T. H. Dunning, Jr., J. Chem. Phys. 110, 7667 (1999)
     Ag, Au : Obtained from the Peterson Research Group Website (tyr0.chem.wsu.edu/~kipeters) Feb. 2017
              K. A. Peterson, C. Puzzarini, Theor. Chem. Acc. 114, 283 (2005)

----- AuxJ basis set information -----
Your calculation utilizes the AutoAux generation procedure.
  G. L. Stoychev, A. A. Auer, F. Neese, J. Chem. Theory Comput. 13, 554 (2017)

----- AuxC basis set information -----
Your calculation utilizes the auxiliary basis: aug-cc-pVTZ/C 
  H-He, B-F, Al-Ar, Ga-Kr : Obtained from the EMSL Basis Set Exchange (bse.pnl.gov) Feb. 2017
                            F. Weigend, A. Kohn, C. Hattig, J. Chem. Phys. 116, 3175 (2002)
                   Be, Mg : Obtained from the TURBOMOLE 7.0 basis set library
                            C. Haettig, Phys. Chem. Chem. Phys. 7, 59 (2005)
                       Ne : Obtained from the EMSL Basis Set Exchange (bse.pnl.gov) Feb. 2017
                            C. Haettig, Phys. Chem. Chem. Phys. 7, 59 (2005)
                            F. Weigend, A. Kohn, C. Hattig, J. Chem. Phys. 116, 3175 (2002)
                    Sc-Zn : Obtained from the EMSL Basis Set Exchange (bse.pnl.gov) Feb. 2017
                            J. G. Hill, J. A. Platts, J. Chem. Phys. 128, 044104 (2008)

----- AuxJK basis set information -----
Your calculation utilizes the AutoAux generation procedure.
  G. L. Stoychev, A. A. Auer, F. Neese, J. Chem. Theory Comput. 13, 554 (2017)

================================================================================
                                        WARNINGS
                       Please study these warnings very carefully!
================================================================================


WARNING: your system is open-shell and RHF/RKS was chosen
  ===> : WILL SWITCH to UHF/UKS


WARNING: MDCI localization with Augmented Hessian Foster-Boys
  ===> : Switching off randomization!

WARNING: Post HF methods need fully converged wavefunctions
  ===> : Setting SCFConvForced true
         You can overwrite this default with %scf ConvForced false 


INFO   : the flag for use of LIBINT has been found!

================================================================================
                                       INPUT FILE
================================================================================
NAME = simple-grid-165-265-b3lyp_d3bj-631gd-gas-singlepoint-DLPNO_CCSD_T1-NormalPNO-augtz-gas.inp
|  1> ! aug-cc-pVTZ aug-cc-pVTZ/C DLPNO-CCSD(T1) TightSCF NormalPNO UNO MiniPrint AutoAux
|  2> %pal nproc 10 end
|  3> %maxcore 20000
|  4> %mdci
|  5>      density none
|  6> end
|  7> 
|  8> * xyz 0 6
|  9>  O     -0.35288500     -0.08814400     -0.41484300
| 10>  C     -1.26910200     -1.08207200     -0.27347100
| 11>  C     -2.50261100     -0.47244100      0.63719200
| 12>  C     -2.83899900      0.75073300     -0.04326900
| 13>  C     -3.88952700      0.77369800     -1.09136000
| 14> Fe      1.46100300      0.17169300     -0.07671400
| 15> Cl      1.69876600      2.26553400     -0.75173500
| 16>  C     -2.06858000      1.95347300      0.17877200
| 17> Cl      2.56177300     -1.36051100     -1.20987600
| 18> Cl      1.74151800     -0.00773900      2.11777800
| 19>  H     -3.30605300     -1.20686200      0.52808700
| 20>  H     -2.43965500      2.84288500     -0.33066800
| 21>  H     -1.80763500      2.14375700      1.22217900
| 22>  H     -1.08773800      1.62623100     -0.27398700
| 23>  H     -4.72876000      1.36474300     -0.69101200
| 24>  H     -3.54558000      1.30986200     -1.98429300
| 25>  H     -4.26081700     -0.21577100     -1.35850500
| 26>  C     -2.06939400     -0.30721100      2.10196100
| 27>  H     -2.77504500      0.33442600      2.63926700
| 28>  H     -2.06079700     -1.27824400      2.59938600
| 29>  H     -1.06772100      0.12072700      2.18198000
| 30>  C     -0.72426800     -2.29712400      0.50039400
| 31>  H     -1.51087200     -3.03144300      0.70149200
| 32>  H      0.03937500     -2.76286100     -0.13035800
| 33>  H     -0.24761300     -2.00202200      1.43510400
| 34>  C     -1.77020600     -1.53517500     -1.65382300
| 35>  H     -0.93818600     -2.03535000     -2.15723000
| 36>  H     -2.60641900     -2.23956000     -1.58331700
| 37>  H     -2.05832000     -0.68647700     -2.27803500
| 38> *
| 39> 
| 40> 
| 41>                          ****END OF INPUT****
================================================================================

                       ****************************
                       * Single Point Calculation *
                       ****************************

---------------------------------
CARTESIAN COORDINATES (ANGSTROEM)
---------------------------------
  O     -0.352885   -0.088144   -0.414843
  C     -1.269102   -1.082072   -0.273471
  C     -2.502611   -0.472441    0.637192
  C     -2.838999    0.750733   -0.043269
  C     -3.889527    0.773698   -1.091360
  Fe     1.461003    0.171693   -0.076714
  Cl     1.698766    2.265534   -0.751735
  C     -2.068580    1.953473    0.178772
  Cl     2.561773   -1.360511   -1.209876
  Cl     1.741518   -0.007739    2.117778
  H     -3.306053   -1.206862    0.528087
  H     -2.439655    2.842885   -0.330668
  H     -1.807635    2.143757    1.222179
  H     -1.087738    1.626231   -0.273987
  H     -4.728760    1.364743   -0.691012
  H     -3.545580    1.309862   -1.984293
  H     -4.260817   -0.215771   -1.358505
  C     -2.069394   -0.307211    2.101961
  H     -2.775045    0.334426    2.639267
  H     -2.060797   -1.278244    2.599386
  H     -1.067721    0.120727    2.181980
  C     -0.724268   -2.297124    0.500394
  H     -1.510872   -3.031443    0.701492
  H      0.039375   -2.762861   -0.130358
  H     -0.247613   -2.002022    1.435104
  C     -1.770206   -1.535175   -1.653823
  H     -0.938186   -2.035350   -2.157230
  H     -2.606419   -2.239560   -1.583317
  H     -2.058320   -0.686477   -2.278035

----------------------------
CARTESIAN COORDINATES (A.U.)
----------------------------
  NO LB      ZA    FRAG     MASS         X           Y           Z
   0 O     8.0000    0    15.999   -0.666856   -0.166568   -0.783940
   1 C     6.0000    0    12.011   -2.398255   -2.044820   -0.516785
   2 C     6.0000    0    12.011   -4.729249   -0.892784    1.204118
   3 C     6.0000    0    12.011   -5.364931    1.418680   -0.081767
   4 C     6.0000    0    12.011   -7.350141    1.462077   -2.062372
   5 Fe   26.0000    0    55.850    2.760896    0.324453   -0.144968
   6 Cl   17.0000    0    35.453    3.210203    4.281239   -1.420573
   7 C     6.0000    0    12.011   -3.909050    3.691529    0.337830
   8 Cl   17.0000    0    35.453    4.841049   -2.570993   -2.286334
   9 Cl   17.0000    0    35.453    3.290992   -0.014625    4.002020
  10 H     1.0000    0     1.008   -6.247535   -2.280639    0.997940
  11 H     1.0000    0     1.008   -4.610280    5.372274   -0.624872
  12 H     1.0000    0     1.008   -3.415935    4.051114    2.309584
  13 H     1.0000    0     1.008   -2.055527    3.073131   -0.517760
  14 H     1.0000    0     1.008   -8.936061    2.578991   -1.305823
  15 H     1.0000    0     1.008   -6.700175    2.475280   -3.749770
  16 H     1.0000    0     1.008   -8.051777   -0.407748   -2.567202
  17 C     6.0000    0    12.011   -3.910588   -0.580545    3.972131
  18 H     1.0000    0     1.008   -5.244075    0.631974    4.987492
  19 H     1.0000    0     1.008   -3.894342   -2.415531    4.912128
  20 H     1.0000    0     1.008   -2.017700    0.228141    4.123345
  21 C     6.0000    0    12.011   -1.368668   -4.340935    0.945608
  22 H     1.0000    0     1.008   -2.855134   -5.728597    1.325628
  23 H     1.0000    0     1.008    0.074408   -5.221051   -0.246341
  24 H     1.0000    0     1.008   -0.467921   -3.783273    2.711954
  25 C     6.0000    0    12.011   -3.345205   -2.901060   -3.125273
  26 H     1.0000    0     1.008   -1.772915   -3.846254   -4.076574
  27 H     1.0000    0     1.008   -4.925418   -4.232155   -2.992036
  28 H     1.0000    0     1.008   -3.889661   -1.297254   -4.304862



           ************************************************************
           *        Program running with 10 parallel MPI-processes    *
           *              working on a common directory               *
           ************************************************************


           ************************************************************
           *        Program running with 10 parallel MPI-processes    *
           *              working on a common directory               *
           ************************************************************

Diagonalization of the overlap matrix:
Smallest eigenvalue                        ... 5.836e-07
Time for diagonalization                   ...    0.344 sec
Threshold for overlap eigenvalues          ... 1.000e-08
Number of eigenvalues below threshold      ... 0
Time for construction of square roots      ...    0.281 sec
Total time needed                          ...    0.631 sec

-------------------
DFT GRID GENERATION
-------------------

General Integration Accuracy     IntAcc      ...  4.340
Radial Grid Type                 RadialGrid  ... Gauss-Chebyshev
Angular Grid (max. acc.)         AngularGrid ... Lebedev-110
Angular grid pruning method      GridPruning ... 3 (G Style)
Weight generation scheme         WeightScheme... Becke
Basis function cutoff            BFCut       ...    1.0000e-11
Integration weight cutoff        WCut        ...    1.0000e-14
Grids for H and He will be reduced by one unit

# of grid points (after initial pruning)     ...  36112 (   0.0 sec)
# of grid points (after weights+screening)   ...  32269 (   0.1 sec)
nearest neighbour list constructed           ...    0.0 sec
Grid point re-assignment to atoms done       ...    0.0 sec
Grid point division into batches done        ...    0.0 sec
Reduced shell lists constructed in    0.3 sec

Total number of grid points                  ...    32269
Total number of batches                      ...      522
Average number of points per batch           ...       61
Average number of grid points per atom       ...     1113
Average number of shells per batch           ...   295.33 (86.10%)
Average number of basis functions per batch  ...   878.93 (85.75%)
Average number of large shells per batch     ...   243.59 (82.48%)
Average number of large basis fcns per batch ...   723.44 (82.31%)
Maximum spatial batch extension              ...   3.32,  3.10,  3.66 au
Average spatial batch extension              ...   0.17,  0.16,  0.17 au

Time for grid setup =    0.382 sec

Loading Hartree-Fock densities                     ... done
Calculating cut-offs                               ... done
Setting up the integral package                    ... done
Initializing the effective Hamiltonian             ... done
Starting the Coulomb interaction                   ... done (   1.1 sec)
Reading the grid                                   ... done
Mapping shells                                     ... done
Starting the XC term evaluation                    ... done (   0.9 sec)
Transforming the Hamiltonian                       ... done (   0.2 sec)
Diagonalizing the Hamiltonian                      ... done (   0.4 sec)
Back transforming the eigenvectors                 ... done (   0.1 sec)
Now organizing SCF variables                       ... done
--------------
SCF ITERATIONS
--------------
ITER       Energy         Delta-E        Max-DP      RMS-DP      [F,P]     Damp
               ***  Starting incremental Fock matrix formation  ***
  0  -3027.5659595985   0.000000000000 0.52347038  0.00126184  0.2946591 0.7000
  1  -3027.8157104756  -0.249750877090 0.37620415  0.00097656  0.1688663 0.7000
                               ***Turning on DIIS***
  2  -3027.9828382050  -0.167127729414 0.25687048  0.00071222  0.1096212 0.7000
  3  -3029.6825793849  -1.699741179911 0.54078295  0.00175606  0.0824104 0.0000
  4  -3028.2913584057   1.391220979194 0.04916150  0.00023170  0.0185246 0.0000
  5  -3028.4104169076  -0.119058501816 0.03999331  0.00017402  0.0111474 0.0000
  6  -3028.4363163685  -0.025899460981 0.02082675  0.00007150  0.0051174 0.0000
  7  -3028.4520945755  -0.015778206938 0.00902870  0.00003425  0.0032002 0.0000
  8  -3028.4498946829   0.002199892557 0.00587082  0.00001989  0.0013904 0.0000
  9  -3028.4399929721   0.009901710768 0.00211223  0.00001193  0.0006627 0.0000
 10  -3028.4300715839   0.009921388293 0.00074502  0.00000348  0.0003806 0.0000
 11  -3028.4353077450  -0.005236161119 0.00034215  0.00000201  0.0001200 0.0000
 12  -3028.4320540461   0.003253698865 0.00037932  0.00000164  0.0000206 0.0000
 13  -3028.4322857237  -0.000231677604 0.00123600  0.00000260  0.0000097 0.0000
 14  -3028.4323490541  -0.000063330389 0.00133002  0.00000270  0.0000041 0.0000
 15  -3028.4323146070   0.000034447082 0.00166694  0.00000338  0.0000020 0.0000
 16  -3028.4323607365  -0.000046129484 0.00142338  0.00000293  0.0000022 0.0000
 17  -3028.4323681246  -0.000007388113 0.00146275  0.00000279  0.0000010 0.0000
                            ***DIIS convergence achieved***

               *****************************************************
               *                     SUCCESS                       *
               *           SCF CONVERGED AFTER  18 CYCLES          *
               *****************************************************

Total Energy       :        -3028.43235204 Eh          -82407.83383 eV
  Last Energy change         ...    1.6081e-05  Tolerance :   1.0000e-08
  Last MAX-Density change    ...    1.8371e-03  Tolerance :   1.0000e-07
             **** THE GBW FILE WAS UPDATED (simple-grid-165-265-b3lyp_d3bj-631gd-gas-singlepoint-DLPNO_CCSD_T1-NormalPNO-augtz-gas.gbw) ****
             **** DENSITY FILE WAS UPDATED (simple-grid-165-265-b3lyp_d3bj-631gd-gas-singlepoint-DLPNO_CCSD_T1-NormalPNO-augtz-gas.scfp.tmp) ****
             **** ENERGY FILE WAS UPDATED (simple-grid-165-265-b3lyp_d3bj-631gd-gas-singlepoint-DLPNO_CCSD_T1-NormalPNO-augtz-gas.en.tmp) ****
----------------------
UHF SPIN CONTAMINATION
----------------------

Expectation value of <S**2>     :     8.764407
Ideal value S*(S+1) for S=2.5   :     8.750000
Deviation                       :     0.014407

----------------
ORBITAL ENERGIES
----------------
                 SPIN UP ORBITALS
  NO   OCC          E(Eh)            E(eV) 
   0   1.0000    -261.538959     -7116.8369 
   1   1.0000    -104.767566     -2850.8704 
   2   1.0000    -104.766963     -2850.8540 
   3   1.0000    -104.765146     -2850.8046 
   4   1.0000     -32.206896      -876.3942 
   5   1.0000     -27.682730      -753.2854 
   6   1.0000     -27.682650      -753.2832 
   7   1.0000     -27.682370      -753.2756 
   8   1.0000     -20.533686      -558.7500 
   9   1.0000     -11.403375      -310.3016 
  10   1.0000     -11.341555      -308.6194 
  11   1.0000     -11.307911      -307.7039 
  12   1.0000     -11.291914      -307.2686 
  13   1.0000     -11.276893      -306.8599 
  14   1.0000     -11.255494      -306.2776 
  15   1.0000     -11.242447      -305.9225 
  16   1.0000     -11.232023      -305.6389 
  17   1.0000     -10.494143      -285.5601 
  18   1.0000     -10.493499      -285.5426 
  19   1.0000     -10.491734      -285.4946 
  20   1.0000      -7.961023      -216.6305 
  21   1.0000      -7.960336      -216.6118 
  22   1.0000      -7.960191      -216.6078 
  23   1.0000      -7.960128      -216.6061 
  24   1.0000      -7.959590      -216.5915 
  25   1.0000      -7.959494      -216.5889 
  26   1.0000      -7.958549      -216.5631 
  27   1.0000      -7.957837      -216.5437 
  28   1.0000      -7.957762      -216.5417 
  29   1.0000      -4.562400      -124.1492 
  30   1.0000      -3.174872       -86.3927 
  31   1.0000      -3.174600       -86.3852 
  32   1.0000      -3.174026       -86.3696 
  33   1.0000      -1.367730       -37.2178 
  34   1.0000      -1.205398       -32.8005 
  35   1.0000      -1.092571       -29.7304 
  36   1.0000      -1.046896       -28.4875 
  37   1.0000      -1.038500       -28.2590 
  38   1.0000      -1.033265       -28.1166 
  39   1.0000      -1.031582       -28.0708 
  40   1.0000      -1.021210       -27.7885 
  41   1.0000      -0.966492       -26.2996 
  42   1.0000      -0.934158       -25.4197 
  43   1.0000      -0.903971       -24.5983 
  44   1.0000      -0.892054       -24.2740 
  45   1.0000      -0.891953       -24.2713 
  46   1.0000      -0.883783       -24.0490 
  47   1.0000      -0.883460       -24.0402 
  48   1.0000      -0.805157       -21.9094 
  49   1.0000      -0.768638       -20.9157 
  50   1.0000      -0.716703       -19.5025 
  51   1.0000      -0.700069       -19.0499 
  52   1.0000      -0.679202       -18.4820 
  53   1.0000      -0.648964       -17.6592 
  54   1.0000      -0.647061       -17.6074 
  55   1.0000      -0.633369       -17.2349 
  56   1.0000      -0.612265       -16.6606 
  57   1.0000      -0.600343       -16.3362 
  58   1.0000      -0.591403       -16.0929 
  59   1.0000      -0.584155       -15.8957 
  60   1.0000      -0.570848       -15.5336 
  61   1.0000      -0.562567       -15.3082 
  62   1.0000      -0.553780       -15.0691 
  63   1.0000      -0.537615       -14.6292 
  64   1.0000      -0.528568       -14.3831 
  65   1.0000      -0.513616       -13.9762 
  66   1.0000      -0.499756       -13.5991 
  67   1.0000      -0.464096       -12.6287 
  68   1.0000      -0.458738       -12.4829 
  69   1.0000      -0.439333       -11.9549 
  70   1.0000      -0.431210       -11.7338 
  71   1.0000      -0.418351       -11.3839 
  72   1.0000      -0.414067       -11.2673 
  73   1.0000      -0.409878       -11.1534 
  74   1.0000      -0.406715       -11.0673 
  75   1.0000      -0.405381       -11.0310 
  76   1.0000      -0.404704       -11.0126 
  77   0.0000      -0.002044        -0.0556 
  78   0.0000       0.001344         0.0366 
  79   0.0000       0.017124         0.4660 
  80   0.0000       0.017874         0.4864 
  81   0.0000       0.027402         0.7457 
  82   0.0000       0.037499         1.0204 
  83   0.0000       0.037968         1.0332 
  84   0.0000       0.040856         1.1118 
  85   0.0000       0.044625         1.2143 
  86   0.0000       0.048885         1.3302 
  87   0.0000       0.057979         1.5777 
  88   0.0000       0.058256         1.5852 
  89   0.0000       0.060054         1.6342 
  90   0.0000       0.061886         1.6840 
  91   0.0000       0.063664         1.7324 
  92   0.0000       0.071993         1.9590 
  93   0.0000       0.074826         2.0361 
  94   0.0000       0.077637         2.1126 
  95   0.0000       0.088116         2.3978 
  96   0.0000       0.090586         2.4650 
  97   0.0000       0.092255         2.5104 
  98   0.0000       0.093977         2.5572 
  99   0.0000       0.096668         2.6305 
 100   0.0000       0.099558         2.7091 
 101   0.0000       0.106751         2.9048 
 102   0.0000       0.112831         3.0703 
 103   0.0000       0.115697         3.1483 
 104   0.0000       0.120490         3.2787 
 105   0.0000       0.122284         3.3275 
 106   0.0000       0.126924         3.4538 
 107   0.0000       0.131740         3.5848 
 108   0.0000       0.132739         3.6120 
 109   0.0000       0.133204         3.6247 
 110   0.0000       0.137418         3.7393 
 111   0.0000       0.139993         3.8094 
 112   0.0000       0.145969         3.9720 
 113   0.0000       0.150162         4.0861 
 114   0.0000       0.154289         4.1984 
 115   0.0000       0.155004         4.2179 
 116   0.0000       0.157618         4.2890 
 117   0.0000       0.160384         4.3643 
 118   0.0000       0.161967         4.4073 
 119   0.0000       0.164080         4.4648 
 120   0.0000       0.168455         4.5839 
 121   0.0000       0.171732         4.6731 
 122   0.0000       0.174405         4.7458 
 123   0.0000       0.175262         4.7691 
 124   0.0000       0.179671         4.8891 
 125   0.0000       0.185759         5.0548 
 126   0.0000       0.186347         5.0708 
 127   0.0000       0.188866         5.1393 
 128   0.0000       0.196744         5.3537 
 129   0.0000       0.204457         5.5636 
 130   0.0000       0.205615         5.5951 
 131   0.0000       0.210071         5.7163 
 132   0.0000       0.212555         5.7839 
 133   0.0000       0.217091         5.9074 
 134   0.0000       0.218037         5.9331 
 135   0.0000       0.220746         6.0068 
 136   0.0000       0.225336         6.1317 
 137   0.0000       0.226821         6.1721 
 138   0.0000       0.227946         6.2027 
 139   0.0000       0.229987         6.2583 
 140   0.0000       0.235420         6.4061 
 141   0.0000       0.238364         6.4862 
 142   0.0000       0.241673         6.5763 
 143   0.0000       0.244250         6.6464 
 144   0.0000       0.249737         6.7957 
 145   0.0000       0.252548         6.8722 
 146   0.0000       0.254281         6.9193 
 147   0.0000       0.258311         7.0290 
 148   0.0000       0.259762         7.0685 
 149   0.0000       0.270082         7.3493 
 150   0.0000       0.273356         7.4384 
 151   0.0000       0.274334         7.4650 
 152   0.0000       0.277373         7.5477 
 153   0.0000       0.282567         7.6890 
 154   0.0000       0.287429         7.8213 
 155   0.0000       0.291552         7.9335 
 156   0.0000       0.294694         8.0190 
 157   0.0000       0.299426         8.1478 
 158   0.0000       0.300865         8.1869 
 159   0.0000       0.306838         8.3495 
 160   0.0000       0.310802         8.4574 
 161   0.0000       0.311220         8.4687 
 162   0.0000       0.314793         8.5660 
 163   0.0000       0.322704         8.7812 
 164   0.0000       0.324207         8.8221 
 165   0.0000       0.332204         9.0397 
 166   0.0000       0.335304         9.1241 
 167   0.0000       0.336312         9.1515 
 168   0.0000       0.338300         9.2056 
 169   0.0000       0.339286         9.2324 
 170   0.0000       0.349446         9.5089 
 171   0.0000       0.352751         9.5988 
 172   0.0000       0.353986         9.6325 
 173   0.0000       0.356701         9.7063 
 174   0.0000       0.359568         9.7843 
 175   0.0000       0.362053         9.8520 
 176   0.0000       0.365919         9.9572 
 177   0.0000       0.369913        10.0658 
 178   0.0000       0.373419        10.1612 
 179   0.0000       0.378709        10.3052 
 180   0.0000       0.380330        10.3493 
 181   0.0000       0.385401        10.4873 
 182   0.0000       0.387593        10.5469 
 183   0.0000       0.388683        10.5766 
 184   0.0000       0.391218        10.6456 
 185   0.0000       0.396809        10.7977 
 186   0.0000       0.399663        10.8754 
 187   0.0000       0.401128        10.9153 
 188   0.0000       0.403150        10.9703 
 189   0.0000       0.408947        11.1280 
 190   0.0000       0.413705        11.2575 
 191   0.0000       0.416502        11.3336 
 192   0.0000       0.416753        11.3404 
 193   0.0000       0.425538        11.5795 
 194   0.0000       0.428487        11.6597 
 195   0.0000       0.431726        11.7479 
 196   0.0000       0.438334        11.9277 
 197   0.0000       0.440860        11.9964 
 198   0.0000       0.444811        12.1039 
 199   0.0000       0.446497        12.1498 
 200   0.0000       0.449322        12.2267 
 201   0.0000       0.453376        12.3370 
 202   0.0000       0.454397        12.3648 
 203   0.0000       0.462760        12.5923 
 204   0.0000       0.467355        12.7174 
 205   0.0000       0.469085        12.7645 
 206   0.0000       0.469934        12.7876 
 207   0.0000       0.475701        12.9445 
 208   0.0000       0.478319        13.0157 
 209   0.0000       0.481662        13.1067 
 210   0.0000       0.482521        13.1301 
 211   0.0000       0.487511        13.2658 
 212   0.0000       0.492895        13.4123 
 213   0.0000       0.495474        13.4825 
 214   0.0000       0.496341        13.5061 
 215   0.0000       0.501096        13.6355 
 216   0.0000       0.501510        13.6468 
 217   0.0000       0.505371        13.7518 
 218   0.0000       0.509389        13.8612 
 219   0.0000       0.514109        13.9896 
 220   0.0000       0.517431        14.0800 
 221   0.0000       0.519627        14.1398 
 222   0.0000       0.523344        14.2409 
 223   0.0000       0.525640        14.3034 
 224   0.0000       0.526628        14.3303 
 225   0.0000       0.529535        14.4094 
 226   0.0000       0.535005        14.5582 
 227   0.0000       0.538540        14.6544 
 228   0.0000       0.542599        14.7649 
 229   0.0000       0.545392        14.8409 
 230   0.0000       0.549212        14.9448 
 231   0.0000       0.551492        15.0069 
 232   0.0000       0.553982        15.0746 
 233   0.0000       0.557875        15.1805 
 234   0.0000       0.564281        15.3549 
 235   0.0000       0.565234        15.3808 
 236   0.0000       0.572353        15.5745 
 237   0.0000       0.575590        15.6626 
 238   0.0000       0.579087        15.7578 
 239   0.0000       0.583414        15.8755 
 240   0.0000       0.586795        15.9675 
 241   0.0000       0.590109        16.0577 
 242   0.0000       0.593797        16.1581 
 243   0.0000       0.600248        16.3336 
 244   0.0000       0.600744        16.3471 
 245   0.0000       0.604430        16.4474 
 246   0.0000       0.605859        16.4863 
 247   0.0000       0.610754        16.6195 
 248   0.0000       0.616192        16.7674 
 249   0.0000       0.618043        16.8178 
 250   0.0000       0.621937        16.9238 
 251   0.0000       0.628090        17.0912 
 252   0.0000       0.628865        17.1123 
 253   0.0000       0.631349        17.1799 
 254   0.0000       0.633526        17.2391 
 255   0.0000       0.641405        17.4535 
 256   0.0000       0.651152        17.7187 
 257   0.0000       0.653555        17.7841 
 258   0.0000       0.659242        17.9389 
 259   0.0000       0.660853        17.9827 
 260   0.0000       0.663712        18.0605 
 261   0.0000       0.673197        18.3186 
 262   0.0000       0.676284        18.4026 
 263   0.0000       0.679054        18.4780 
 264   0.0000       0.683549        18.6003 
 265   0.0000       0.687281        18.7019 
 266   0.0000       0.692191        18.8355 
 267   0.0000       0.696562        18.9544 
 268   0.0000       0.696926        18.9643 
 269   0.0000       0.701591        19.0913 
 270   0.0000       0.703049        19.1309 
 271   0.0000       0.712221        19.3805 
 272   0.0000       0.717572        19.5261 
 273   0.0000       0.720858        19.6156 
 274   0.0000       0.724463        19.7136 
 275   0.0000       0.727722        19.8023 
 276   0.0000       0.734771        19.9941 
 277   0.0000       0.735971        20.0268 
 278   0.0000       0.742278        20.1984 
 279   0.0000       0.750952        20.4345 
 280   0.0000       0.752051        20.4643 
 281   0.0000       0.761825        20.7303 
 282   0.0000       0.766287        20.8517 
 283   0.0000       0.770070        20.9547 
 284   0.0000       0.772726        21.0269 
 285   0.0000       0.780286        21.2327 
 286   0.0000       0.785719        21.3805 
 287   0.0000       0.791002        21.5243 
 288   0.0000       0.794057        21.6074 
 289   0.0000       0.802759        21.8442 
 290   0.0000       0.808384        21.9972 
 291   0.0000       0.818046        22.2602 
 292   0.0000       0.823244        22.4016 
 293   0.0000       0.827747        22.5242 
 294   0.0000       0.834137        22.6980 
 295   0.0000       0.838844        22.8261 
 296   0.0000       0.843297        22.9473 
 297   0.0000       0.849780        23.1237 
 298   0.0000       0.852330        23.1931 
 299   0.0000       0.859673        23.3929 
 300   0.0000       0.864112        23.5137 
 301   0.0000       0.867075        23.5943 
 302   0.0000       0.868970        23.6459 
 303   0.0000       0.876922        23.8623 
 304   0.0000       0.883150        24.0317 
 305   0.0000       0.885354        24.0917 
 306   0.0000       0.892028        24.2733 
 307   0.0000       0.894982        24.3537 
 308   0.0000       0.895773        24.3752 
 309   0.0000       0.904215        24.6050 
 310   0.0000       0.909281        24.7428 
 311   0.0000       0.914419        24.8826 
 312   0.0000       0.915396        24.9092 
 313   0.0000       0.920696        25.0534 
 314   0.0000       0.925885        25.1946 
 315   0.0000       0.931985        25.3606 
 316   0.0000       0.934631        25.4326 
 317   0.0000       0.938712        25.5437 
 318   0.0000       0.942247        25.6399 
 319   0.0000       0.947411        25.7804 
 320   0.0000       0.952245        25.9119 
 321   0.0000       0.953739        25.9526 
 322   0.0000       0.959117        26.0989 
 323   0.0000       0.961172        26.1548 
 324   0.0000       0.963685        26.2232 
 325   0.0000       0.968981        26.3673 
 326   0.0000       0.975874        26.5549 
 327   0.0000       0.979694        26.6588 
 328   0.0000       0.982146        26.7255 
 329   0.0000       0.985276        26.8107 
 330   0.0000       0.990333        26.9483 
 331   0.0000       0.991249        26.9733 
 332   0.0000       0.995629        27.0924 
 333   0.0000       0.997367        27.1397 
 334   0.0000       1.002814        27.2880 
 335   0.0000       1.005175        27.3522 
 336   0.0000       1.006871        27.3983 
 337   0.0000       1.010651        27.5012 
 338   0.0000       1.016994        27.6738 
 339   0.0000       1.019449        27.7406 
 340   0.0000       1.023150        27.8413 
 341   0.0000       1.030106        28.0306 
 342   0.0000       1.033373        28.1195 
 343   0.0000       1.037522        28.2324 
 344   0.0000       1.043052        28.3829 
 345   0.0000       1.045891        28.4601 
 346   0.0000       1.049846        28.5678 
 347   0.0000       1.051798        28.6209 
 348   0.0000       1.055527        28.7223 
 349   0.0000       1.060696        28.8630 
 350   0.0000       1.065668        28.9983 
 351   0.0000       1.069817        29.1112 
 352   0.0000       1.071055        29.1449 
 353   0.0000       1.074146        29.2290 
 354   0.0000       1.077027        29.3074 
 355   0.0000       1.080400        29.3992 
 356   0.0000       1.089450        29.6454 
 357   0.0000       1.093236        29.7485 
 358   0.0000       1.096001        29.8237 
 359   0.0000       1.100276        29.9400 
 360   0.0000       1.103687        30.0328 
 361   0.0000       1.105727        30.0884 
 362   0.0000       1.110250        30.2114 
 363   0.0000       1.114210        30.3192 
 364   0.0000       1.119704        30.4687 
 365   0.0000       1.124256        30.5926 
 366   0.0000       1.128349        30.7039 
 367   0.0000       1.134395        30.8685 
 368   0.0000       1.138134        30.9702 
 369   0.0000       1.140749        31.0414 
 370   0.0000       1.142327        31.0843 
 371   0.0000       1.144925        31.1550 
 372   0.0000       1.152002        31.3476 
 373   0.0000       1.155968        31.4555 
 374   0.0000       1.158680        31.5293 
 375   0.0000       1.162352        31.6292 
 376   0.0000       1.168998        31.8100 
 377   0.0000       1.169923        31.8352 
 378   0.0000       1.177628        32.0449 
 379   0.0000       1.178553        32.0701 
 380   0.0000       1.190659        32.3995 
 381   0.0000       1.194514        32.5044 
 382   0.0000       1.201599        32.6972 
 383   0.0000       1.204407        32.7736 
 384   0.0000       1.209522        32.9128 
 385   0.0000       1.212522        32.9944 
 386   0.0000       1.217756        33.1368 
 387   0.0000       1.220814        33.2200 
 388   0.0000       1.227701        33.4075 
 389   0.0000       1.233781        33.5729 
 390   0.0000       1.234788        33.6003 
 391   0.0000       1.241342        33.7786 
 392   0.0000       1.244801        33.8727 
 393   0.0000       1.248706        33.9790 
 394   0.0000       1.250391        34.0249 
 395   0.0000       1.254845        34.1461 
 396   0.0000       1.259236        34.2656 
 397   0.0000       1.267961        34.5030 
 398   0.0000       1.274811        34.6894 
 399   0.0000       1.276408        34.7328 
 400   0.0000       1.283706        34.9314 
 401   0.0000       1.287097        35.0237 
 402   0.0000       1.293506        35.1981 
 403   0.0000       1.299076        35.3496 
 404   0.0000       1.303074        35.4585 
 405   0.0000       1.313068        35.7304 
 406   0.0000       1.316879        35.8341 
 407   0.0000       1.321394        35.9570 
 408   0.0000       1.323474        36.0136 
 409   0.0000       1.328289        36.1446 
 410   0.0000       1.331233        36.2247 
 411   0.0000       1.336029        36.3552 
 412   0.0000       1.341280        36.4981 
 413   0.0000       1.342511        36.5316 
 414   0.0000       1.346501        36.6401 
 415   0.0000       1.360868        37.0311 
 416   0.0000       1.365168        37.1481 
 417   0.0000       1.370138        37.2833 
 418   0.0000       1.374192        37.3937 
 419   0.0000       1.380443        37.5638 
 420   0.0000       1.386002        37.7150 
 421   0.0000       1.390851        37.8470 
 422   0.0000       1.397451        38.0266 
 423   0.0000       1.403300        38.1857 
 424   0.0000       1.409874        38.3646 
 425   0.0000       1.418767        38.6066 
 426   0.0000       1.424636        38.7663 
 427   0.0000       1.427590        38.8467 
 428   0.0000       1.433692        39.0128 
 429   0.0000       1.438021        39.1306 
 430   0.0000       1.440952        39.2103 
 431   0.0000       1.447688        39.3936 
 432   0.0000       1.452126        39.5144 
 433   0.0000       1.461242        39.7624 
 434   0.0000       1.467025        39.9198 
 435   0.0000       1.471037        40.0290 
 436   0.0000       1.471756        40.0485 
 437   0.0000       1.474687        40.1283 
 438   0.0000       1.480254        40.2798 
 439   0.0000       1.491626        40.5892 
 440   0.0000       1.499327        40.7988 
 441   0.0000       1.505161        40.9575 
 442   0.0000       1.510108        41.0921 
 443   0.0000       1.513148        41.1748 
 444   0.0000       1.516756        41.2730 
 445   0.0000       1.521103        41.3913 
 446   0.0000       1.529705        41.6254 
 447   0.0000       1.533381        41.7254 
 448   0.0000       1.541190        41.9379 
 449   0.0000       1.545039        42.0426 
 450   0.0000       1.549527        42.1648 
 451   0.0000       1.553986        42.2861 
 452   0.0000       1.557178        42.3730 
 453   0.0000       1.563541        42.5461 
 454   0.0000       1.573513        42.8175 
 455   0.0000       1.577795        42.9340 
 456   0.0000       1.580382        43.0044 
 457   0.0000       1.591300        43.3015 
 458   0.0000       1.592141        43.3244 
 459   0.0000       1.601187        43.5705 
 460   0.0000       1.603566        43.6353 
 461   0.0000       1.605345        43.6837 
 462   0.0000       1.613924        43.9171 
 463   0.0000       1.619856        44.0785 
 464   0.0000       1.621701        44.1287 
 465   0.0000       1.629120        44.3306 
 466   0.0000       1.629897        44.3517 
 467   0.0000       1.631217        44.3877 
 468   0.0000       1.641711        44.6732 
 469   0.0000       1.646786        44.8113 
 470   0.0000       1.650331        44.9078 
 471   0.0000       1.652192        44.9584 
 472   0.0000       1.658904        45.1411 
 473   0.0000       1.665999        45.3341 
 474   0.0000       1.666644        45.3517 
 475   0.0000       1.676211        45.6120 
 476   0.0000       1.680362        45.7250 
 477   0.0000       1.693073        46.0709 
 478   0.0000       1.696438        46.1624 
 479   0.0000       1.699589        46.2482 
 480   0.0000       1.702292        46.3217 
 481   0.0000       1.708010        46.4773 
 482   0.0000       1.718380        46.7595 
 483   0.0000       1.720481        46.8167 
 484   0.0000       1.723168        46.8898 
 485   0.0000       1.724910        46.9372 
 486   0.0000       1.729379        47.0588 
 487   0.0000       1.736968        47.2653 
 488   0.0000       1.743824        47.4519 
 489   0.0000       1.748981        47.5922 
 490   0.0000       1.758064        47.8393 
 491   0.0000       1.764898        48.0253 
 492   0.0000       1.766785        48.0767 
 493   0.0000       1.771820        48.2137 
 494   0.0000       1.775059        48.3018 
 495   0.0000       1.778973        48.4083 
 496   0.0000       1.785272        48.5797 
 497   0.0000       1.791779        48.7568 
 498   0.0000       1.799401        48.9642 
 499   0.0000       1.806077        49.1459 
 500   0.0000       1.812536        49.3216 
 501   0.0000       1.818072        49.4722 
 502   0.0000       1.822874        49.6029 
 503   0.0000       1.825675        49.6791 
 504   0.0000       1.832507        49.8650 
 505   0.0000       1.841058        50.0977 
 506   0.0000       1.843873        50.1743 
 507   0.0000       1.848288        50.2945 
 508   0.0000       1.858007        50.5589 
 509   0.0000       1.859031        50.5868 
 510   0.0000       1.862594        50.6838 
 511   0.0000       1.868951        50.8567 
 512   0.0000       1.874999        51.0213 
 513   0.0000       1.877709        51.0951 
 514   0.0000       1.885242        51.3000 
 515   0.0000       1.891469        51.4695 
 516   0.0000       1.894255        51.5453 
 517   0.0000       1.896069        51.5947 
 518   0.0000       1.905205        51.8433 
 519   0.0000       1.907231        51.8984 
 520   0.0000       1.916609        52.1536 
 521   0.0000       1.920428        52.2575 
 522   0.0000       1.922911        52.3251 
 523   0.0000       1.927887        52.4605 
 524   0.0000       1.929096        52.4934 
 525   0.0000       1.941745        52.8376 
 526   0.0000       1.942410        52.8557 
 527   0.0000       1.955719        53.2178 
 528   0.0000       1.957066        53.2545 
 529   0.0000       1.960006        53.3345 
 530   0.0000       1.970821        53.6288 
 531   0.0000       1.977241        53.8035 
 532   0.0000       1.981450        53.9180 
 533   0.0000       1.983399        53.9710 
 534   0.0000       1.990104        54.1535 
 535   0.0000       1.996534        54.3285 
 536   0.0000       2.001693        54.4688 
 537   0.0000       2.004377        54.5419 
 538   0.0000       2.012592        54.7654 
 539   0.0000       2.023294        55.0566 
 540   0.0000       2.033347        55.3302 
 541   0.0000       2.033722        55.3404 
 542   0.0000       2.041753        55.5589 
 543   0.0000       2.049055        55.7576 
 544   0.0000       2.063320        56.1458 
 545   0.0000       2.069039        56.3014 
 546   0.0000       2.071211        56.3605 
 547   0.0000       2.076705        56.5100 
 548   0.0000       2.082295        56.6621 
 549   0.0000       2.097690        57.0810 
 550   0.0000       2.101719        57.1907 
 551   0.0000       2.106800        57.3289 
 552   0.0000       2.112046        57.4717 
 553   0.0000       2.116919        57.6043 
 554   0.0000       2.124799        57.8187 
 555   0.0000       2.131288        57.9953 
 556   0.0000       2.132939        58.0402 
 557   0.0000       2.150271        58.5119 
 558   0.0000       2.155408        58.6516 
 559   0.0000       2.164249        58.8922 
 560   0.0000       2.167596        58.9833 
 561   0.0000       2.176720        59.2316 
 562   0.0000       2.180022        59.3214 
 563   0.0000       2.187811        59.5334 
 564   0.0000       2.197420        59.7948 
 565   0.0000       2.203349        59.9562 
 566   0.0000       2.206909        60.0531 
 567   0.0000       2.215738        60.2933 
 568   0.0000       2.221478        60.4495 
 569   0.0000       2.223247        60.4976 
 570   0.0000       2.239125        60.9297 
 571   0.0000       2.243461        61.0477 
 572   0.0000       2.249759        61.2190 
 573   0.0000       2.254895        61.3588 
 574   0.0000       2.260231        61.5040 
 575   0.0000       2.269639        61.7600 
 576   0.0000       2.273464        61.8641 
 577   0.0000       2.278799        62.0093 
 578   0.0000       2.289581        62.3027 
 579   0.0000       2.294121        62.4262 
 580   0.0000       2.303609        62.6844 
 581   0.0000       2.311005        62.8857 
 582   0.0000       2.315413        63.0056 
 583   0.0000       2.330460        63.4151 
 584   0.0000       2.336809        63.5878 
 585   0.0000       2.344771        63.8045 
 586   0.0000       2.348105        63.8952 
 587   0.0000       2.361648        64.2637 
 588   0.0000       2.366078        64.3842 
 589   0.0000       2.370890        64.5152 
 590   0.0000       2.382370        64.8276 
 591   0.0000       2.391000        65.0624 
 592   0.0000       2.406571        65.4861 
 593   0.0000       2.410222        65.5855 
 594   0.0000       2.417265        65.7771 
 595   0.0000       2.423751        65.9536 
 596   0.0000       2.430530        66.1381 
 597   0.0000       2.442530        66.4646 
 598   0.0000       2.446955        66.5850 
 599   0.0000       2.453742        66.7697 
 600   0.0000       2.464367        67.0588 
 601   0.0000       2.470924        67.2373 
 602   0.0000       2.481869        67.5351 
 603   0.0000       2.492073        67.8128 
 604   0.0000       2.499994        68.0283 
 605   0.0000       2.509489        68.2867 
 606   0.0000       2.516746        68.4841 
 607   0.0000       2.538789        69.0840 
 608   0.0000       2.544342        69.2351 
 609   0.0000       2.548783        69.3559 
 610   0.0000       2.567492        69.8650 
 611   0.0000       2.580673        70.2237 
 612   0.0000       2.591549        70.5196 
 613   0.0000       2.609744        71.0148 
 614   0.0000       2.618842        71.2623 
 615   0.0000       2.635221        71.7080 
 616   0.0000       2.642128        71.8959 
 617   0.0000       2.652028        72.1653 
 618   0.0000       2.655202        72.2517 
 619   0.0000       2.676329        72.8266 
 620   0.0000       2.682071        72.9829 
 621   0.0000       2.696042        73.3630 
 622   0.0000       2.706261        73.6411 
 623   0.0000       2.710151        73.7470 
 624   0.0000       2.712619        73.8141 
 625   0.0000       2.719999        74.0149 
 626   0.0000       2.732926        74.3667 
 627   0.0000       2.734058        74.3975 
 628   0.0000       2.747361        74.7595 
 629   0.0000       2.750049        74.8326 
 630   0.0000       2.756548        75.0095 
 631   0.0000       2.764338        75.2215 
 632   0.0000       2.777153        75.5702 
 633   0.0000       2.777867        75.5896 
 634   0.0000       2.784243        75.7631 
 635   0.0000       2.794498        76.0421 
 636   0.0000       2.810665        76.4821 
 637   0.0000       2.832693        77.0815 
 638   0.0000       2.854362        77.6711 
 639   0.0000       2.857089        77.7453 
 640   0.0000       2.878311        78.3228 
 641   0.0000       2.888064        78.5882 
 642   0.0000       2.901418        78.9516 
 643   0.0000       2.919040        79.4311 
 644   0.0000       2.926315        79.6291 
 645   0.0000       2.942347        80.0653 
 646   0.0000       2.947824        80.2144 
 647   0.0000       2.953785        80.3766 
 648   0.0000       2.975190        80.9590 
 649   0.0000       2.988182        81.3126 
 650   0.0000       2.999569        81.6224 
 651   0.0000       3.010366        81.9162 
 652   0.0000       3.015926        82.0675 
 653   0.0000       3.032921        82.5300 
 654   0.0000       3.053805        83.0983 
 655   0.0000       3.072727        83.6132 
 656   0.0000       3.086957        84.0004 
 657   0.0000       3.097295        84.2817 
 658   0.0000       3.116236        84.7971 
 659   0.0000       3.132782        85.2473 
 660   0.0000       3.145252        85.5867 
 661   0.0000       3.162466        86.0551 
 662   0.0000       3.170496        86.2736 
 663   0.0000       3.188156        86.7541 
 664   0.0000       3.196737        86.9876 
 665   0.0000       3.202737        87.1509 
 666   0.0000       3.211081        87.3780 
 667   0.0000       3.221810        87.6699 
 668   0.0000       3.232749        87.9676 
 669   0.0000       3.243669        88.2647 
 670   0.0000       3.250560        88.4522 
 671   0.0000       3.257660        88.6454 
 672   0.0000       3.269086        88.9563 
 673   0.0000       3.274330        89.0991 
 674   0.0000       3.286295        89.4246 
 675   0.0000       3.295619        89.6783 
 676   0.0000       3.304700        89.9255 
 677   0.0000       3.313742        90.1715 
 678   0.0000       3.326512        90.5190 
 679   0.0000       3.331405        90.6521 
 680   0.0000       3.342659        90.9584 
 681   0.0000       3.353347        91.2492 
 682   0.0000       3.357171        91.3533 
 683   0.0000       3.370481        91.7155 
 684   0.0000       3.376827        91.8881 
 685   0.0000       3.385355        92.1202 
 686   0.0000       3.399163        92.4959 
 687   0.0000       3.404426        92.6391 
 688   0.0000       3.417087        92.9837 
 689   0.0000       3.421059        93.0917 
 690   0.0000       3.425795        93.2206 
 691   0.0000       3.445398        93.7540 
 692   0.0000       3.453140        93.9647 
 693   0.0000       3.460498        94.1649 
 694   0.0000       3.483481        94.7903 
 695   0.0000       3.487536        94.9007 
 696   0.0000       3.491446        95.0071 
 697   0.0000       3.501804        95.2889 
 698   0.0000       3.505997        95.4030 
 699   0.0000       3.508885        95.4816 
 700   0.0000       3.518414        95.7409 
 701   0.0000       3.521821        95.8336 
 702   0.0000       3.535727        96.2120 
 703   0.0000       3.542468        96.3955 
 704   0.0000       3.548776        96.5671 
 705   0.0000       3.553290        96.6899 
 706   0.0000       3.575758        97.3013 
 707   0.0000       3.584697        97.5446 
 708   0.0000       3.594110        97.8007 
 709   0.0000       3.597322        97.8881 
 710   0.0000       3.613547        98.3296 
 711   0.0000       3.619259        98.4850 
 712   0.0000       3.627894        98.7200 
 713   0.0000       3.630946        98.8031 
 714   0.0000       3.637652        98.9855 
 715   0.0000       3.644975        99.1848 
 716   0.0000       3.656216        99.4907 
 717   0.0000       3.663373        99.6854 
 718   0.0000       3.680040       100.1390 
 719   0.0000       3.684823       100.2691 
 720   0.0000       3.696044       100.5745 
 721   0.0000       3.712897       101.0331 
 722   0.0000       3.721426       101.2651 
 723   0.0000       3.722562       101.2961 
 724   0.0000       3.731278       101.5332 
 725   0.0000       3.733677       101.5985 
 726   0.0000       3.740571       101.7861 
 727   0.0000       3.743187       101.8573 
 728   0.0000       3.751625       102.0869 
 729   0.0000       3.763247       102.4032 
 730   0.0000       3.768178       102.5373 
 731   0.0000       3.772205       102.6469 
 732   0.0000       3.778755       102.8252 
 733   0.0000       3.787567       103.0650 
 734   0.0000       3.794209       103.2457 
 735   0.0000       3.796313       103.3029 
 736   0.0000       3.800733       103.4232 
 737   0.0000       3.806123       103.5699 
 738   0.0000       3.829410       104.2035 
 739   0.0000       3.835143       104.3596 
 740   0.0000       3.837140       104.4139 
 741   0.0000       3.847385       104.6927 
 742   0.0000       3.849064       104.7383 
 743   0.0000       3.852011       104.8186 
 744   0.0000       3.870083       105.3103 
 745   0.0000       3.877166       105.5031 
 746   0.0000       3.890151       105.8564 
 747   0.0000       3.892217       105.9126 
 748   0.0000       3.904667       106.2514 
 749   0.0000       3.914903       106.5299 
 750   0.0000       3.916091       106.5623 
 751   0.0000       3.928861       106.9097 
 752   0.0000       3.932397       107.0060 
 753   0.0000       3.934820       107.0719 
 754   0.0000       3.942148       107.2713 
 755   0.0000       3.945784       107.3702 
 756   0.0000       3.954792       107.6154 
 757   0.0000       3.962482       107.8246 
 758   0.0000       3.971112       108.0595 
 759   0.0000       3.974012       108.1384 
 760   0.0000       3.982928       108.3810 
 761   0.0000       3.993394       108.6658 
 762   0.0000       3.999205       108.8239 
 763   0.0000       4.009482       109.1036 
 764   0.0000       4.013846       109.2223 
 765   0.0000       4.019613       109.3792 
 766   0.0000       4.032162       109.7207 
 767   0.0000       4.036066       109.8269 
 768   0.0000       4.042571       110.0039 
 769   0.0000       4.053198       110.2931 
 770   0.0000       4.056377       110.3796 
 771   0.0000       4.065870       110.6380 
 772   0.0000       4.069327       110.7320 
 773   0.0000       4.082061       111.0785 
 774   0.0000       4.093157       111.3805 
 775   0.0000       4.096485       111.4710 
 776   0.0000       4.104766       111.6964 
 777   0.0000       4.114329       111.9566 
 778   0.0000       4.124317       112.2284 
 779   0.0000       4.128738       112.3487 
 780   0.0000       4.131975       112.4367 
 781   0.0000       4.141315       112.6909 
 782   0.0000       4.151734       112.9744 
 783   0.0000       4.155819       113.0856 
 784   0.0000       4.179975       113.7429 
 785   0.0000       4.184829       113.8750 
 786   0.0000       4.189293       113.9964 
 787   0.0000       4.196195       114.1843 
 788   0.0000       4.206488       114.4644 
 789   0.0000       4.213475       114.6545 
 790   0.0000       4.224687       114.9596 
 791   0.0000       4.230684       115.1228 
 792   0.0000       4.241746       115.4238 
 793   0.0000       4.244590       115.5012 
 794   0.0000       4.248177       115.5988 
 795   0.0000       4.263633       116.0194 
 796   0.0000       4.268592       116.1543 
 797   0.0000       4.276275       116.3633 
 798   0.0000       4.295045       116.8741 
 799   0.0000       4.304709       117.1371 
 800   0.0000       4.306714       117.1916 
 801   0.0000       4.317986       117.4984 
 802   0.0000       4.329767       117.8190 
 803   0.0000       4.338223       118.0490 
 804   0.0000       4.350394       118.3802 
 805   0.0000       4.358236       118.5936 
 806   0.0000       4.368919       118.8843 
 807   0.0000       4.376099       119.0797 
 808   0.0000       4.383223       119.2736 
 809   0.0000       4.392064       119.5141 
 810   0.0000       4.399741       119.7230 
 811   0.0000       4.401094       119.7599 
 812   0.0000       4.409467       119.9877 
 813   0.0000       4.422147       120.3327 
 814   0.0000       4.429514       120.5332 
 815   0.0000       4.443165       120.9047 
 816   0.0000       4.451461       121.1304 
 817   0.0000       4.467390       121.5639 
 818   0.0000       4.476921       121.8232 
 819   0.0000       4.482608       121.9780 
 820   0.0000       4.491666       122.2244 
 821   0.0000       4.498732       122.4167 
 822   0.0000       4.505190       122.5924 
 823   0.0000       4.513249       122.8117 
 824   0.0000       4.520109       122.9984 
 825   0.0000       4.527868       123.2096 
 826   0.0000       4.543499       123.6349 
 827   0.0000       4.553280       123.9010 
 828   0.0000       4.571235       124.3896 
 829   0.0000       4.575149       124.4961 
 830   0.0000       4.583899       124.7342 
 831   0.0000       4.598319       125.1266 
 832   0.0000       4.614366       125.5633 
 833   0.0000       4.625036       125.8536 
 834   0.0000       4.630205       125.9943 
 835   0.0000       4.636321       126.1607 
 836   0.0000       4.653315       126.6232 
 837   0.0000       4.663628       126.9038 
 838   0.0000       4.678168       127.2994 
 839   0.0000       4.693537       127.7176 
 840   0.0000       4.700845       127.9165 
 841   0.0000       4.708737       128.1313 
 842   0.0000       4.714859       128.2978 
 843   0.0000       4.729004       128.6827 
 844   0.0000       4.734684       128.8373 
 845   0.0000       4.758643       129.4893 
 846   0.0000       4.768180       129.7488 
 847   0.0000       4.772451       129.8650 
 848   0.0000       4.789642       130.3328 
 849   0.0000       4.804162       130.7279 
 850   0.0000       4.807963       130.8313 
 851   0.0000       4.826625       131.3392 
 852   0.0000       4.833786       131.5340 
 853   0.0000       4.842159       131.7619 
 854   0.0000       4.857860       132.1891 
 855   0.0000       4.870508       132.5333 
 856   0.0000       4.886094       132.9574 
 857   0.0000       4.889488       133.0497 
 858   0.0000       4.900523       133.3500 
 859   0.0000       4.913004       133.6896 
 860   0.0000       4.927664       134.0886 
 861   0.0000       4.937585       134.3585 
 862   0.0000       4.942527       134.4930 
 863   0.0000       4.959810       134.9633 
 864   0.0000       4.969909       135.2381 
 865   0.0000       4.986834       135.6987 
 866   0.0000       4.994682       135.9122 
 867   0.0000       5.006499       136.2338 
 868   0.0000       5.010617       136.3458 
 869   0.0000       5.020502       136.6148 
 870   0.0000       5.029742       136.8662 
 871   0.0000       5.039291       137.1261 
 872   0.0000       5.048689       137.3818 
 873   0.0000       5.063887       137.7954 
 874   0.0000       5.072282       138.0238 
 875   0.0000       5.091740       138.5533 
 876   0.0000       5.095682       138.6606 
 877   0.0000       5.103265       138.8669 
 878   0.0000       5.117235       139.2470 
 879   0.0000       5.131898       139.6460 
 880   0.0000       5.165790       140.5683 
 881   0.0000       5.167416       140.6125 
 882   0.0000       5.174613       140.8084 
 883   0.0000       5.186746       141.1385 
 884   0.0000       5.196791       141.4119 
 885   0.0000       5.214926       141.9054 
 886   0.0000       5.229978       142.3149 
 887   0.0000       5.250570       142.8753 
 888   0.0000       5.256199       143.0284 
 889   0.0000       5.262495       143.1998 
 890   0.0000       5.274270       143.5202 
 891   0.0000       5.290894       143.9725 
 892   0.0000       5.306486       144.3968 
 893   0.0000       5.317352       144.6925 
 894   0.0000       5.333446       145.1304 
 895   0.0000       5.338202       145.2599 
 896   0.0000       5.350277       145.5884 
 897   0.0000       5.355891       145.7412 
 898   0.0000       5.361581       145.8960 
 899   0.0000       5.387252       146.5946 
 900   0.0000       5.392193       146.7290 
 901   0.0000       5.401840       146.9915 
 902   0.0000       5.409864       147.2099 
 903   0.0000       5.424489       147.6079 
 904   0.0000       5.449671       148.2931 
 905   0.0000       5.456525       148.4796 
 906   0.0000       5.462483       148.6417 
 907   0.0000       5.483687       149.2187 
 908   0.0000       5.491975       149.4442 
 909   0.0000       5.513568       150.0318 
 910   0.0000       5.524690       150.3345 
 911   0.0000       5.540492       150.7645 
 912   0.0000       5.542028       150.8062 
 913   0.0000       5.559522       151.2823 
 914   0.0000       5.566733       151.4785 
 915   0.0000       5.570160       151.5718 
 916   0.0000       5.593863       152.2167 
 917   0.0000       5.603422       152.4769 
 918   0.0000       5.613288       152.7453 
 919   0.0000       5.618279       152.8812 
 920   0.0000       5.630978       153.2267 
 921   0.0000       5.640019       153.4727 
 922   0.0000       5.650400       153.7552 
 923   0.0000       5.667891       154.2312 
 924   0.0000       5.682050       154.6164 
 925   0.0000       5.698835       155.0732 
 926   0.0000       5.709573       155.3654 
 927   0.0000       5.716894       155.5646 
 928   0.0000       5.736778       156.1057 
 929   0.0000       5.743173       156.2797 
 930   0.0000       5.755154       156.6057 
 931   0.0000       5.765150       156.8777 
 932   0.0000       5.786697       157.4640 
 933   0.0000       5.799029       157.7996 
 934   0.0000       5.807816       158.0387 
 935   0.0000       5.815443       158.2463 
 936   0.0000       5.840166       158.9190 
 937   0.0000       5.854663       159.3135 
 938   0.0000       5.855639       159.3400 
 939   0.0000       5.884911       160.1366 
 940   0.0000       5.897387       160.4761 
 941   0.0000       5.915510       160.9692 
 942   0.0000       5.944799       161.7662 
 943   0.0000       5.956864       162.0945 
 944   0.0000       5.960026       162.1806 
 945   0.0000       5.986140       162.8911 
 946   0.0000       6.007905       163.4834 
 947   0.0000       6.064972       165.0363 
 948   0.0000       6.097818       165.9301 
 949   0.0000       6.139564       167.0660 
 950   0.0000       6.164104       167.7338 
 951   0.0000       6.172258       167.9557 
 952   0.0000       6.192598       168.5092 
 953   0.0000       6.215214       169.1246 
 954   0.0000       6.223323       169.3452 
 955   0.0000       6.241221       169.8322 
 956   0.0000       6.245755       169.9556 
 957   0.0000       6.270754       170.6359 
 958   0.0000       6.279060       170.8619 
 959   0.0000       6.308453       171.6617 
 960   0.0000       6.315189       171.8450 
 961   0.0000       6.321987       172.0300 
 962   0.0000       6.367234       173.2612 
 963   0.0000       6.378647       173.5718 
 964   0.0000       6.390463       173.8933 
 965   0.0000       6.417481       174.6285 
 966   0.0000       6.441050       175.2699 
 967   0.0000       6.455126       175.6529 
 968   0.0000       6.469800       176.0522 
 969   0.0000       6.534263       177.8063 
 970   0.0000       6.584363       179.1696 
 971   0.0000       6.753300       183.7666 
 972   0.0000       6.799186       185.0152 
 973   0.0000       6.876666       187.1236 
 974   0.0000       6.896377       187.6600 
 975   0.0000       6.913849       188.1354 
 976   0.0000       6.945884       189.0071 
 977   0.0000       6.959517       189.3781 
 978   0.0000       6.981231       189.9689 
 979   0.0000       7.003459       190.5738 
 980   0.0000       7.031733       191.3432 
 981   0.0000       7.060186       192.1174 
 982   0.0000       7.090894       192.9530 
 983   0.0000       7.095788       193.0862 
 984   0.0000       7.205908       196.0827 
 985   0.0000       7.325503       199.3371 
 986   0.0000       7.387601       201.0268 
 987   0.0000       7.421430       201.9474 
 988   0.0000       7.480625       203.5582 
 989   0.0000       7.533644       205.0009 
 990   0.0000       7.579781       206.2563 
 991   0.0000       7.628952       207.5943 
 992   0.0000       7.712896       209.8786 
 993   0.0000       7.805063       212.3866 
 994   0.0000       7.853493       213.7044 
 995   0.0000       7.923085       215.5981 
 996   0.0000       8.094133       220.2526 
 997   0.0000       8.170881       222.3410 
 998   0.0000       8.383567       228.1284 
 999   0.0000       9.452668       257.2202 
 1000   0.0000       9.466060       257.5846 
 1001   0.0000       9.483074       258.0476 
 1002   0.0000       9.491462       258.2758 
 1003   0.0000       9.511248       258.8142 
 1004   0.0000       9.533649       259.4238 
 1005   0.0000       9.786215       266.2965 
 1006   0.0000      10.113395       275.1995 
 1007   0.0000      10.137194       275.8471 
 1008   0.0000      10.167567       276.6736 
 1009   0.0000      10.233784       278.4754 
 1010   0.0000      10.239301       278.6255 
 1011   0.0000      10.267147       279.3833 
 1012   0.0000      10.421630       283.5870 
 1013   0.0000      10.447042       284.2785 
 1014   0.0000      10.585899       288.0569 
 1015   0.0000      16.995111       462.4605 
 1016   0.0000      17.806282       484.5336 
 1017   0.0000      18.307691       498.1776 
 1018   0.0000      18.532625       504.2984 
 1019   0.0000      18.930373       515.1216 
 1020   0.0000      19.117940       520.2256 
 1021   0.0000      19.178341       521.8692 
 1022   0.0000      19.588300       533.0247 
 1023   0.0000      20.488750       557.5272 
 1024   0.0000      21.968040       597.7808 

                 SPIN DOWN ORBITALS
  NO   OCC          E(Eh)            E(eV) 
   0   1.0000    -261.535411     -7116.7404 
   1   1.0000    -104.766217     -2850.8337 
   2   1.0000    -104.765634     -2850.8178 
   3   1.0000    -104.763742     -2850.7663 
   4   1.0000     -32.044852      -871.9848 
   5   1.0000     -27.522953      -748.9376 
   6   1.0000     -27.522752      -748.9321 
   7   1.0000     -27.522247      -748.9184 
   8   1.0000     -20.527759      -558.5887 
   9   1.0000     -11.403376      -310.3016 
  10   1.0000     -11.341416      -308.6156 
  11   1.0000     -11.307912      -307.7039 
  12   1.0000     -11.291777      -307.2649 
  13   1.0000     -11.276902      -306.8601 
  14   1.0000     -11.255516      -306.2782 
  15   1.0000     -11.242351      -305.9199 
  16   1.0000     -11.231982      -305.6378 
  17   1.0000     -10.492691      -285.5206 
  18   1.0000     -10.492072      -285.5038 
  19   1.0000     -10.490229      -285.4536 
  20   1.0000      -7.958578      -216.5639 
  21   1.0000      -7.958056      -216.5497 
  22   1.0000      -7.958015      -216.5486 
  23   1.0000      -7.957977      -216.5476 
  24   1.0000      -7.957431      -216.5327 
  25   1.0000      -7.957323      -216.5298 
  26   1.0000      -7.956203      -216.4993 
  27   1.0000      -7.955491      -216.4799 
  28   1.0000      -7.955421      -216.4780 
  29   1.0000      -4.120213      -112.1167 
  30   1.0000      -2.642135       -71.8962 
  31   1.0000      -2.642035       -71.8934 
  32   1.0000      -2.641124       -71.8686 
  33   1.0000      -1.352787       -36.8112 
  34   1.0000      -1.204210       -32.7682 
  35   1.0000      -1.090044       -29.6616 
  36   1.0000      -1.046087       -28.4655 
  37   1.0000      -1.024454       -27.8768 
  38   1.0000      -1.020097       -27.7582 
  39   1.0000      -1.013276       -27.5726 
  40   1.0000      -1.011804       -27.5326 
  41   1.0000      -0.965751       -26.2794 
  42   1.0000      -0.933543       -25.4030 
  43   1.0000      -0.809805       -22.0359 
  44   1.0000      -0.775897       -21.1132 
  45   1.0000      -0.717450       -19.5228 
  46   1.0000      -0.699507       -19.0345 
  47   1.0000      -0.679427       -18.4881 
  48   1.0000      -0.649330       -17.6692 
  49   1.0000      -0.647590       -17.6218 
  50   1.0000      -0.632479       -17.2106 
  51   1.0000      -0.612348       -16.6628 
  52   1.0000      -0.600310       -16.3353 
  53   1.0000      -0.591226       -16.0881 
  54   1.0000      -0.582862       -15.8605 
  55   1.0000      -0.569273       -15.4907 
  56   1.0000      -0.562363       -15.3027 
  57   1.0000      -0.553487       -15.0612 
  58   1.0000      -0.537418       -14.6239 
  59   1.0000      -0.526208       -14.3189 
  60   1.0000      -0.509860       -13.8740 
  61   1.0000      -0.494484       -13.4556 
  62   1.0000      -0.461827       -12.5670 
  63   1.0000      -0.459557       -12.5052 
  64   1.0000      -0.444496       -12.0953 
  65   1.0000      -0.438548       -11.9335 
  66   1.0000      -0.428915       -11.6714 
  67   1.0000      -0.425751       -11.5853 
  68   1.0000      -0.424685       -11.5563 
  69   1.0000      -0.404474       -11.0063 
  70   1.0000      -0.396780       -10.7969 
  71   1.0000      -0.391696       -10.6586 
  72   0.0000      -0.002124        -0.0578 
  73   0.0000       0.001326         0.0361 
  74   0.0000       0.017117         0.4658 
  75   0.0000       0.017860         0.4860 
  76   0.0000       0.027420         0.7461 
  77   0.0000       0.037503         1.0205 
  78   0.0000       0.037943         1.0325 
  79   0.0000       0.040790         1.1100 
  80   0.0000       0.044565         1.2127 
  81   0.0000       0.048967         1.3325 
  82   0.0000       0.057873         1.5748 
  83   0.0000       0.058256         1.5852 
  84   0.0000       0.060055         1.6342 
  85   0.0000       0.061787         1.6813 
  86   0.0000       0.063675         1.7327 
  87   0.0000       0.071951         1.9579 
  88   0.0000       0.074741         2.0338 
  89   0.0000       0.077587         2.1112 
  90   0.0000       0.088029         2.3954 
  91   0.0000       0.090343         2.4584 
  92   0.0000       0.092159         2.5078 
  93   0.0000       0.093955         2.5566 
  94   0.0000       0.096656         2.6302 
  95   0.0000       0.099532         2.7084 
  96   0.0000       0.106690         2.9032 
  97   0.0000       0.112717         3.0672 
  98   0.0000       0.115459         3.1418 
  99   0.0000       0.120519         3.2795 
 100   0.0000       0.121859         3.3160 
 101   0.0000       0.126294         3.4366 
 102   0.0000       0.130727         3.5573 
 103   0.0000       0.132363         3.6018 
 104   0.0000       0.132794         3.6135 
 105   0.0000       0.135170         3.6782 
 106   0.0000       0.135422         3.6850 
 107   0.0000       0.137030         3.7288 
 108   0.0000       0.138965         3.7814 
 109   0.0000       0.142481         3.8771 
 110   0.0000       0.146234         3.9792 
 111   0.0000       0.147136         4.0038 
 112   0.0000       0.149131         4.0581 
 113   0.0000       0.155131         4.2213 
 114   0.0000       0.156259         4.2520 
 115   0.0000       0.157245         4.2789 
 116   0.0000       0.158178         4.3042 
 117   0.0000       0.161008         4.3813 
 118   0.0000       0.164323         4.4715 
 119   0.0000       0.165185         4.4949 
 120   0.0000       0.168713         4.5909 
 121   0.0000       0.172161         4.6847 
 122   0.0000       0.175258         4.7690 
 123   0.0000       0.176884         4.8133 
 124   0.0000       0.180525         4.9123 
 125   0.0000       0.186866         5.0849 
 126   0.0000       0.188146         5.1197 
 127   0.0000       0.190890         5.1944 
 128   0.0000       0.198396         5.3986 
 129   0.0000       0.206262         5.6127 
 130   0.0000       0.208156         5.6642 
 131   0.0000       0.211193         5.7468 
 132   0.0000       0.215006         5.8506 
 133   0.0000       0.219870         5.9830 
 134   0.0000       0.221103         6.0165 
 135   0.0000       0.224894         6.1197 
 136   0.0000       0.227714         6.1964 
 137   0.0000       0.228640         6.2216 
 138   0.0000       0.232022         6.3136 
 139   0.0000       0.234146         6.3714 
 140   0.0000       0.239696         6.5225 
 141   0.0000       0.240252         6.5376 
 142   0.0000       0.243185         6.6174 
 143   0.0000       0.249825         6.7981 
 144   0.0000       0.251376         6.8403 
 145   0.0000       0.254672         6.9300 
 146   0.0000       0.259425         7.0593 
 147   0.0000       0.260766         7.0958 
 148   0.0000       0.269179         7.3247 
 149   0.0000       0.273619         7.4455 
 150   0.0000       0.276572         7.5259 
 151   0.0000       0.277966         7.5638 
 152   0.0000       0.283272         7.7082 
 153   0.0000       0.287342         7.8190 
 154   0.0000       0.294489         8.0135 
 155   0.0000       0.295461         8.0399 
 156   0.0000       0.302318         8.2265 
 157   0.0000       0.303326         8.2539 
 158   0.0000       0.308474         8.3940 
 159   0.0000       0.310703         8.4547 
 160   0.0000       0.314797         8.5661 
 161   0.0000       0.315861         8.5950 
 162   0.0000       0.319453         8.6927 
 163   0.0000       0.325827         8.8662 
 164   0.0000       0.329212         8.9583 
 165   0.0000       0.334327         9.0975 
 166   0.0000       0.336942         9.1687 
 167   0.0000       0.339170         9.2293 
 168   0.0000       0.342774         9.3274 
 169   0.0000       0.346209         9.4208 
 170   0.0000       0.352292         9.5864 
 171   0.0000       0.354986         9.6597 
 172   0.0000       0.355582         9.6759 
 173   0.0000       0.358986         9.7685 
 174   0.0000       0.361261         9.8304 
 175   0.0000       0.365042         9.9333 
 176   0.0000       0.371136        10.0991 
 177   0.0000       0.373623        10.1668 
 178   0.0000       0.378562        10.3012 
 179   0.0000       0.380728        10.3601 
 180   0.0000       0.383614        10.4387 
 181   0.0000       0.387961        10.5570 
 182   0.0000       0.392607        10.6834 
 183   0.0000       0.397114        10.8060 
 184   0.0000       0.399843        10.8803 
 185   0.0000       0.400277        10.8921 
 186   0.0000       0.402882        10.9630 
 187   0.0000       0.405801        11.0424 
 188   0.0000       0.408299        11.1104 
 189   0.0000       0.412726        11.2308 
 190   0.0000       0.416083        11.3222 
 191   0.0000       0.419317        11.4102 
 192   0.0000       0.421865        11.4795 
 193   0.0000       0.431458        11.7406 
 194   0.0000       0.432153        11.7595 
 195   0.0000       0.432795        11.7770 
 196   0.0000       0.440341        11.9823 
 197   0.0000       0.444869        12.1055 
 198   0.0000       0.446426        12.1479 
 199   0.0000       0.451670        12.2906 
 200   0.0000       0.453414        12.3380 
 201   0.0000       0.457337        12.4448 
 202   0.0000       0.463008        12.5991 
 203   0.0000       0.467099        12.7104 
 204   0.0000       0.470142        12.7932 
 205   0.0000       0.475096        12.9280 
 206   0.0000       0.476022        12.9532 
 207   0.0000       0.477638        12.9972 
 208   0.0000       0.480613        13.0781 
 209   0.0000       0.483106        13.1460 
 210   0.0000       0.489279        13.3140 
 211   0.0000       0.492739        13.4081 
 212   0.0000       0.495285        13.4774 
 213   0.0000       0.496946        13.5226 
 214   0.0000       0.502878        13.6840 
 215   0.0000       0.504428        13.7262 
 216   0.0000       0.506676        13.7874 
 217   0.0000       0.508860        13.8468 
 218   0.0000       0.512700        13.9513 
 219   0.0000       0.518004        14.0956 
 220   0.0000       0.519347        14.1322 
 221   0.0000       0.522825        14.2268 
 222   0.0000       0.525658        14.3039 
 223   0.0000       0.529120        14.3981 
 224   0.0000       0.530610        14.4386 
 225   0.0000       0.536948        14.6111 
 226   0.0000       0.538850        14.6629 
 227   0.0000       0.542142        14.7524 
 228   0.0000       0.547144        14.8886 
 229   0.0000       0.550317        14.9749 
 230   0.0000       0.552991        15.0476 
 231   0.0000       0.555626        15.1194 
 232   0.0000       0.556418        15.1409 
 233   0.0000       0.559769        15.2321 
 234   0.0000       0.566720        15.4212 
 235   0.0000       0.567175        15.4336 
 236   0.0000       0.575260        15.6536 
 237   0.0000       0.577863        15.7245 
 238   0.0000       0.581017        15.8103 
 239   0.0000       0.585776        15.9398 
 240   0.0000       0.589752        16.0480 
 241   0.0000       0.593245        16.1430 
 242   0.0000       0.595415        16.2021 
 243   0.0000       0.601955        16.3800 
 244   0.0000       0.604279        16.4433 
 245   0.0000       0.607322        16.5261 
 246   0.0000       0.607727        16.5371 
 247   0.0000       0.611613        16.6428 
 248   0.0000       0.617263        16.7966 
 249   0.0000       0.620031        16.8719 
 250   0.0000       0.623504        16.9664 
 251   0.0000       0.629594        17.1321 
 252   0.0000       0.631585        17.1863 
 253   0.0000       0.633075        17.2269 
 254   0.0000       0.634250        17.2588 
 255   0.0000       0.644937        17.5496 
 256   0.0000       0.652107        17.7447 
 257   0.0000       0.656727        17.8704 
 258   0.0000       0.660274        17.9670 
 259   0.0000       0.662934        18.0393 
 260   0.0000       0.667585        18.1659 
 261   0.0000       0.675407        18.3788 
 262   0.0000       0.680075        18.5058 
 263   0.0000       0.684522        18.6268 
 264   0.0000       0.686212        18.6728 
 265   0.0000       0.691226        18.8092 
 266   0.0000       0.694435        18.8965 
 267   0.0000       0.698532        19.0080 
 268   0.0000       0.701911        19.1000 
 269   0.0000       0.704172        19.1615 
 270   0.0000       0.708090        19.2681 
 271   0.0000       0.714930        19.4542 
 272   0.0000       0.719590        19.5810 
 273   0.0000       0.723293        19.6818 
 274   0.0000       0.725856        19.7515 
 275   0.0000       0.729984        19.8639 
 276   0.0000       0.738470        20.0948 
 277   0.0000       0.739944        20.1349 
 278   0.0000       0.746743        20.3199 
 279   0.0000       0.755586        20.5605 
 280   0.0000       0.757511        20.6129 
 281   0.0000       0.766980        20.8706 
 282   0.0000       0.771749        21.0004 
 283   0.0000       0.775142        21.0927 
 284   0.0000       0.776244        21.1227 
[...]
  | Av. % of trace(Dpq) retained        ...  99.513391700399
  | sigma^2 in % of trace(Dij) retained ...   8.82e+00
  | sigma^2 in % of trace(Dip) retained ...   1.74e+01
  | sigma^2 in % of trace(Dpq) retained ...   1.34e-01
  | Av. % of trace(Di) retained         ...  99.998469035910
  | Av. % of trace(Dp) retained         ...  99.999996142073
  | sigma^2 in % of trace(Di) retained  ...   8.00e-07
  | sigma^2 in % of trace(Dp) retained  ...   2.29e-11
 Distributions of % trace(Dij) recovered:
  |       >= 99.9  ...   105 ( 20.7 % of all IJ-pairs)
  |   [80.0, 90.0) ...    35 (  6.9 % of all IJ-pairs)
  |   [90.0, 99.0) ...   275 ( 54.2 % of all IJ-pairs)
  |   [99.0, 99.9) ...    92 ( 18.1 % of all IJ-pairs)
 Distributions of % trace(Dip) recovered:
  |   [80.0, 90.0) ...    13 ( 10.9 % of all IP-pairs)
  |   [90.0, 99.0) ...    65 ( 54.6 % of all IP-pairs)
  |   [99.0, 99.9) ...    41 ( 34.5 % of all IP-pairs)
 Distributions of % trace(Dpq) recovered:
  |       >= 99.9  ...     5 ( 33.3 % of all PQ-pairs)
  |   [99.0, 99.9) ...    10 ( 66.7 % of all PQ-pairs)
 Distributions of % trace(Di) recovered :
  |       >= 99.9  ...    43 (100.0 % of all I-pairs )
 Distributions of % trace(Dp) recovered :
  |       >= 99.9  ...     5 (100.0 % of all P-pairs )

                       ===========================
                       1115 OF 1691 PAIRS ARE KEPT
                       ===========================

 Initial PAO correlation energy (all pairs)    ...  -2.6940165107 Eh
 Energy constituents in PAO basis (Eh):
  | Vijab(+0) ...  -2.2637439676
  | Viab (-1) ...  -0.1757043280
  | Vab  (-2) ...  -0.0573676533
  | Va   (-1) ...  -0.0000418991
  | Vija (+1) ...  -0.0732414247
  | Vij  (+2) ...  -0.0155097039
  | Via  (+0) ...  -0.1082475970
  | Vi   (+1) ...  -0.0001599371
 Initial PNO correlation energy                ...  -2.6598466812 Eh
 Energy constituents in PNO basis (Eh):
  | Vijab(+0) ...  -2.2454218262 (err=  0.0183221414)
  | Viab (-1) ...  -0.1615134647 (err=  0.0141908633)
  | Vab  (-2) ...  -0.0568938330 (err=  0.0004738203)
  | Va   (-1) ...  -0.0000238849 (err=  0.0000180143)
  | Vija (+1) ...  -0.0722289896 (err=  0.0010124351)
  | Vij  (+2) ...  -0.0154619467 (err=  0.0000477573)
  | Via  (+0) ...  -0.1081431454 (err=  0.0001044516)
  | Vi   (+1) ...  -0.0001595908 (err=  0.0000003462)
 Sum of total truncation errors ...   0.0341698295 Eh
  | Pair screening ...   0.0110143285 Eh
  | PNO truncation ...   0.0231555010 Eh

 UMP2 correlation energy (PAO) ...  -2.6891142177
  | alpha-alpha ...  -0.3871383364 (NP_aa=  913)
  | alpha-beta  ...  -1.9943089459 (NP_ab= 1666)
  | beta -beta  ...  -0.3076669354 (NP_bb=  720)
 UMP2 correlation energy (PNO) ...  -2.6545785965
  | alpha-alpha ...  -0.3751806787 (err=  0.0119576577, NP_aa=  593)
  | alpha-beta  ...  -1.9756994491 (err=  0.0186094968, NP_ab= 1090)
  | beta -beta  ...  -0.3036984687 (err=  0.0039684668, NP_bb=  464)
 Sum of total UMP2 truncation errors ...   0.0345356212 Eh
  | Pair screening ...   0.0110275087 Eh
  | PNO truncation ...   0.0235081125 Eh
 Timing for NEV-PNO construction (sec.)
  | Intermediate construction  ..           45.825
  | Amplitude construction     ..           65.536
  | Total time                 ..          111.361
 Making pair pair interaction lists ...      ok
 Total size for 2-ext PNO integrals ...     11.1 MB
Checking the number of SOMO/SOMO doubles PNOs ... 
 #Truncate: (72, 72)[167] -> [86] .. 
 #Truncate: (73, 73)[168] -> [86] .. 
 #Truncate: (74, 74)[168] -> [86] .. 
 #Truncate: (75, 75)[167] -> [86] .. 
 #Truncate: (76, 76)[169] -> [86] .. 

--------------------------------
LOCAL RI TRANSFORMATION (VABPAO)
--------------------------------

Number of PAOs:    1030
Basis functions:   1025 (343 shells)
Aux. functions:    2424 (644 shells)

Processing maps (0.0 sec)
Average map sizes:
   Aux shells -> PAOs           1030.0
   PAOs       -> AO shells       343.0

Calculating integrals (204.8 sec, 37370.165 MB)
Finished
-----------------------------
LOCAL RI TRANSFORMATION (IJV)
-----------------------------

Orbital window:      29 to 76
Basis functions:   1025 (343 shells)
Aux. functions:    2424 (644 shells)

Processing maps (0.0 sec)
Average map sizes:
   Aux shells -> MOs(i)           46.1
   Aux shells -> MOs(j)           48.0
   MOs        -> AO shells       340.8

Calculating integrals (22.2 sec, 41.088 MB)
Sorting integrals (0.3 sec, 41.061 MB)
Total time for the integral transformation: 22.5 sec


-------------------------------------
Pair Pair Term precalculation with     
RI-(ij|mn) and (im|jn) transformation  
ON THE FLY                             
-------------------------------------

   IBatch   1 (of   2)              ... done ( 1059.758 sec)
   IBatch   2 (of   2)              ... done ( 1307.354 sec)
Total EXT                           ...        2367.112 sec

---------------------
RI-PNO TRANSFORMATION
---------------------

Total Number of PNOs                   ... 35027
Total Number of IJ-PNOs                ... 30826
Total Number of IP-PNOs                ...  3247
Total Number of PQ-PNOs                ...   954
Total Number of IJ-pairs               ...   971
Total Number of PI-pairs               ...   119
Total Number of PQ-pairs               ...    25
Average number of PNOs per pair        ...    31
Maximal number of PNOs per pair        ...    86
>> Statistics for ij-pairs..
   #pairs with  1 -  5 PNOs   :    0
   #pairs with  6 - 10 PNOs   :    0
   #pairs with 11 - 15 PNOs   :   46
   #pairs with 16 - 20 PNOs   :  220
   #pairs with 21 - 25 PNOs   :  178
   #pairs with 26 - 30 PNOs   :  160
   #pairs with 31 - 35 PNOs   :   76
   #pairs with 36 - 40 PNOs   :   52
   #pairs with 41 - 45 PNOs   :   54
   #pairs with 46 - 50 PNOs   :   15
   #pairs with 51 - 55 PNOs   :   39
   #pairs with 56 - 60 PNOs   :   46
   #pairs with 61 - 65 PNOs   :   72
   #pairs with 66 - 70 PNOs   :   13
>> Statistics for ip-pairs..
   #pairs with  1 -  5 PNOs   :    0
   #pairs with  6 - 10 PNOs   :    2
   #pairs with 11 - 15 PNOs   :   16
   #pairs with 16 - 20 PNOs   :    4
   #pairs with 21 - 25 PNOs   :   26
   #pairs with 26 - 30 PNOs   :   13
   #pairs with 31 - 35 PNOs   :   47
   #pairs with 36 - 40 PNOs   :   11
   #pairs with 41 - 45 PNOs   :    0
   #pairs with 46 - 50 PNOs   :    0
>> Statistics for pq-pairs..
   #pairs with  1 -  5 PNOs   :    0
   #pairs with  6 - 10 PNOs   :    0
   #pairs with 11 - 15 PNOs   :    0
   #pairs with 16 - 20 PNOs   :    0
   #pairs with 21 - 25 PNOs   :   10
   #pairs with 26 - 30 PNOs   :   10
   #pairs with 31 - 35 PNOs   :    0
   #pairs with 36 - 40 PNOs   :    0
   #pairs with 41 - 45 PNOs   :    0
   #pairs with 46 - 50 PNOs   :    0
   #pairs with 86 - 90 PNOs   :    5

Generation of (ij|ab)[P] integrals            ... on
Generation of (ia|bc)[P],(ja|bc)[P] integrals ... on
Storage of 3 and 4 external integrals         ... on
Generation of ALL (ka|bc)[P] integrals        ... on
Keep RI integrals in memory                   ... off

Ibatch:  1 (of  1)
Starting 2-4 index PNO integral generation ... done

Timings:
Total PNO integral transformation time     ...       2113.882 sec
Size of the 3-external file                ...       290 MB
Size of the 4-external file                ...      1964 MB
Size of the IKJL file                      ...        18 MB
Size of the all 3-external file            ...      6967 MB
Size of the 1-external file                ...        22 MB

Size of the PAO/PNO coefficient matrices   ...     228.0 MB

Making pair/pair overlap matrices          ... done (  320.948 sec)
Size of the pair overlap file              ...    2498.0 MB
Total # unrestricted pairs ...       2147
  # of alpha-alpha pairs   ...        593
  # of alpha-beta pairs    ...       1090
  # of beta-beta pairs     ...        464
Constructing the guess amplitudes          ... done (    0.574 sec)

-------------------------
FINAL STARTUP INFORMATION
-------------------------

E(0)                                       ...  -3028.424363055
E(SL-UMP2 in NEV-PNO space)                ...     -2.690050005
Initial E(tot)                             ...  -3031.114413060
<T|T>                                      ...      0.531993666
Number of unrestricted pairs included      ... 2147
Total number of pairs                      ... 4095
----------------------------------------------------------
                     OPEN-SHELL COUPLED CLUSTER ITERATIONS
----------------------------------------------------------

Number of PNO amplitudes to be optimized        ...          2152419
Number of canonical amplitudes for strong pairs ...       1939180891
Untruncated number of canonical amplitudes      ...       3698645738

Iter       E(tot)           E(Corr)          Delta-E          Residual     Time
  0  -3031.121601882     -2.661767419      0.028282585      0.022096766 1729.18
                           *** Turning on DIIS ***
  1  -3031.235469670     -2.775635207     -0.113867788      0.009101124 1698.12
  2  -3031.299290182     -2.839455719     -0.063820512      0.008720093 1681.72
  3  -3031.320127183     -2.860292720     -0.020837001      0.003668985 1776.06
  4  -3031.327196780     -2.867362317     -0.007069597      0.002723292 2201.83
  5  -3031.330836847     -2.871002384     -0.003640067      0.002267618 1764.26
  6  -3031.332177790     -2.872343327     -0.001340943      0.001050279 1785.84
  7  -3031.332967072     -2.873132609     -0.000789282      0.000550477 2064.98
  8  -3031.333119033     -2.873284570     -0.000151961      0.000195418 2106.23
  9  -3031.333163066     -2.873328603     -0.000044033      0.000096532 2101.72
 10  -3031.333161628     -2.873327164      0.000001438      0.000065555 2110.80
 11  -3031.333170409     -2.873335946     -0.000008782      0.000031506 2108.72
 12  -3031.333175503     -2.873341040     -0.000005094      0.000017364 2112.49
 13  -3031.333177413     -2.873342950     -0.000001910      0.000010247 2107.51
 14  -3031.333177540     -2.873343077     -0.000000127      0.000006293 2107.24
               --- The CCSD iterations have converged ---

E(0)                                       ...  -3028.424363055
E(CORR)(strong-pairs)                      ...     -2.873343077
E(CORR)(weak-pairs)                        ...     -0.035471408
E(CORR)(corrected)                         ...     -2.908814485
E(TOT)                                     ...  -3031.333177540
Singles norm <S|S>**1/2                    ...      0.193292211 ( 0.067405641, 0.125886570)  
T1 diagnostic                              ...      0.020262529                              
<S**2>(linearized)                         ...      8.7507287 (ideal value:      8.7500000)

----------------------
LARGEST PNO AMPLITUDES
----------------------
  51b-> 73b  -1b-> -1b       0.056698
  49b-> 72b  -1b-> -1b       0.047258
  52b-> 73b  -1b-> -1b       0.045570
  49b-> 74b  -1b-> -1b       0.045480
  63a-> 77a  63b-> 77b       0.044271
  67a-> 77a  67b-> 77b       0.044052
  59a-> 77a  59b-> 77b       0.043473
  69a-> 77a  69b-> 77b       0.043296
  30b-> 73b  -1b-> -1b       0.043150
  62a-> 77a  62b-> 77b       0.042753
  71a-> 77a  71b-> 77b       0.042639
  44a-> 77a  44b-> 77b       0.041956
  54a-> 77a  54b-> 77b       0.041892
  49b-> 75b  -1b-> -1b       0.041807
  45a-> 78a  45b-> 78b       0.041683
  61a-> 77a  61b-> 77b       0.041665

Total # unrestricted pairs ...       1152
  # of alpha-alpha pairs   ...        320
  # of alpha-beta pairs    ...        576
  # of beta-beta pairs     ...        256

-------------------------------------------
DLPNO BASED TRIPLES CORRECTION
-------------------------------------------

Singles multiplier          ...  1.000000
Fragment selection                          .... not used
TCutTNO                     ... 1.000e-09
TCutMP2Pairs                ... 1.000e-05
TCutDOStrong                ... 2.000e-02
TCutMKNStrong               ... 1.000e-02
TCutDOWeak                  ... 4.000e-02
TCutMKNWeak                 ... 1.000e-01
NTCutTNO                    ... 1

Number of Triples that are to be computed         ...     34428

 . . . . . . . . .
10% done  
20% done  
30% done  
40% done  
50% done  
60% done  
70% done  
80% done  
90% done  
          Batch   1   done (  17710.690 sec)

Triples-Correction TCutTNO=   1.000e-09 (NWeakPairs = 0  1  2  3)  -0.116626575359   -0.001783485646    0.000000000000    0.000000000000
Triples-Correction  -0.118410061005

Triples timings:
Total time                      ... 18417.262 sec

Triples List generation         ...     0.000 sec
TNO generation                  ...   706.310 sec
Pair density generation         ...     0.090 sec
Look up tables                  ...     0.115 sec
Generating 3-index integrals    ... 11602.855 sec
Make 4-ind.int. from 3-ind.int  ...     3.914 sec
Projecting amplitudes (D + S)   ...  5825.558 sec
Sorting integrals for spin cases...    57.016 sec
Calculate W0/W1                 ...   178.062 sec
Energy contr. (sum over a,b,c)  ...    43.140 sec

Everything after 3-index        ...  6256.808 sec

Energy contribution AAA         ...    27.010 sec
Energy contribution AAB         ...   122.441 sec
Energy contribution ABB         ...   113.279 sec
Energy contribution BBB         ...    15.537 sec
prep                ...     3.316 sec
makeTTNO            ...  5766.054 sec
copyij              ...     0.140 sec
copyil              ...     4.375 sec
transposeij         ...     0.082 sec
newMatInDoubleProj  ...    56.969 sec
BlasInDoubleProj    ...  3117.414 sec
ProjSingles         ...    48.897 sec
ProjDoubles         ...  5776.660 sec
overall Doubles for projection      ... 3109690
used Doubles for projection         ... 3109690


Number of Triples   (0, 1, 2, 3 weak pairs; overall):  17165   11357       0       0  ( 28522)
Number of Atoms     (0, 1, 2, 3 weak pairs; overall):   19.9    15.2     0.0     0.0  (    29)
Number of PAOs      (0, 1, 2, 3 weak pairs; overall):  769.7   611.7     0.0     0.0  (  1025)
Number of AuxFcns   (0, 1, 2, 3 weak pairs; overall):  997.5   575.1     0.0     0.0  (  2424)
Number of TNOs (0, 1, 2, 3 weak pairs         ):   79.7    56.9     0.0     0.0
Aver. Number of NTNO, Atoms, PAOs, AuxFcns / Triples:  28522    70.7    18.0   706.8   829.3

Triples Correction (T)                     ...     -0.118410061
    alpha-alpha-alpha ... -0.003934796 (  3.3%)
    alpha-alpha-beta  ... -0.055566186 ( 46.9%)
    alpha-beta -beta  ... -0.054773275 ( 46.3%)
    beta -beta -beta  ... -0.004135804 (  3.5%)
Final correlation energy                   ...     -3.027224546
E(CCSD)                                    ...  -3031.333177540
E(CCSD(T))                                 ...  -3031.451587601

----------------------------
STATISTICS FOR PAIR-ENERGIES
----------------------------
Minimum, maximum and average ratios of UMP and CCSD pair-energies ... 0.53, 1.42, 1.02


------------------------------------------------------------------------------- 
                                     TIMINGS                                   
------------------------------------------------------------------------------- 


Total execution time                   ...    56386.262 sec

Localization of occupied MO's          ...       11.923 sec (  0.0%)
Fock Matrix Formation                  ...     1395.577 sec (  2.5%)
Differential overlap integrals         ...        1.412 sec (  0.0%)
Organizing maps                        ...        1.699 sec (  0.0%)
RI 3-index integral generations        ...      289.941 sec (  0.5%)
RI-PNO integral transformation         ...     4889.314 sec (  8.7%)
Initial Guess                          ...     1890.745 sec (  3.4%)
DIIS Solver                            ...       17.242 sec (  0.0%)
State Vector Update                    ...        0.710 sec (  0.0%)
Sigma-vector construction              ...    29456.696 sec ( 52.2%)
  <0|H|D>                              ...        0.029 sec (  0.0% of sigma)
  <D|H|D>(0-ext)                       ...     5313.981 sec ( 18.0% of sigma)
  <D|H|D>(2-ext Fock)                  ...        1.774 sec (  0.0% of sigma)
  <D|H|D>(2-ext)                       ...     4386.461 sec ( 14.9% of sigma)
  <D|H|D>(4-ext)                       ...      132.978 sec (  0.5% of sigma)
  <D|H|D>(4-ext-corr)                  ...      832.839 sec (  2.8% of sigma)
  CCSD doubles correction              ...      528.707 sec (  1.8% of sigma)
  <S|H|S>                              ...      763.082 sec (  2.6% of sigma)
  <S|H|D>(1-ext)                       ...      249.057 sec (  0.8% of sigma)
  <D|H|S>(1-ext)                       ...        0.917 sec (  0.0% of sigma)
  <S|H|D>(3-ext)                       ...       20.510 sec (  0.1% of sigma)
  CCSD singles correction              ...        0.005 sec (  0.0% of sigma)
  Fock-dressing                        ...     9364.466 sec ( 31.8% of sigma)
  Singles amplitudes                   ...      106.284 sec (  0.4% of sigma)
  (ik|jl)-dressing                     ...     6035.832 sec ( 20.5% of sigma)
  (ij|ab),(ia|jb)-dressing             ...     1567.211 sec (  5.3% of sigma)
  Pair energies                        ...        0.127 sec (  0.0% of sigma)
Total Time for computing (T)           ...    18809.637 sec ( 33.4% of ALL)


-------------------------   --------------------
FINAL SINGLE POINT ENERGY     -3031.451587601202
-------------------------   --------------------


                            ***************************************
                            *     ORCA property calculations      *
                            ***************************************

                                    ---------------------
                                    Active property flags
                                    ---------------------
   (+) Dipole Moment


------------------------------------------------------------------------------
                       ORCA ELECTRIC PROPERTIES CALCULATION
------------------------------------------------------------------------------

Dipole Moment Calculation                       ... on
Quadrupole Moment Calculation                   ... off
Polarizability Calculation                      ... off
GBWName                                         ... simple-grid-165-265-b3lyp_d3bj-631gd-gas-singlepoint-DLPNO_CCSD_T1-NormalPNO-augtz-gas.gbw
Electron density file                           ... simple-grid-165-265-b3lyp_d3bj-631gd-gas-singlepoint-DLPNO_CCSD_T1-NormalPNO-augtz-gas.scfp.tmp
The origin for moment calculation is the CENTER OF MASS  = ( 0.314176,  0.049522 -0.003774)

-------------
DIPOLE MOMENT
-------------
                                X             Y             Z
Electronic contribution:     40.99266       7.36434      -0.65923
Nuclear contribution   :    -46.81221      -7.37867       0.56235
                        -----------------------------------------
Total Dipole Moment    :     -5.81955      -0.01433      -0.09688
                        -----------------------------------------
Magnitude (a.u.)       :      5.82037
Magnitude (Debye)      :     14.79421



--------------------
Rotational spectrum 
--------------------
 
Rotational constants in cm-1:     0.019674     0.010782     0.010218 
Rotational constants in MHz :   589.819724   323.233529   306.331115 

 Dipole components along the rotational axes: 
x,y,z [a.u.] :    -5.818095    -0.012534    -0.162283 
x,y,z [Debye]:   -14.788422    -0.031859    -0.412490 

 

Timings for individual modules:

Sum of individual times         ...    72913.234 sec (=1215.221 min)
GTO integral calculation        ...       12.263 sec (=   0.204 min)   0.0 %
SCF iterations                  ...    16497.771 sec (= 274.963 min)  22.6 %
MDCI module                     ...    56403.200 sec (= 940.053 min)  77.4 %
                             ****ORCA TERMINATED NORMALLY****
TOTAL RUN TIME: 0 days 20 hours 15 minutes 22 seconds 451 msec
