
                                 *****************
                                 * O   R   C   A *
                                 *****************

           --- An Ab Initio, DFT and Semiempirical electronic structure package ---

                  #######################################################
                  #                        -***-                        #
                  #          Department of theory and spectroscopy      #
                  #               Directorship: Frank Neese             #
                  #        Max Planck Institute fuer Kohlenforschung    #
                  #                Kaiser Wilhelm Platz 1               #
                  #                 D-45470 Muelheim/Ruhr               #
                  #                      Germany                        #
                  #                                                     #
                  #                  All rights reserved                #
                  #                        -***-                        #
                  #######################################################


                         Program Version 4.1.2  - RELEASE  -


 With contributions from (in alphabetic order):
   Daniel Aravena         : Magnetic Properties
   Michael Atanasov       : Ab Initio Ligand Field Theory
   Alexander A. Auer      : GIAO ZORA
   Ute Becker             : Parallelization
   Giovanni Bistoni       : ED, Open-shell LED
   Martin Brehm           : Molecular dynamics
   Dmytro Bykov           : SCF Hessian
   Vijay G. Chilkuri      : MRCI spin determinant printing
   Dipayan Datta          : RHF DLPNO-CCSD density
   Achintya Kumar Dutta   : EOM-CC, STEOM-CC
   Dmitry Ganyushin       : Spin-Orbit,Spin-Spin,Magnetic field MRCI
   Miquel Garcia          : C-PCM Hessian
   Yang Guo               : DLPNO-NEVPT2, CIM, IAO-localization
   Andreas Hansen         : Spin unrestricted coupled pair/coupled cluster methods
   Benjamin Helmich-Paris : CASSCF linear response (MC-RPA)
   Lee Huntington         : MR-EOM, pCC
   Robert Izsak           : Overlap fitted RIJCOSX, COSX-SCS-MP3, EOM
   Christian Kollmar      : KDIIS, OOCD, Brueckner-CCSD(T), CCSD density
   Simone Kossmann        : Meta GGA functionals, TD-DFT gradient, OOMP2, MP2 Hessian
   Martin Krupicka        : AUTO-CI
   Lucas Lang             : DCDCAS
   Dagmar Lenk            : GEPOL surface, SMD
   Dimitrios Liakos       : Extrapolation schemes; parallel MDCI
   Dimitrios Manganas     : ROCIS; embedding schemes
   Dimitrios Pantazis     : SARC Basis sets
   Taras Petrenko         : DFT Hessian,TD-DFT gradient, ASA, ECA, R-Raman, ABS, FL, XAS/XES, NRVS
   Peter Pinski           : DLPNO-MP2, DLPNO-MP2 Gradient
   Christoph Reimann      : Effective Core Potentials
   Marius Retegan         : Local ZFS, SOC
   Christoph Riplinger    : Optimizer, TS searches, QM/MM, DLPNO-CCSD(T), (RO)-DLPNO pert. Triples
   Tobias Risthaus        : Range-separated hybrids, TD-DFT gradient, RPA, STAB
   Michael Roemelt        : Restricted open shell CIS
   Masaaki Saitow         : Open-shell DLPNO
   Barbara Sandhoefer     : DKH picture change effects
   Avijit Sen             : IP-ROCIS
   Kantharuban Sivalingam : CASSCF convergence, NEVPT2, FIC-MRCI
   Bernardo de Souza      : ESD, SOC TD-DFT
   Georgi Stoychev        : AutoAux, RI-MP2 NMR
   Willem Van den Heuvel  : Paramagnetic NMR
   Boris Wezisla          : Elementary symmetry handling
   Frank Wennmohs         : Technical directorship


 We gratefully acknowledge several colleagues who have allowed us to
 interface, adapt or use parts of their codes:
   Stefan Grimme, W. Hujo, H. Kruse,             : VdW corrections, initial TS optimization,
                  C. Bannwarth                     DFT functionals, gCP, sTDA/sTD-DF
   Ed Valeev                                     : LibInt (2-el integral package), F12 methods
   Garnet Chan, S. Sharma, J. Yang, R. Olivares  : DMRG
   Ulf Ekstrom                                   : XCFun DFT Library
   Mihaly Kallay                                 : mrcc  (arbitrary order and MRCC methods)
   Andreas Klamt, Michael Diedenhofen            : otool_cosmo (COSMO solvation model)
   Jiri Pittner, Ondrej Demel                    : Mk-CCSD
   Frank Weinhold                                : gennbo (NPA and NBO analysis)
   Christopher J. Cramer and Donald G. Truhlar   : smd solvation model
   Lars Goerigk                                  : TD-DFT with DH, B97 family of functionals
   V. Asgeirsson, H. Jonsson                     : NEB implementation
   FAccTs GmbH                                   : IRC, NEB, NEB-TS, Multilevel


 Your calculation uses the libint2 library for the computation of 2-el integrals
 For citations please refer to: http://libint.valeyev.net

 This ORCA versions uses:
   CBLAS   interface :  Fast vector & matrix operations
   LAPACKE interface :  Fast linear algebra routines
   SCALAPACK package :  Parallel linear algebra routines


----- Orbital basis set information -----
Your calculation utilizes the basis: aug-cc-pVTZ 
    H, B-Ne : Obtained from the ccRepo (grant-hill.group.shef.ac.uk/ccrepo) Feb. 2017
              R. A. Kendall, T. H. Dunning, Jr., R. J. Harrison, J. Chem. Phys. 96, 6796 (1992)
         He : Obtained from the ccRepo (grant-hill.group.shef.ac.uk/ccrepo) Feb. 2017
              D. E. Woon, T. H. Dunning, Jr., J. Chem. Phys. 100, 2975 (1994)
  Li-Be, Na : Obtained from the ccRepo (grant-hill.group.shef.ac.uk/ccrepo) Feb. 2017
              B. P. Prascher, D. E. Woon, K. A. Peterson, T. H. Dunning, Jr., A. K. Wilson, Theor. Chem. Acc. 128, 69 (2011)
         Mg : Obtained from the Peterson Research Group Website (tyr0.chem.wsu.edu/~kipeters) Feb. 2017
              B. P. Prascher, D. E. Woon, K. A. Peterson, T. H. Dunning, Jr., A. K. Wilson, Theor. Chem. Acc. 128, 69 (2011)
      Al-Ar : Obtained from the ccRepo (grant-hill.group.shef.ac.uk/ccrepo) Feb. 2017
              D. E. Woon, T. H. Dunning, Jr., J. Chem. Phys. 98, 1358 (1993)
      Sc-Zn : Obtained from the ccRepo (grant-hill.group.shef.ac.uk/ccrepo) Feb. 2017
              N. B. Balabanov, K. A. Peterson, J. Chem. Phys. 123, 064107 (2005)
              N. B. Balabanov, K. A. Peterson, J. Chem. Phys. 125, 074110 (2006)
      Ga-Kr : Obtained from the ccRepo (grant-hill.group.shef.ac.uk/ccrepo) Feb. 2017
              A. K. Wilson, D. E. Woon, K. A. Peterson, T. H. Dunning, Jr., J. Chem. Phys. 110, 7667 (1999)
     Ag, Au : Obtained from the Peterson Research Group Website (tyr0.chem.wsu.edu/~kipeters) Feb. 2017
              K. A. Peterson, C. Puzzarini, Theor. Chem. Acc. 114, 283 (2005)

----- AuxJ basis set information -----
Your calculation utilizes the AutoAux generation procedure.
  G. L. Stoychev, A. A. Auer, F. Neese, J. Chem. Theory Comput. 13, 554 (2017)

----- AuxC basis set information -----
Your calculation utilizes the auxiliary basis: aug-cc-pVTZ/C 
  H-He, B-F, Al-Ar, Ga-Kr : Obtained from the EMSL Basis Set Exchange (bse.pnl.gov) Feb. 2017
                            F. Weigend, A. Kohn, C. Hattig, J. Chem. Phys. 116, 3175 (2002)
                   Be, Mg : Obtained from the TURBOMOLE 7.0 basis set library
                            C. Haettig, Phys. Chem. Chem. Phys. 7, 59 (2005)
                       Ne : Obtained from the EMSL Basis Set Exchange (bse.pnl.gov) Feb. 2017
                            C. Haettig, Phys. Chem. Chem. Phys. 7, 59 (2005)
                            F. Weigend, A. Kohn, C. Hattig, J. Chem. Phys. 116, 3175 (2002)
                    Sc-Zn : Obtained from the EMSL Basis Set Exchange (bse.pnl.gov) Feb. 2017
                            J. G. Hill, J. A. Platts, J. Chem. Phys. 128, 044104 (2008)

----- AuxJK basis set information -----
Your calculation utilizes the AutoAux generation procedure.
  G. L. Stoychev, A. A. Auer, F. Neese, J. Chem. Theory Comput. 13, 554 (2017)

================================================================================
                                        WARNINGS
                       Please study these warnings very carefully!
================================================================================


WARNING: your system is open-shell and RHF/RKS was chosen
  ===> : WILL SWITCH to UHF/UKS


WARNING: MDCI localization with Augmented Hessian Foster-Boys
  ===> : Switching off randomization!

WARNING: Post HF methods need fully converged wavefunctions
  ===> : Setting SCFConvForced true
         You can overwrite this default with %scf ConvForced false 


INFO   : the flag for use of LIBINT has been found!

================================================================================
                                       INPUT FILE
================================================================================
NAME = simple-grid-250-290-b3lyp_d3bj-631gd-gas-singlepoint-DLPNO_CCSD_T1-NormalPNO-augtz-gas.inp
|  1> ! aug-cc-pVTZ aug-cc-pVTZ/C DLPNO-CCSD(T1) TightSCF NormalPNO UNO MiniPrint AutoAux
|  2> %pal nproc 10 end
|  3> %maxcore 20000
|  4> %mdci
|  5>      density none
|  6> end
|  7> 
|  8> * xyz 0 6
|  9>  O      0.20072700      0.34375200     -0.85566600
| 10>  C      1.03649600      1.26963900     -0.66420800
| 11>  C      2.93951700      0.22861900      0.57869100
| 12>  C      2.70404600     -0.91482600     -0.10772000
| 13>  C      3.31500300     -1.16651100     -1.45685000
| 14> Fe     -1.48585100     -0.16404200     -0.00790100
| 15> Cl     -2.03168200     -2.03212100     -0.98557400
| 16>  C      1.79809800     -2.00337500      0.38085100
| 17> Cl     -2.74191900      1.56859500     -0.46549200
| 18> Cl     -1.12048300     -0.37914800      2.14914300
| 19>  H      3.65320500      0.92760000      0.14362000
| 20>  H      2.33385700     -2.96102100      0.40440900
| 21>  H      1.37952800     -1.81585500      1.36914900
| 22>  H      0.96449800     -2.13521600     -0.32299900
| 23>  H      3.91300100     -2.08654900     -1.42576500
| 24>  H      2.53700700     -1.33204800     -2.21446200
| 25>  H      3.96726100     -0.35221100     -1.78299500
| 26>  C      2.63259300      0.44630600      2.04030500
| 27>  H      3.39049800     -0.05830800      2.65405600
| 28>  H      2.66931900      1.50633900      2.30416300
| 29>  H      1.65678200      0.05741000      2.33927300
| 30>  C      0.81144600      2.26668800      0.43384700
| 31>  H      1.69473700      2.87423100      0.63306300
| 32>  H      0.00966600      2.92541500      0.06805700
| 33>  H      0.45051900      1.79671000      1.34838400
| 34>  C      1.85369000      1.70425300     -1.84853400
| 35>  H      1.22962200      2.43158100     -2.38785600
| 36>  H      2.77934600      2.20458700     -1.56189800
| 37>  H      2.05156000      0.87308800     -2.52302200
| 38> *
| 39> 
| 40> 
| 41>                          ****END OF INPUT****
================================================================================

                       ****************************
                       * Single Point Calculation *
                       ****************************

---------------------------------
CARTESIAN COORDINATES (ANGSTROEM)
---------------------------------
  O      0.200727    0.343752   -0.855666
  C      1.036496    1.269639   -0.664208
  C      2.939517    0.228619    0.578691
  C      2.704046   -0.914826   -0.107720
  C      3.315003   -1.166511   -1.456850
  Fe    -1.485851   -0.164042   -0.007901
  Cl    -2.031682   -2.032121   -0.985574
  C      1.798098   -2.003375    0.380851
  Cl    -2.741919    1.568595   -0.465492
  Cl    -1.120483   -0.379148    2.149143
  H      3.653205    0.927600    0.143620
  H      2.333857   -2.961021    0.404409
  H      1.379528   -1.815855    1.369149
  H      0.964498   -2.135216   -0.322999
  H      3.913001   -2.086549   -1.425765
  H      2.537007   -1.332048   -2.214462
  H      3.967261   -0.352211   -1.782995
  C      2.632593    0.446306    2.040305
  H      3.390498   -0.058308    2.654056
  H      2.669319    1.506339    2.304163
  H      1.656782    0.057410    2.339273
  C      0.811446    2.266688    0.433847
  H      1.694737    2.874231    0.633063
  H      0.009666    2.925415    0.068057
  H      0.450519    1.796710    1.348384
  C      1.853690    1.704253   -1.848534
  H      1.229622    2.431581   -2.387856
  H      2.779346    2.204587   -1.561898
  H      2.051560    0.873088   -2.523022

----------------------------
CARTESIAN COORDINATES (A.U.)
----------------------------
  NO LB      ZA    FRAG     MASS         X           Y           Z
   0 O     8.0000    0    15.999    0.379319    0.649597   -1.616974
   1 C     6.0000    0    12.011    1.958694    2.399270   -1.255171
   2 C     6.0000    0    12.011    5.554882    0.432027    1.093568
   3 C     6.0000    0    12.011    5.109906   -1.728771   -0.203561
   4 C     6.0000    0    12.011    6.264448   -2.204386   -2.753048
   5 Fe   26.0000    0    55.850   -2.807851   -0.309994   -0.014931
   6 Cl   17.0000    0    35.453   -3.839323   -3.840152   -1.862465
   7 C     6.0000    0    12.011    3.397913   -3.785830    0.719704
   8 Cl   17.0000    0    35.453   -5.181476    2.964215   -0.879652
   9 Cl   17.0000    0    35.453   -2.117406   -0.716486    4.061292
  10 H     1.0000    0     1.008    6.903557    1.752910    0.271402
  11 H     1.0000    0     1.008    4.410351   -5.595519    0.764222
  12 H     1.0000    0     1.008    2.606930   -3.431469    2.587317
  13 H     1.0000    0     1.008    1.822637   -4.034973   -0.610380
  14 H     1.0000    0     1.008    7.394500   -3.943006   -2.694305
  15 H     1.0000    0     1.008    4.794248   -2.517206   -4.184727
  16 H     1.0000    0     1.008    7.497037   -0.665582   -3.369372
  17 C     6.0000    0    12.011    4.974880    0.843396    3.855618
  18 H     1.0000    0     1.008    6.407113   -0.110186    5.015439
  19 H     1.0000    0     1.008    5.044282    2.846568    4.354237
  20 H     1.0000    0     1.008    3.130864    0.108489    4.420585
  21 C     6.0000    0    12.011    1.533411    4.283420    0.819852
  22 H     1.0000    0     1.008    3.202589    5.431509    1.196316
  23 H     1.0000    0     1.008    0.018266    5.528233    0.128609
  24 H     1.0000    0     1.008    0.851358    3.395290    2.548076
  25 C     6.0000    0    12.011    3.502966    3.220571   -3.493223
  26 H     1.0000    0     1.008    2.323649    4.595022   -4.512394
  27 H     1.0000    0     1.008    5.252203    4.166066   -2.951559
  28 H     1.0000    0     1.008    3.876887    1.649897   -4.767821



           ************************************************************
           *        Program running with 10 parallel MPI-processes    *
           *              working on a common directory               *
           ************************************************************


           ************************************************************
           *        Program running with 10 parallel MPI-processes    *
           *              working on a common directory               *
           ************************************************************

Diagonalization of the overlap matrix:
Smallest eigenvalue                        ... 9.151e-07
Time for diagonalization                   ...    0.329 sec
Threshold for overlap eigenvalues          ... 1.000e-08
Number of eigenvalues below threshold      ... 0
Time for construction of square roots      ...    0.373 sec
Total time needed                          ...    0.708 sec

-------------------
DFT GRID GENERATION
-------------------

General Integration Accuracy     IntAcc      ...  4.340
Radial Grid Type                 RadialGrid  ... Gauss-Chebyshev
Angular Grid (max. acc.)         AngularGrid ... Lebedev-110
Angular grid pruning method      GridPruning ... 3 (G Style)
Weight generation scheme         WeightScheme... Becke
Basis function cutoff            BFCut       ...    1.0000e-11
Integration weight cutoff        WCut        ...    1.0000e-14
Grids for H and He will be reduced by one unit

# of grid points (after initial pruning)     ...  36112 (   0.0 sec)
# of grid points (after weights+screening)   ...  32425 (   0.1 sec)
nearest neighbour list constructed           ...    0.0 sec
Grid point re-assignment to atoms done       ...    0.0 sec
Grid point division into batches done        ...    0.0 sec
Reduced shell lists constructed in    0.2 sec

Total number of grid points                  ...    32425
Total number of batches                      ...      522
Average number of points per batch           ...       62
Average number of grid points per atom       ...     1118
Average number of shells per batch           ...   288.07 (83.99%)
Average number of basis functions per batch  ...   854.44 (83.36%)
Average number of large shells per batch     ...   233.85 (81.18%)
Average number of large basis fcns per batch ...   694.63 (81.30%)
Maximum spatial batch extension              ...   5.03,  4.60,  7.30 au
Average spatial batch extension              ...   0.19,  0.19,  0.19 au

Time for grid setup =    0.405 sec

Loading Hartree-Fock densities                     ... done
Calculating cut-offs                               ... done
Setting up the integral package                    ... done
Initializing the effective Hamiltonian             ... done
Starting the Coulomb interaction                   ... done (   1.1 sec)
Reading the grid                                   ... done
Mapping shells                                     ... done
Starting the XC term evaluation                    ... done (   0.8 sec)
Transforming the Hamiltonian                       ... done (   0.2 sec)
Diagonalizing the Hamiltonian                      ... done (   0.3 sec)
Back transforming the eigenvectors                 ... done (   0.1 sec)
Now organizing SCF variables                       ... done
--------------
SCF ITERATIONS
--------------
ITER       Energy         Delta-E        Max-DP      RMS-DP      [F,P]     Damp
               ***  Starting incremental Fock matrix formation  ***
  0  -3027.5927634657   0.000000000000 0.18424017  0.00095670  0.2489936 0.7000
  1  -3027.8448194977  -0.252056032018 0.13772335  0.00074979  0.1519540 0.7000
                               ***Turning on DIIS***
  2  -3028.0137321546  -0.168912656852 0.09797161  0.00055318  0.1094796 0.7000
  3  -3029.6020174315  -1.588285276983 0.24542545  0.00139683  0.0818166 0.0000
  4  -3028.3105095709   1.291507860623 0.04252135  0.00021493  0.0196472 0.0000
  5  -3028.4304588962  -0.119949325312 0.03965756  0.00017118  0.0107964 0.0000
  6  -3028.4773669527  -0.046908056454 0.01966170  0.00006945  0.0052368 0.0000
  7  -3028.4905349540  -0.013168001309 0.00863667  0.00003223  0.0032235 0.0000
  8  -3028.4792891498   0.011245804237 0.00636843  0.00001845  0.0015586 0.0000
  9  -3028.4753331611   0.003955988654 0.00231768  0.00001079  0.0007009 0.0000
 10  -3028.4631308582   0.012202302925 0.00091574  0.00000320  0.0004041 0.0000
 11  -3028.4685671154  -0.005436257225 0.00026825  0.00000168  0.0000796 0.0000
 12  -3028.4665933711   0.001973744277 0.00021865  0.00000121  0.0000224 0.0000
 13  -3028.4665899128   0.000003458313 0.00047667  0.00000167  0.0000087 0.0000
 14  -3028.4666094834  -0.000019570634 0.00028965  0.00000167  0.0000054 0.0000
 15  -3028.4665607206   0.000048762811 0.00062726  0.00000192  0.0000032 0.0000
 16  -3028.4665685099  -0.000007789218 0.00038324  0.00000165  0.0000027 0.0000
 17  -3028.4665842855  -0.000015775639 0.00052442  0.00000176  0.0000018 0.0000
 18  -3028.4665681834   0.000016102140 0.00083909  0.00000285  0.0000013 0.0000
                            ***DIIS convergence achieved***

               *****************************************************
               *                     SUCCESS                       *
               *           SCF CONVERGED AFTER  19 CYCLES          *
               *****************************************************

Total Energy       :        -3028.46657336 Eh          -82408.76504 eV
  Last Energy change         ...   -5.1740e-06  Tolerance :   1.0000e-08
  Last MAX-Density change    ...    3.9668e-04  Tolerance :   1.0000e-07
             **** THE GBW FILE WAS UPDATED (simple-grid-250-290-b3lyp_d3bj-631gd-gas-singlepoint-DLPNO_CCSD_T1-NormalPNO-augtz-gas.gbw) ****
             **** DENSITY FILE WAS UPDATED (simple-grid-250-290-b3lyp_d3bj-631gd-gas-singlepoint-DLPNO_CCSD_T1-NormalPNO-augtz-gas.scfp.tmp) ****
             **** ENERGY FILE WAS UPDATED (simple-grid-250-290-b3lyp_d3bj-631gd-gas-singlepoint-DLPNO_CCSD_T1-NormalPNO-augtz-gas.en.tmp) ****
----------------------
UHF SPIN CONTAMINATION
----------------------

Expectation value of <S**2>     :     8.764877
Ideal value S*(S+1) for S=2.5   :     8.750000
Deviation                       :     0.014877

----------------
ORBITAL ENERGIES
----------------
                 SPIN UP ORBITALS
  NO   OCC          E(Eh)            E(eV) 
   0   1.0000    -261.572532     -7117.7505 
   1   1.0000    -104.792112     -2851.5383 
   2   1.0000    -104.788468     -2851.4392 
   3   1.0000    -104.786299     -2851.3802 
   4   1.0000     -32.240285      -877.3027 
   5   1.0000     -27.716706      -754.2099 
   6   1.0000     -27.715665      -754.1816 
   7   1.0000     -27.715460      -754.1760 
   8   1.0000     -20.613598      -560.9245 
   9   1.0000     -11.420200      -310.7594 
  10   1.0000     -11.277253      -306.8696 
  11   1.0000     -11.275765      -306.8292 
  12   1.0000     -11.270887      -306.6964 
  13   1.0000     -11.248672      -306.0919 
  14   1.0000     -11.248577      -306.0893 
  15   1.0000     -11.237402      -305.7853 
  16   1.0000     -11.233621      -305.6824 
  17   1.0000     -10.518825      -286.2318 
  18   1.0000     -10.515149      -286.1317 
  19   1.0000     -10.512932      -286.0714 
  20   1.0000      -7.985664      -217.3010 
  21   1.0000      -7.984895      -217.2800 
  22   1.0000      -7.984852      -217.2789 
  23   1.0000      -7.982014      -217.2017 
  24   1.0000      -7.981249      -217.1808 
  25   1.0000      -7.981196      -217.1794 
  26   1.0000      -7.979730      -217.1395 
  27   1.0000      -7.979061      -217.1213 
  28   1.0000      -7.979004      -217.1197 
  29   1.0000      -4.595245      -125.0430 
  30   1.0000      -3.208366       -87.3041 
  31   1.0000      -3.206709       -87.2590 
  32   1.0000      -3.206522       -87.2539 
  33   1.0000      -1.456834       -39.6425 
  34   1.0000      -1.132849       -30.8264 
  35   1.0000      -1.097977       -29.8775 
  36   1.0000      -1.064783       -28.9742 
  37   1.0000      -1.058870       -28.8133 
  38   1.0000      -1.055654       -28.7258 
  39   1.0000      -1.023786       -27.8586 
  40   1.0000      -1.007881       -27.4258 
  41   1.0000      -0.963579       -26.2203 
  42   1.0000      -0.940319       -25.5874 
  43   1.0000      -0.924242       -25.1499 
  44   1.0000      -0.924104       -25.1461 
  45   1.0000      -0.913701       -24.8631 
  46   1.0000      -0.912967       -24.8431 
  47   1.0000      -0.900063       -24.4919 
  48   1.0000      -0.810797       -22.0629 
  49   1.0000      -0.735209       -20.0060 
  50   1.0000      -0.707991       -19.2654 
  51   1.0000      -0.698111       -18.9966 
  52   1.0000      -0.683256       -18.5923 
  53   1.0000      -0.659312       -17.9408 
  54   1.0000      -0.625425       -17.0187 
  55   1.0000      -0.621184       -16.9033 
  56   1.0000      -0.605544       -16.4777 
  57   1.0000      -0.598715       -16.2919 
  58   1.0000      -0.584992       -15.9184 
  59   1.0000      -0.577074       -15.7030 
  60   1.0000      -0.561045       -15.2668 
  61   1.0000      -0.555565       -15.1177 
  62   1.0000      -0.546027       -14.8582 
  63   1.0000      -0.544594       -14.8192 
  64   1.0000      -0.535450       -14.5703 
  65   1.0000      -0.528417       -14.3790 
  66   1.0000      -0.501004       -13.6330 
  67   1.0000      -0.497261       -13.5312 
  68   1.0000      -0.475283       -12.9331 
  69   1.0000      -0.473685       -12.8896 
  70   1.0000      -0.444611       -12.0985 
  71   1.0000      -0.438742       -11.9388 
  72   1.0000      -0.436764       -11.8849 
  73   1.0000      -0.428297       -11.6545 
  74   1.0000      -0.427132       -11.6228 
  75   1.0000      -0.425771       -11.5858 
  76   1.0000      -0.363156        -9.8820 
  77   0.0000       0.012344         0.3359 
  78   0.0000       0.023040         0.6270 
  79   0.0000       0.023869         0.6495 
  80   0.0000       0.030320         0.8250 
  81   0.0000       0.038993         1.0611 
  82   0.0000       0.040903         1.1130 
  83   0.0000       0.042671         1.1611 
  84   0.0000       0.043523         1.1843 
  85   0.0000       0.044474         1.2102 
  86   0.0000       0.055764         1.5174 
  87   0.0000       0.056986         1.5507 
  88   0.0000       0.061303         1.6682 
  89   0.0000       0.063358         1.7241 
  90   0.0000       0.063802         1.7362 
  91   0.0000       0.066410         1.8071 
  92   0.0000       0.072696         1.9782 
  93   0.0000       0.077493         2.1087 
  94   0.0000       0.082684         2.2499 
  95   0.0000       0.089885         2.4459 
  96   0.0000       0.091479         2.4893 
  97   0.0000       0.094032         2.5587 
  98   0.0000       0.098614         2.6834 
  99   0.0000       0.101735         2.7684 
 100   0.0000       0.103835         2.8255 
 101   0.0000       0.107614         2.9283 
 102   0.0000       0.116952         3.1824 
 103   0.0000       0.120696         3.2843 
 104   0.0000       0.123097         3.3496 
 105   0.0000       0.123388         3.3576 
 106   0.0000       0.125752         3.4219 
 107   0.0000       0.127634         3.4731 
 108   0.0000       0.130833         3.5602 
 109   0.0000       0.133108         3.6221 
 110   0.0000       0.134154         3.6505 
 111   0.0000       0.138015         3.7556 
 112   0.0000       0.142783         3.8853 
 113   0.0000       0.145796         3.9673 
 114   0.0000       0.149747         4.0748 
 115   0.0000       0.151457         4.1214 
 116   0.0000       0.156066         4.2468 
 117   0.0000       0.161070         4.3829 
 118   0.0000       0.162082         4.4105 
 119   0.0000       0.165745         4.5101 
 120   0.0000       0.168721         4.5911 
 121   0.0000       0.170775         4.6470 
 122   0.0000       0.173469         4.7203 
 123   0.0000       0.179671         4.8891 
 124   0.0000       0.181768         4.9461 
 125   0.0000       0.184948         5.0327 
 126   0.0000       0.185291         5.0420 
 127   0.0000       0.190151         5.1743 
 128   0.0000       0.194060         5.2806 
 129   0.0000       0.197333         5.3697 
 130   0.0000       0.198380         5.3982 
 131   0.0000       0.200287         5.4501 
 132   0.0000       0.204752         5.5716 
 133   0.0000       0.207843         5.6557 
 134   0.0000       0.211685         5.7602 
 135   0.0000       0.217474         5.9178 
 136   0.0000       0.218332         5.9411 
 137   0.0000       0.224310         6.1038 
 138   0.0000       0.227062         6.1787 
 139   0.0000       0.232016         6.3135 
 140   0.0000       0.233437         6.3522 
 141   0.0000       0.235465         6.4073 
 142   0.0000       0.238341         6.4856 
 143   0.0000       0.241264         6.5651 
 144   0.0000       0.241970         6.5843 
 145   0.0000       0.244989         6.6665 
 146   0.0000       0.252942         6.8829 
 147   0.0000       0.256262         6.9733 
 148   0.0000       0.257144         6.9972 
 149   0.0000       0.260452         7.0873 
 150   0.0000       0.262276         7.1369 
 151   0.0000       0.267558         7.2806 
 152   0.0000       0.275494         7.4966 
 153   0.0000       0.280395         7.6299 
 154   0.0000       0.281390         7.6570 
 155   0.0000       0.285911         7.7800 
 156   0.0000       0.289122         7.8674 
 157   0.0000       0.291317         7.9271 
 158   0.0000       0.295007         8.0275 
 159   0.0000       0.305190         8.3046 
 160   0.0000       0.308652         8.3989 
 161   0.0000       0.310274         8.4430 
 162   0.0000       0.317889         8.6502 
 163   0.0000       0.319205         8.6860 
 164   0.0000       0.323015         8.7897 
 165   0.0000       0.326623         8.8879 
 166   0.0000       0.333275         9.0689 
 167   0.0000       0.335360         9.1256 
 168   0.0000       0.339558         9.2398 
 169   0.0000       0.341985         9.3059 
 170   0.0000       0.343372         9.3436 
 171   0.0000       0.352458         9.5909 
 172   0.0000       0.354437         9.6447 
 173   0.0000       0.357797         9.7362 
 174   0.0000       0.359545         9.7837 
 175   0.0000       0.366797         9.9811 
 176   0.0000       0.370009        10.0685 
 177   0.0000       0.371266        10.1027 
 178   0.0000       0.374932        10.2024 
 179   0.0000       0.376012        10.2318 
 180   0.0000       0.381171        10.3722 
 181   0.0000       0.382885        10.4188 
 182   0.0000       0.383415        10.4333 
 183   0.0000       0.384437        10.4611 
 184   0.0000       0.388233        10.5644 
 185   0.0000       0.390092        10.6150 
 186   0.0000       0.396028        10.7765 
 187   0.0000       0.400650        10.9022 
 188   0.0000       0.401262        10.9189 
 189   0.0000       0.403331        10.9752 
 190   0.0000       0.410952        11.1826 
 191   0.0000       0.413380        11.2486 
 192   0.0000       0.417563        11.3625 
 193   0.0000       0.422869        11.5069 
 194   0.0000       0.425446        11.5770 
 195   0.0000       0.432362        11.7652 
 196   0.0000       0.436059        11.8658 
 197   0.0000       0.438855        11.9419 
 198   0.0000       0.443182        12.0596 
 199   0.0000       0.444438        12.0938 
 200   0.0000       0.449208        12.2236 
 201   0.0000       0.450328        12.2540 
 202   0.0000       0.453986        12.3536 
 203   0.0000       0.457014        12.4360 
 204   0.0000       0.460013        12.5176 
 205   0.0000       0.464362        12.6359 
 206   0.0000       0.469087        12.7645 
 207   0.0000       0.472246        12.8505 
 208   0.0000       0.478705        13.0262 
 209   0.0000       0.480124        13.0648 
 210   0.0000       0.485130        13.2010 
 211   0.0000       0.486889        13.2489 
 212   0.0000       0.490899        13.3580 
 213   0.0000       0.493651        13.4329 
 214   0.0000       0.498936        13.5767 
 215   0.0000       0.501439        13.6449 
 216   0.0000       0.501673        13.6512 
 217   0.0000       0.507101        13.7989 
 218   0.0000       0.511008        13.9052 
 219   0.0000       0.512925        13.9574 
 220   0.0000       0.515528        14.0282 
 221   0.0000       0.517613        14.0850 
 222   0.0000       0.523564        14.2469 
 223   0.0000       0.524921        14.2838 
 224   0.0000       0.528000        14.3676 
 225   0.0000       0.528680        14.3861 
 226   0.0000       0.531385        14.4597 
 227   0.0000       0.534447        14.5430 
 228   0.0000       0.540537        14.7088 
 229   0.0000       0.541110        14.7243 
 230   0.0000       0.544278        14.8106 
 231   0.0000       0.549383        14.9495 
 232   0.0000       0.554230        15.0814 
 233   0.0000       0.558233        15.1903 
 234   0.0000       0.560979        15.2650 
 235   0.0000       0.564846        15.3702 
 236   0.0000       0.569499        15.4969 
 237   0.0000       0.574062        15.6210 
 238   0.0000       0.576039        15.6748 
 239   0.0000       0.582406        15.8481 
 240   0.0000       0.583930        15.8895 
 241   0.0000       0.586324        15.9547 
 242   0.0000       0.588711        16.0196 
 243   0.0000       0.593318        16.1450 
 244   0.0000       0.596738        16.2381 
 245   0.0000       0.599935        16.3251 
 246   0.0000       0.604806        16.4576 
 247   0.0000       0.611576        16.6418 
 248   0.0000       0.612673        16.6717 
 249   0.0000       0.616287        16.7700 
 250   0.0000       0.619510        16.8577 
 251   0.0000       0.626233        17.0407 
 252   0.0000       0.627663        17.0796 
 253   0.0000       0.632815        17.2198 
 254   0.0000       0.636801        17.3282 
 255   0.0000       0.641148        17.4465 
 256   0.0000       0.644860        17.5475 
 257   0.0000       0.647488        17.6191 
 258   0.0000       0.651006        17.7148 
 259   0.0000       0.654851        17.8194 
 260   0.0000       0.660030        17.9603 
 261   0.0000       0.664907        18.0930 
 262   0.0000       0.667420        18.1614 
 263   0.0000       0.669447        18.2166 
 264   0.0000       0.672091        18.2885 
 265   0.0000       0.679145        18.4805 
 266   0.0000       0.687225        18.7003 
 267   0.0000       0.689196        18.7540 
 268   0.0000       0.693040        18.8586 
 269   0.0000       0.695472        18.9248 
 270   0.0000       0.701420        19.0866 
 271   0.0000       0.708039        19.2667 
 272   0.0000       0.711367        19.3573 
 273   0.0000       0.715358        19.4659 
 274   0.0000       0.719147        19.5690 
 275   0.0000       0.721339        19.6286 
 276   0.0000       0.726901        19.7800 
 277   0.0000       0.730902        19.8889 
 278   0.0000       0.736682        20.0461 
 279   0.0000       0.738068        20.0839 
 280   0.0000       0.743612        20.2347 
 281   0.0000       0.747213        20.3327 
 282   0.0000       0.757050        20.6004 
 283   0.0000       0.763208        20.7679 
 284   0.0000       0.766303        20.8522 
 285   0.0000       0.775945        21.1145 
 286   0.0000       0.781600        21.2684 
 287   0.0000       0.786332        21.3972 
 288   0.0000       0.794800        21.6276 
 289   0.0000       0.801357        21.8060 
 290   0.0000       0.810441        22.0532 
 291   0.0000       0.814720        22.1697 
 292   0.0000       0.816939        22.2300 
 293   0.0000       0.825008        22.4496 
 294   0.0000       0.829562        22.5735 
 295   0.0000       0.835644        22.7390 
 296   0.0000       0.840596        22.8738 
 297   0.0000       0.844649        22.9841 
 298   0.0000       0.851718        23.1764 
 299   0.0000       0.852330        23.1931 
 300   0.0000       0.861496        23.4425 
 301   0.0000       0.862360        23.4660 
 302   0.0000       0.868096        23.6221 
 303   0.0000       0.874046        23.7840 
 304   0.0000       0.875429        23.8216 
 305   0.0000       0.882404        24.0114 
 306   0.0000       0.885649        24.0997 
 307   0.0000       0.889692        24.2098 
 308   0.0000       0.900167        24.4948 
 309   0.0000       0.906332        24.6625 
 310   0.0000       0.908446        24.7201 
 311   0.0000       0.916414        24.9369 
 312   0.0000       0.917971        24.9793 
 313   0.0000       0.918738        25.0001 
 314   0.0000       0.923666        25.1342 
 315   0.0000       0.926575        25.2134 
 316   0.0000       0.930850        25.3297 
 317   0.0000       0.936828        25.4924 
 318   0.0000       0.937280        25.5047 
 319   0.0000       0.938988        25.5512 
 320   0.0000       0.942737        25.6532 
 321   0.0000       0.948575        25.8120 
 322   0.0000       0.950052        25.8522 
 323   0.0000       0.954677        25.9781 
 324   0.0000       0.960296        26.1310 
 325   0.0000       0.961157        26.1544 
 326   0.0000       0.968830        26.3632 
 327   0.0000       0.970996        26.4221 
 328   0.0000       0.974512        26.5178 
 329   0.0000       0.975239        26.5376 
 330   0.0000       0.978514        26.6267 
 331   0.0000       0.981628        26.7115 
 332   0.0000       0.983900        26.7733 
 333   0.0000       0.988821        26.9072 
 334   0.0000       0.996652        27.1203 
 335   0.0000       0.998753        27.1775 
 336   0.0000       1.003816        27.3152 
 337   0.0000       1.006130        27.3782 
 338   0.0000       1.009000        27.4563 
 339   0.0000       1.014671        27.6106 
 340   0.0000       1.016509        27.6606 
 341   0.0000       1.020371        27.7657 
 342   0.0000       1.022744        27.8303 
 343   0.0000       1.026934        27.9443 
 344   0.0000       1.028702        27.9924 
 345   0.0000       1.031097        28.0576 
 346   0.0000       1.039274        28.2801 
 347   0.0000       1.040741        28.3200 
 348   0.0000       1.042754        28.3748 
 349   0.0000       1.049023        28.5454 
 350   0.0000       1.051271        28.6066 
 351   0.0000       1.054675        28.6992 
 352   0.0000       1.059972        28.8433 
 353   0.0000       1.062917        28.9235 
 354   0.0000       1.071999        29.1706 
 355   0.0000       1.074197        29.2304 
 356   0.0000       1.074533        29.2395 
 357   0.0000       1.081233        29.4218 
 358   0.0000       1.084829        29.5197 
 359   0.0000       1.088743        29.6262 
 360   0.0000       1.090074        29.6624 
 361   0.0000       1.094738        29.7893 
 362   0.0000       1.099139        29.9091 
 363   0.0000       1.101438        29.9717 
 364   0.0000       1.106421        30.1072 
 365   0.0000       1.111418        30.2432 
 366   0.0000       1.112413        30.2703 
 367   0.0000       1.115166        30.3452 
 368   0.0000       1.121564        30.5193 
 369   0.0000       1.126220        30.6460 
 370   0.0000       1.130291        30.7568 
 371   0.0000       1.135109        30.8879 
 372   0.0000       1.138702        30.9857 
 373   0.0000       1.143873        31.1264 
 374   0.0000       1.146956        31.2103 
 375   0.0000       1.156961        31.4825 
 376   0.0000       1.159070        31.5399 
 377   0.0000       1.162501        31.6333 
 378   0.0000       1.168237        31.7894 
 379   0.0000       1.172819        31.9140 
 380   0.0000       1.177051        32.0292 
 381   0.0000       1.184283        32.2260 
 382   0.0000       1.187551        32.3149 
 383   0.0000       1.191160        32.4131 
 384   0.0000       1.196957        32.5709 
 385   0.0000       1.198834        32.6219 
 386   0.0000       1.204610        32.7791 
 387   0.0000       1.211075        32.9550 
 388   0.0000       1.214849        33.0577 
 389   0.0000       1.223338        33.2887 
 390   0.0000       1.225294        33.3419 
 391   0.0000       1.229988        33.4697 
 392   0.0000       1.233244        33.5583 
 393   0.0000       1.233745        33.5719 
 394   0.0000       1.243150        33.8278 
 395   0.0000       1.246498        33.9189 
 396   0.0000       1.250689        34.0330 
 397   0.0000       1.256580        34.1933 
 398   0.0000       1.260521        34.3005 
 399   0.0000       1.264530        34.4096 
 400   0.0000       1.267247        34.4835 
 401   0.0000       1.271461        34.5982 
 402   0.0000       1.276333        34.7308 
 403   0.0000       1.288048        35.0496 
 404   0.0000       1.294163        35.2160 
 405   0.0000       1.295895        35.2631 
 406   0.0000       1.299493        35.3610 
 407   0.0000       1.305173        35.5156 
 408   0.0000       1.309799        35.6414 
 409   0.0000       1.313188        35.7337 
 410   0.0000       1.318438        35.8765 
 411   0.0000       1.320840        35.9419 
 412   0.0000       1.324972        36.0543 
 413   0.0000       1.326962        36.1085 
 414   0.0000       1.339582        36.4519 
 415   0.0000       1.341990        36.5174 
 416   0.0000       1.346085        36.6288 
 417   0.0000       1.353746        36.8373 
 418   0.0000       1.358110        36.9561 
 419   0.0000       1.367515        37.2120 
 420   0.0000       1.372252        37.3409 
 421   0.0000       1.377366        37.4800 
 422   0.0000       1.383216        37.6392 
 423   0.0000       1.384237        37.6670 
 424   0.0000       1.387661        37.7602 
 425   0.0000       1.397262        38.0214 
 426   0.0000       1.400735        38.1159 
 427   0.0000       1.403350        38.1871 
 428   0.0000       1.413312        38.4582 
 429   0.0000       1.415753        38.5246 
 430   0.0000       1.419971        38.6394 
 431   0.0000       1.425022        38.7768 
 432   0.0000       1.431708        38.9588 
 433   0.0000       1.434024        39.0218 
 434   0.0000       1.439700        39.1762 
 435   0.0000       1.454193        39.5706 
 436   0.0000       1.458381        39.6846 
 437   0.0000       1.462232        39.7894 
 438   0.0000       1.468173        39.9510 
 439   0.0000       1.472509        40.0690 
 440   0.0000       1.478796        40.2401 
 441   0.0000       1.481640        40.3175 
 442   0.0000       1.487071        40.4653 
 443   0.0000       1.489788        40.5392 
 444   0.0000       1.496714        40.7277 
 445   0.0000       1.496985        40.7350 
 446   0.0000       1.505346        40.9626 
 447   0.0000       1.508553        41.0498 
 448   0.0000       1.517400        41.2906 
 449   0.0000       1.520098        41.3640 
 450   0.0000       1.521279        41.3961 
 451   0.0000       1.526636        41.5419 
 452   0.0000       1.537114        41.8270 
 453   0.0000       1.539238        41.8848 
 454   0.0000       1.543390        41.9978 
 455   0.0000       1.548800        42.1450 
 456   0.0000       1.561703        42.4961 
 457   0.0000       1.567600        42.6566 
 458   0.0000       1.568454        42.6798 
 459   0.0000       1.572184        42.7813 
 460   0.0000       1.575691        42.8767 
 461   0.0000       1.586161        43.1616 
 462   0.0000       1.587297        43.1925 
 463   0.0000       1.596290        43.4373 
 464   0.0000       1.598942        43.5094 
 465   0.0000       1.606431        43.7132 
 466   0.0000       1.612279        43.8723 
 467   0.0000       1.613979        43.9186 
 468   0.0000       1.616615        43.9903 
 469   0.0000       1.620279        44.0900 
 470   0.0000       1.627927        44.2982 
 471   0.0000       1.636258        44.5248 
 472   0.0000       1.643883        44.7323 
 473   0.0000       1.648088        44.8468 
 474   0.0000       1.653922        45.0055 
 475   0.0000       1.660224        45.1770 
 476   0.0000       1.663921        45.2776 
 477   0.0000       1.671329        45.4792 
 478   0.0000       1.676093        45.6088 
 479   0.0000       1.681665        45.7604 
 480   0.0000       1.689433        45.9718 
 481   0.0000       1.692997        46.0688 
 482   0.0000       1.701074        46.2886 
 483   0.0000       1.704725        46.3879 
 484   0.0000       1.707996        46.4769 
 485   0.0000       1.713190        46.6183 
 486   0.0000       1.717912        46.7468 
 487   0.0000       1.722415        46.8693 
 488   0.0000       1.733217        47.1632 
 489   0.0000       1.733959        47.1834 
 490   0.0000       1.739431        47.3323 
 491   0.0000       1.749289        47.6006 
 492   0.0000       1.753189        47.7067 
 493   0.0000       1.753917        47.7265 
 494   0.0000       1.758833        47.8603 
 495   0.0000       1.762306        47.9548 
 496   0.0000       1.763488        47.9869 
 497   0.0000       1.770460        48.1767 
 498   0.0000       1.778441        48.3939 
 499   0.0000       1.780373        48.4464 
 500   0.0000       1.792074        48.7648 
 501   0.0000       1.798804        48.9479 
 502   0.0000       1.802854        49.0581 
 503   0.0000       1.805641        49.1340 
 504   0.0000       1.811006        49.2800 
 505   0.0000       1.815218        49.3946 
 506   0.0000       1.821394        49.5626 
 507   0.0000       1.828191        49.7476 
 508   0.0000       1.833181        49.8834 
 509   0.0000       1.837435        49.9991 
 510   0.0000       1.841686        50.1148 
 511   0.0000       1.850499        50.3546 
 512   0.0000       1.857769        50.5525 
 513   0.0000       1.862143        50.6715 
 514   0.0000       1.866955        50.8024 
 515   0.0000       1.870637        50.9026 
 516   0.0000       1.877408        51.0869 
 517   0.0000       1.880577        51.1731 
 518   0.0000       1.881407        51.1957 
 519   0.0000       1.889139        51.4061 
 520   0.0000       1.893685        51.5298 
 521   0.0000       1.904049        51.8118 
 522   0.0000       1.906974        51.8914 
 523   0.0000       1.910166        51.9783 
 524   0.0000       1.915451        52.1221 
 525   0.0000       1.920355        52.2555 
 526   0.0000       1.921066        52.2749 
 527   0.0000       1.930226        52.5241 
 528   0.0000       1.934338        52.6360 
 529   0.0000       1.937077        52.7105 
 530   0.0000       1.944107        52.9019 
 531   0.0000       1.949048        53.0363 
 532   0.0000       1.957004        53.2528 
 533   0.0000       1.959685        53.3258 
 534   0.0000       1.965478        53.4834 
 535   0.0000       1.971606        53.6501 
 536   0.0000       1.984504        54.0011 
 537   0.0000       1.986998        54.0690 
 538   0.0000       1.991734        54.1978 
 539   0.0000       1.996032        54.3148 
 540   0.0000       2.007486        54.6265 
 541   0.0000       2.013797        54.7982 
 542   0.0000       2.023350        55.0581 
 543   0.0000       2.031659        55.2843 
 544   0.0000       2.034136        55.3517 
 545   0.0000       2.039596        55.5002 
 546   0.0000       2.044891        55.6443 
 547   0.0000       2.047141        55.7055 
 548   0.0000       2.059305        56.0365 
 549   0.0000       2.063668        56.1552 
 550   0.0000       2.072922        56.4071 
 551   0.0000       2.076180        56.4957 
 552   0.0000       2.090691        56.8906 
 553   0.0000       2.099202        57.1222 
 554   0.0000       2.105073        57.2820 
 555   0.0000       2.115170        57.5567 
 556   0.0000       2.117311        57.6150 
 557   0.0000       2.118594        57.6499 
 558   0.0000       2.128079        57.9080 
 559   0.0000       2.132197        58.0200 
 560   0.0000       2.143858        58.3373 
 561   0.0000       2.145329        58.3774 
 562   0.0000       2.152155        58.5631 
 563   0.0000       2.162323        58.8398 
 564   0.0000       2.164309        58.8938 
 565   0.0000       2.179080        59.2958 
 566   0.0000       2.183801        59.4243 
 567   0.0000       2.191365        59.6301 
 568   0.0000       2.199841        59.8607 
 569   0.0000       2.202057        59.9210 
 570   0.0000       2.206095        60.0309 
 571   0.0000       2.212322        60.2003 
 572   0.0000       2.218661        60.3728 
 573   0.0000       2.228561        60.6422 
 574   0.0000       2.234315        60.7988 
 575   0.0000       2.242250        61.0147 
 576   0.0000       2.252639        61.2974 
 577   0.0000       2.255334        61.3708 
 578   0.0000       2.261869        61.5486 
 579   0.0000       2.268404        61.7264 
 580   0.0000       2.277545        61.9752 
 581   0.0000       2.284610        62.1674 
 582   0.0000       2.301864        62.6369 
 583   0.0000       2.307145        62.7806 
 584   0.0000       2.315318        63.0030 
 585   0.0000       2.321525        63.1719 
 586   0.0000       2.331028        63.4305 
 587   0.0000       2.334623        63.5283 
 588   0.0000       2.339688        63.6662 
 589   0.0000       2.344317        63.7921 
 590   0.0000       2.352800        64.0229 
 591   0.0000       2.361800        64.2678 
 592   0.0000       2.376544        64.6691 
 593   0.0000       2.380887        64.7872 
 594   0.0000       2.386940        64.9519 
 595   0.0000       2.395312        65.1798 
 596   0.0000       2.405231        65.4497 
 597   0.0000       2.407680        65.5163 
 598   0.0000       2.409343        65.5616 
 599   0.0000       2.421495        65.8922 
 600   0.0000       2.432053        66.1795 
 601   0.0000       2.437895        66.3385 
 602   0.0000       2.443230        66.4837 
 603   0.0000       2.456314        66.8397 
 604   0.0000       2.463591        67.0377 
 605   0.0000       2.469071        67.1868 
 606   0.0000       2.484364        67.6030 
 607   0.0000       2.495589        67.9084 
 608   0.0000       2.499851        68.0244 
 609   0.0000       2.517964        68.5173 
 610   0.0000       2.533291        68.9344 
 611   0.0000       2.536122        69.0114 
 612   0.0000       2.548914        69.3595 
 613   0.0000       2.570102        69.9360 
 614   0.0000       2.575976        70.0959 
 615   0.0000       2.584265        70.3214 
 616   0.0000       2.602243        70.8106 
 617   0.0000       2.609780        71.0157 
 618   0.0000       2.636227        71.7354 
 619   0.0000       2.639514        71.8248 
 620   0.0000       2.647530        72.0430 
 621   0.0000       2.655823        72.2686 
 622   0.0000       2.661708        72.4288 
 623   0.0000       2.668513        72.6139 
 624   0.0000       2.671477        72.6946 
 625   0.0000       2.686581        73.1056 
 626   0.0000       2.694819        73.3297 
 627   0.0000       2.698021        73.4169 
 628   0.0000       2.714632        73.8689 
 629   0.0000       2.725334        74.1601 
 630   0.0000       2.728014        74.2330 
 631   0.0000       2.742489        74.6269 
 632   0.0000       2.751958        74.8846 
 633   0.0000       2.758983        75.0758 
 634   0.0000       2.771560        75.4180 
 635   0.0000       2.779639        75.6378 
 636   0.0000       2.791354        75.9566 
 637   0.0000       2.798835        76.1602 
 638   0.0000       2.800198        76.1973 
 639   0.0000       2.821034        76.7642 
 640   0.0000       2.837739        77.2188 
 641   0.0000       2.849649        77.5429 
 642   0.0000       2.858121        77.7734 
 643   0.0000       2.866061        77.9895 
 644   0.0000       2.872469        78.1639 
 645   0.0000       2.890686        78.6596 
 646   0.0000       2.898599        78.8749 
 647   0.0000       2.910632        79.2023 
 648   0.0000       2.925508        79.6071 
 649   0.0000       2.940952        80.0274 
 650   0.0000       2.944754        80.1308 
 651   0.0000       2.957770        80.4850 
 652   0.0000       2.974268        80.9340 
 653   0.0000       2.986885        81.2773 
 654   0.0000       3.009656        81.8969 
 655   0.0000       3.025151        82.3186 
 656   0.0000       3.037422        82.6525 
 657   0.0000       3.056153        83.1622 
 658   0.0000       3.068284        83.4923 
 659   0.0000       3.089009        84.0562 
 660   0.0000       3.093392        84.1755 
 661   0.0000       3.103995        84.4640 
 662   0.0000       3.122541        84.9686 
 663   0.0000       3.139292        85.4245 
 664   0.0000       3.155118        85.8551 
 665   0.0000       3.174685        86.3876 
 666   0.0000       3.177291        86.4585 
 667   0.0000       3.188109        86.7529 
 668   0.0000       3.206558        87.2549 
 669   0.0000       3.209496        87.3348 
 670   0.0000       3.218142        87.5701 
 671   0.0000       3.224788        87.7510 
 672   0.0000       3.231126        87.9234 
 673   0.0000       3.249826        88.4323 
 674   0.0000       3.250688        88.4557 
 675   0.0000       3.268338        88.9360 
 676   0.0000       3.270019        88.9818 
 677   0.0000       3.280481        89.2664 
 678   0.0000       3.284090        89.3646 
 679   0.0000       3.299462        89.7829 
 680   0.0000       3.311132        90.1005 
 681   0.0000       3.318333        90.2964 
 682   0.0000       3.330676        90.6323 
 683   0.0000       3.333752        90.7160 
 684   0.0000       3.340710        90.9053 
 685   0.0000       3.350311        91.1666 
 686   0.0000       3.364922        91.5642 
 687   0.0000       3.384741        92.1035 
 688   0.0000       3.390997        92.2737 
 689   0.0000       3.405464        92.6674 
 690   0.0000       3.419514        93.0497 
 691   0.0000       3.424656        93.1896 
 692   0.0000       3.435865        93.4946 
 693   0.0000       3.442781        93.6828 
 694   0.0000       3.450612        93.8959 
 695   0.0000       3.461814        94.2007 
 696   0.0000       3.469552        94.4113 
 697   0.0000       3.476016        94.5872 
 698   0.0000       3.485509        94.8455 
 699   0.0000       3.490623        94.9847 
 700   0.0000       3.496247        95.1377 
 701   0.0000       3.504804        95.3706 
 702   0.0000       3.520295        95.7921 
 703   0.0000       3.522102        95.8413 
 704   0.0000       3.531379        96.0937 
 705   0.0000       3.539257        96.3081 
 706   0.0000       3.547118        96.5220 
 707   0.0000       3.554800        96.7310 
 708   0.0000       3.559050        96.8467 
 709   0.0000       3.570434        97.1565 
 710   0.0000       3.572034        97.2000 
 711   0.0000       3.580537        97.4314 
 712   0.0000       3.596484        97.8653 
 713   0.0000       3.603129        98.0461 
 714   0.0000       3.612265        98.2947 
 715   0.0000       3.615764        98.3899 
 716   0.0000       3.629573        98.7657 
 717   0.0000       3.641803        99.0985 
 718   0.0000       3.647352        99.2495 
 719   0.0000       3.654056        99.4319 
 720   0.0000       3.657458        99.5245 
 721   0.0000       3.674554        99.9897 
 722   0.0000       3.679407       100.1217 
 723   0.0000       3.682492       100.2057 
 724   0.0000       3.689228       100.3890 
 725   0.0000       3.701599       100.7256 
 726   0.0000       3.713515       101.0499 
 727   0.0000       3.715495       101.1038 
 728   0.0000       3.721250       101.2604 
 729   0.0000       3.734156       101.6116 
 730   0.0000       3.739224       101.7495 
 731   0.0000       3.749595       102.0317 
 732   0.0000       3.759629       102.3047 
 733   0.0000       3.764887       102.4478 
 734   0.0000       3.770261       102.5940 
 735   0.0000       3.777952       102.8033 
 736   0.0000       3.783798       102.9624 
 737   0.0000       3.790464       103.1438 
 738   0.0000       3.797056       103.3231 
 739   0.0000       3.802488       103.4710 
 740   0.0000       3.806657       103.5844 
 741   0.0000       3.814810       103.8063 
 742   0.0000       3.819487       103.9335 
 743   0.0000       3.821708       103.9940 
 744   0.0000       3.831796       104.2685 
 745   0.0000       3.839182       104.4694 
 746   0.0000       3.859239       105.0152 
 747   0.0000       3.865520       105.1861 
 748   0.0000       3.871073       105.3373 
 749   0.0000       3.876525       105.4856 
 750   0.0000       3.883556       105.6769 
 751   0.0000       3.894779       105.9823 
 752   0.0000       3.895915       106.0132 
 753   0.0000       3.903122       106.2094 
 754   0.0000       3.913147       106.4822 
 755   0.0000       3.916147       106.5638 
 756   0.0000       3.921423       106.7073 
 757   0.0000       3.929497       106.9271 
 758   0.0000       3.939258       107.1927 
 759   0.0000       3.944084       107.3240 
 760   0.0000       3.954532       107.6083 
 761   0.0000       3.957016       107.6759 
 762   0.0000       3.963867       107.8623 
 763   0.0000       3.971967       108.0827 
 764   0.0000       3.978083       108.2491 
 765   0.0000       3.988420       108.5304 
 766   0.0000       3.994594       108.6984 
 767   0.0000       4.001505       108.8865 
 768   0.0000       4.012809       109.1941 
 769   0.0000       4.014168       109.2311 
 770   0.0000       4.019937       109.3880 
 771   0.0000       4.026697       109.5720 
 772   0.0000       4.036021       109.8257 
 773   0.0000       4.039936       109.9322 
 774   0.0000       4.058398       110.4346 
 775   0.0000       4.058933       110.4492 
 776   0.0000       4.061996       110.5325 
 777   0.0000       4.072508       110.8186 
 778   0.0000       4.077921       110.9659 
 779   0.0000       4.098206       111.5178 
 780   0.0000       4.099762       111.5602 
 781   0.0000       4.101170       111.5985 
 782   0.0000       4.108273       111.7918 
 783   0.0000       4.116221       112.0081 
 784   0.0000       4.125613       112.2636 
 785   0.0000       4.130628       112.4001 
 786   0.0000       4.134684       112.5105 
 787   0.0000       4.151213       112.9602 
 788   0.0000       4.155035       113.0642 
 789   0.0000       4.161617       113.2433 
 790   0.0000       4.177174       113.6667 
 791   0.0000       4.181901       113.7953 
 792   0.0000       4.199415       114.2719 
 793   0.0000       4.203331       114.3785 
 794   0.0000       4.204961       114.4228 
 795   0.0000       4.221605       114.8757 
 796   0.0000       4.231459       115.1439 
 797   0.0000       4.238955       115.3478 
 798   0.0000       4.244937       115.5106 
 799   0.0000       4.257126       115.8423 
 800   0.0000       4.266560       116.0990 
 801   0.0000       4.275853       116.3519 
 802   0.0000       4.289167       116.7142 
 803   0.0000       4.293147       116.8225 
 804   0.0000       4.307157       117.2037 
 805   0.0000       4.312779       117.3567 
 806   0.0000       4.320375       117.5634 
 807   0.0000       4.330008       117.8255 
 808   0.0000       4.336341       117.9978 
 809   0.0000       4.344177       118.2111 
 810   0.0000       4.360546       118.6565 
 811   0.0000       4.366201       118.8104 
 812   0.0000       4.374638       119.0399 
 813   0.0000       4.383399       119.2783 
 814   0.0000       4.395522       119.6082 
 815   0.0000       4.400531       119.7445 
 816   0.0000       4.411066       120.0312 
 817   0.0000       4.420637       120.2916 
 818   0.0000       4.430754       120.5670 
 819   0.0000       4.440973       120.8450 
 820   0.0000       4.452601       121.1614 
 821   0.0000       4.458444       121.3204 
 822   0.0000       4.477153       121.8295 
 823   0.0000       4.481441       121.9462 
 824   0.0000       4.496786       122.3638 
 825   0.0000       4.501198       122.4838 
 826   0.0000       4.501986       122.5053 
 827   0.0000       4.512732       122.7977 
 828   0.0000       4.517622       122.9308 
 829   0.0000       4.530473       123.2804 
 830   0.0000       4.541671       123.5851 
 831   0.0000       4.549204       123.7901 
 832   0.0000       4.557028       124.0030 
 833   0.0000       4.565507       124.2338 
 834   0.0000       4.573717       124.4572 
 835   0.0000       4.599562       125.1605 
 836   0.0000       4.601988       125.2265 
 837   0.0000       4.617792       125.6565 
 838   0.0000       4.624400       125.8363 
 839   0.0000       4.639062       126.2353 
 840   0.0000       4.645546       126.4117 
 841   0.0000       4.667539       127.0102 
 842   0.0000       4.672952       127.1575 
 843   0.0000       4.678736       127.3149 
 844   0.0000       4.685347       127.4948 
 845   0.0000       4.704279       128.0100 
 846   0.0000       4.709905       128.1630 
 847   0.0000       4.714030       128.2753 
 848   0.0000       4.718144       128.3872 
 849   0.0000       4.731373       128.7472 
 850   0.0000       4.754920       129.3879 
 851   0.0000       4.771119       129.8288 
 852   0.0000       4.782361       130.1347 
 853   0.0000       4.801620       130.6587 
 854   0.0000       4.813901       130.9929 
 855   0.0000       4.815822       131.0452 
 856   0.0000       4.823375       131.2507 
 857   0.0000       4.833577       131.5283 
 858   0.0000       4.840507       131.7169 
 859   0.0000       4.866943       132.4363 
 860   0.0000       4.878776       132.7583 
 861   0.0000       4.890982       133.0904 
 862   0.0000       4.896622       133.2439 
 863   0.0000       4.915010       133.7442 
 864   0.0000       4.919571       133.8683 
 865   0.0000       4.935019       134.2887 
 866   0.0000       4.938981       134.3965 
 867   0.0000       4.963403       135.0611 
 868   0.0000       4.966194       135.1370 
 869   0.0000       4.973441       135.3342 
 870   0.0000       4.988695       135.7493 
 871   0.0000       4.992939       135.8648 
 872   0.0000       5.001216       136.0900 
 873   0.0000       5.015294       136.4731 
 874   0.0000       5.022955       136.6815 
 875   0.0000       5.032189       136.9328 
 876   0.0000       5.044664       137.2723 
 877   0.0000       5.055910       137.5783 
 878   0.0000       5.060727       137.7094 
 879   0.0000       5.075816       138.1200 
 880   0.0000       5.094416       138.6261 
 881   0.0000       5.112745       139.1249 
 882   0.0000       5.123162       139.4083 
 883   0.0000       5.128038       139.5410 
 884   0.0000       5.139236       139.8457 
 885   0.0000       5.158935       140.3818 
 886   0.0000       5.162522       140.4794 
 887   0.0000       5.177426       140.8849 
 888   0.0000       5.194990       141.3629 
 889   0.0000       5.210335       141.7804 
 890   0.0000       5.220369       142.0535 
 891   0.0000       5.225478       142.1925 
 892   0.0000       5.238747       142.5535 
 893   0.0000       5.256800       143.0448 
 894   0.0000       5.261219       143.1650 
 895   0.0000       5.277316       143.6031 
 896   0.0000       5.277948       143.6203 
 897   0.0000       5.290202       143.9537 
 898   0.0000       5.303627       144.3190 
 899   0.0000       5.319258       144.7444 
 900   0.0000       5.335155       145.1769 
 901   0.0000       5.357595       145.7876 
 902   0.0000       5.366877       146.0402 
 903   0.0000       5.376137       146.2921 
 904   0.0000       5.399822       146.9366 
 905   0.0000       5.411551       147.2558 
 906   0.0000       5.423882       147.5913 
 907   0.0000       5.432936       147.8377 
 908   0.0000       5.434874       147.8904 
 909   0.0000       5.446102       148.1960 
 910   0.0000       5.457602       148.5089 
 911   0.0000       5.462114       148.6317 
 912   0.0000       5.474285       148.9629 
 913   0.0000       5.486062       149.2833 
 914   0.0000       5.507803       149.8749 
 915   0.0000       5.523100       150.2912 
 916   0.0000       5.536567       150.6577 
 917   0.0000       5.548663       150.9868 
 918   0.0000       5.568387       151.5235 
 919   0.0000       5.573562       151.6643 
 920   0.0000       5.588833       152.0799 
 921   0.0000       5.591433       152.1506 
 922   0.0000       5.594207       152.2261 
 923   0.0000       5.614379       152.7750 
 924   0.0000       5.617893       152.8706 
 925   0.0000       5.639090       153.4474 
 926   0.0000       5.650124       153.7477 
 927   0.0000       5.656868       153.9312 
 928   0.0000       5.673342       154.3795 
 929   0.0000       5.679055       154.5349 
 930   0.0000       5.702391       155.1700 
 931   0.0000       5.713170       155.4633 
 932   0.0000       5.715357       155.5228 
 933   0.0000       5.726120       155.8156 
 934   0.0000       5.739406       156.1772 
 935   0.0000       5.761184       156.7698 
 936   0.0000       5.761353       156.7744 
 937   0.0000       5.784280       157.3983 
 938   0.0000       5.796027       157.7179 
 939   0.0000       5.811219       158.1313 
 940   0.0000       5.831006       158.6697 
 941   0.0000       5.855858       159.3460 
 942   0.0000       5.866820       159.6443 
 943   0.0000       5.897414       160.4768 
 944   0.0000       5.915220       160.9613 
 945   0.0000       6.000203       163.2738 
 946   0.0000       6.059614       164.8905 
 947   0.0000       6.062663       164.9735 
 948   0.0000       6.098044       165.9362 
 949   0.0000       6.114233       166.3767 
 950   0.0000       6.145965       167.2402 
 951   0.0000       6.154332       167.4679 
 952   0.0000       6.184041       168.2763 
 953   0.0000       6.196639       168.6191 
 954   0.0000       6.209672       168.9738 
 955   0.0000       6.227425       169.4568 
 956   0.0000       6.245304       169.9434 
 957   0.0000       6.248968       170.0431 
 958   0.0000       6.265554       170.4944 
 959   0.0000       6.275005       170.7516 
 960   0.0000       6.294869       171.2921 
 961   0.0000       6.310247       171.7106 
 962   0.0000       6.315740       171.8600 
 963   0.0000       6.336178       172.4162 
 964   0.0000       6.353475       172.8869 
 965   0.0000       6.364235       173.1796 
 966   0.0000       6.381658       173.6537 
 967   0.0000       6.393925       173.9875 
 968   0.0000       6.453132       175.5987 
 969   0.0000       6.511773       177.1944 
 970   0.0000       6.571532       178.8205 
 971   0.0000       6.628984       180.3838 
 972   0.0000       6.822888       185.6602 
 973   0.0000       6.831988       185.9078 
 974   0.0000       6.853561       186.4949 
 975   0.0000       6.886900       187.4021 
 976   0.0000       6.912974       188.1116 
 977   0.0000       6.935162       188.7154 
 978   0.0000       6.948042       189.0658 
 979   0.0000       6.981550       189.9776 
 980   0.0000       7.008869       190.7210 
 981   0.0000       7.013544       190.8482 
 982   0.0000       7.021686       191.0698 
 983   0.0000       7.041197       191.6007 
 984   0.0000       7.063210       192.1997 
 985   0.0000       7.120294       193.7531 
 986   0.0000       7.225744       196.6225 
 987   0.0000       7.311047       198.9437 
 988   0.0000       7.321336       199.2237 
 989   0.0000       7.388882       201.0617 
 990   0.0000       7.501665       204.1307 
 991   0.0000       7.560711       205.7374 
 992   0.0000       7.618232       207.3026 
 993   0.0000       7.690230       209.2618 
 994   0.0000       7.756148       211.0555 
 995   0.0000       7.855778       213.7666 
 996   0.0000       7.914332       215.3599 
 997   0.0000       7.998918       217.6616 
 998   0.0000       8.260744       224.7863 
 999   0.0000       9.404070       255.8978 
 1000   0.0000       9.415397       256.2060 
 1001   0.0000       9.429733       256.5961 
 1002   0.0000       9.443338       256.9663 
 1003   0.0000       9.455579       257.2994 
 1004   0.0000       9.482000       258.0183 
 1005   0.0000       9.669107       263.1098 
 1006   0.0000      10.086393       274.4647 
 1007   0.0000      10.089539       274.5503 
 1008   0.0000      10.103591       274.9327 
 1009   0.0000      10.202712       277.6299 
 1010   0.0000      10.209517       277.8151 
 1011   0.0000      10.237137       278.5667 
 1012   0.0000      10.336825       281.2793 
 1013   0.0000      10.383307       282.5442 
 1014   0.0000      10.463390       284.7233 
 1015   0.0000      11.399471       310.1954 
 1016   0.0000      16.796461       457.0549 
 1017   0.0000      17.567569       478.0379 
 1018   0.0000      18.183693       494.8034 
 1019   0.0000      18.403122       500.7744 
 1020   0.0000      18.571160       505.3470 
 1021   0.0000      18.719134       509.3735 
 1022   0.0000      20.340136       553.4832 
 1023   0.0000      21.095647       574.0417 
 1024   0.0000      21.571995       587.0038 

                 SPIN DOWN ORBITALS
  NO   OCC          E(Eh)            E(eV) 
   0   1.0000    -261.568955     -7117.6531 
   1   1.0000    -104.790638     -2851.4982 
   2   1.0000    -104.786922     -2851.3971 
   3   1.0000    -104.784752     -2851.3381 
   4   1.0000     -32.078274      -872.8942 
   5   1.0000     -27.556186      -749.8420 
   6   1.0000     -27.556127      -749.8403 
   7   1.0000     -27.555996      -749.8368 
   8   1.0000     -20.609925      -560.8246 
   9   1.0000     -11.420113      -310.7571 
  10   1.0000     -11.277225      -306.8689 
  11   1.0000     -11.275655      -306.8262 
  12   1.0000     -11.270874      -306.6961 
  13   1.0000     -11.248659      -306.0916 
  14   1.0000     -11.248580      -306.0894 
  15   1.0000     -11.237400      -305.7852 
  16   1.0000     -11.233638      -305.6828 
  17   1.0000     -10.517249      -286.1889 
  18   1.0000     -10.513498      -286.0868 
  19   1.0000     -10.511287      -286.0266 
  20   1.0000      -7.983160      -217.2328 
  21   1.0000      -7.982452      -217.2136 
  22   1.0000      -7.982411      -217.2124 
  23   1.0000      -7.979394      -217.1304 
  24   1.0000      -7.978689      -217.1112 
  25   1.0000      -7.978602      -217.1088 
  26   1.0000      -7.977270      -217.0726 
  27   1.0000      -7.976406      -217.0490 
  28   1.0000      -7.976320      -217.0467 
  29   1.0000      -4.153108      -113.0118 
  30   1.0000      -2.674690       -72.7820 
  31   1.0000      -2.674649       -72.7809 
  32   1.0000      -2.674160       -72.7676 
  33   1.0000      -1.447762       -39.3956 
  34   1.0000      -1.132507       -30.8171 
  35   1.0000      -1.095463       -29.8091 
  36   1.0000      -1.049231       -28.5510 
  37   1.0000      -1.036740       -28.2111 
  38   1.0000      -1.033168       -28.1139 
  39   1.0000      -1.023173       -27.8419 
  40   1.0000      -1.007283       -27.4096 
  41   1.0000      -0.963502       -26.2182 
  42   1.0000      -0.900247       -24.4970 
  43   1.0000      -0.824449       -22.4344 
  44   1.0000      -0.735289       -20.0082 
  45   1.0000      -0.710244       -19.3267 
  46   1.0000      -0.697175       -18.9711 
  47   1.0000      -0.682611       -18.5748 
  48   1.0000      -0.659236       -17.9387 
  49   1.0000      -0.625396       -17.0179 
  50   1.0000      -0.620678       -16.8895 
  51   1.0000      -0.605217       -16.4688 
  52   1.0000      -0.598581       -16.2882 
  53   1.0000      -0.584675       -15.9098 
  54   1.0000      -0.575520       -15.6607 
  55   1.0000      -0.560532       -15.2528 
  56   1.0000      -0.555372       -15.1125 
  57   1.0000      -0.544642       -14.8205 
  58   1.0000      -0.544402       -14.8139 
  59   1.0000      -0.529622       -14.4118 
  60   1.0000      -0.522060       -14.2060 
  61   1.0000      -0.502330       -13.6691 
  62   1.0000      -0.497493       -13.5375 
  63   1.0000      -0.483161       -13.1475 
  64   1.0000      -0.480289       -13.0693 
  65   1.0000      -0.452402       -12.3105 
  66   1.0000      -0.448778       -12.2119 
  67   1.0000      -0.446000       -12.1363 
  68   1.0000      -0.429977       -11.7003 
  69   1.0000      -0.426778       -11.6132 
  70   1.0000      -0.411564       -11.1992 
  71   1.0000      -0.362383        -9.8609 
  72   0.0000       0.012328         0.3355 
  73   0.0000       0.023015         0.6263 
  74   0.0000       0.023834         0.6486 
  75   0.0000       0.030213         0.8221 
  76   0.0000       0.038832         1.0567 
  77   0.0000       0.040690         1.1072 
  78   0.0000       0.042539         1.1575 
  79   0.0000       0.043560         1.1853 
  80   0.0000       0.044365         1.2072 
  81   0.0000       0.052464         1.4276 
  82   0.0000       0.056881         1.5478 
  83   0.0000       0.061200         1.6653 
  84   0.0000       0.062669         1.7053 
  85   0.0000       0.063300         1.7225 
  86   0.0000       0.064653         1.7593 
  87   0.0000       0.071230         1.9383 
  88   0.0000       0.077158         2.0996 
  89   0.0000       0.082548         2.2462 
  90   0.0000       0.089418         2.4332 
  91   0.0000       0.091365         2.4862 
  92   0.0000       0.093497         2.5442 
  93   0.0000       0.097826         2.6620 
  94   0.0000       0.101235         2.7547 
  95   0.0000       0.102186         2.7806 
  96   0.0000       0.105056         2.8587 
  97   0.0000       0.107880         2.9356 
  98   0.0000       0.108894         2.9631 
  99   0.0000       0.110665         3.0114 
 100   0.0000       0.112962         3.0739 
 101   0.0000       0.115081         3.1315 
 102   0.0000       0.119338         3.2474 
 103   0.0000       0.122287         3.3276 
 104   0.0000       0.124133         3.3778 
 105   0.0000       0.125216         3.4073 
 106   0.0000       0.127136         3.4595 
 107   0.0000       0.129494         3.5237 
 108   0.0000       0.132624         3.6089 
 109   0.0000       0.134250         3.6531 
 110   0.0000       0.136428         3.7124 
 111   0.0000       0.138968         3.7815 
 112   0.0000       0.145278         3.9532 
 113   0.0000       0.146868         3.9965 
 114   0.0000       0.152183         4.1411 
 115   0.0000       0.152484         4.1493 
 116   0.0000       0.156843         4.2679 
 117   0.0000       0.161657         4.3989 
 118   0.0000       0.162449         4.4205 
 119   0.0000       0.168408         4.5826 
 120   0.0000       0.171811         4.6752 
 121   0.0000       0.172622         4.6973 
 122   0.0000       0.174897         4.7592 
 123   0.0000       0.181059         4.9269 
 124   0.0000       0.182498         4.9660 
 125   0.0000       0.185634         5.0513 
 126   0.0000       0.187175         5.0933 
 127   0.0000       0.191520         5.2115 
 128   0.0000       0.197533         5.3752 
 129   0.0000       0.198589         5.4039 
 130   0.0000       0.199660         5.4330 
 131   0.0000       0.202549         5.5116 
 132   0.0000       0.206936         5.6310 
 133   0.0000       0.210075         5.7164 
 134   0.0000       0.215733         5.8704 
 135   0.0000       0.219317         5.9679 
 136   0.0000       0.225173         6.1273 
 137   0.0000       0.228450         6.2164 
 138   0.0000       0.230456         6.2710 
 139   0.0000       0.234144         6.3714 
 140   0.0000       0.235236         6.4011 
 141   0.0000       0.238409         6.4874 
 142   0.0000       0.241888         6.5821 
 143   0.0000       0.246429         6.7057 
 144   0.0000       0.249271         6.7830 
 145   0.0000       0.251661         6.8480 
 146   0.0000       0.254036         6.9127 
 147   0.0000       0.260615         7.0917 
 148   0.0000       0.263454         7.1689 
 149   0.0000       0.268570         7.3082 
 150   0.0000       0.270996         7.3742 
 151   0.0000       0.274322         7.4647 
 152   0.0000       0.280836         7.6419 
 153   0.0000       0.281746         7.6667 
 154   0.0000       0.286477         7.7954 
 155   0.0000       0.291563         7.9338 
 156   0.0000       0.293952         7.9989 
 157   0.0000       0.296868         8.0782 
 158   0.0000       0.298574         8.1246 
 159   0.0000       0.306319         8.3354 
 160   0.0000       0.310287         8.4433 
 161   0.0000       0.315670         8.5898 
 162   0.0000       0.321197         8.7402 
 163   0.0000       0.323267         8.7965 
 164   0.0000       0.328439         8.9373 
 165   0.0000       0.332995         9.0612 
 166   0.0000       0.335888         9.1400 
 167   0.0000       0.340887         9.2760 
 168   0.0000       0.344267         9.3680 
 169   0.0000       0.344519         9.3748 
 170   0.0000       0.349269         9.5041 
 171   0.0000       0.353600         9.6219 
 172   0.0000       0.358035         9.7426 
 173   0.0000       0.361142         9.8272 
 174   0.0000       0.364010         9.9052 
 175   0.0000       0.367449         9.9988 
 176   0.0000       0.371057        10.0970 
 177   0.0000       0.375145        10.2082 
 178   0.0000       0.378578        10.3016 
 179   0.0000       0.380651        10.3580 
 180   0.0000       0.385205        10.4820 
 181   0.0000       0.386984        10.5304 
 182   0.0000       0.390477        10.6254 
 183   0.0000       0.392112        10.6699 
 184   0.0000       0.392450        10.6791 
 185   0.0000       0.395164        10.7530 
 186   0.0000       0.399568        10.8728 
 187   0.0000       0.402824        10.9614 
 188   0.0000       0.403940        10.9918 
 189   0.0000       0.406271        11.0552 
 190   0.0000       0.414633        11.2827 
 191   0.0000       0.418664        11.3924 
 192   0.0000       0.420393        11.4395 
 193   0.0000       0.427705        11.6385 
 194   0.0000       0.429225        11.6798 
 195   0.0000       0.434895        11.8341 
 196   0.0000       0.437107        11.8943 
 197   0.0000       0.441948        12.0260 
 198   0.0000       0.446795        12.1579 
 199   0.0000       0.448950        12.2166 
 200   0.0000       0.453638        12.3441 
 201   0.0000       0.455146        12.3852 
 202   0.0000       0.458108        12.4658 
 203   0.0000       0.463066        12.6007 
 204   0.0000       0.464931        12.6514 
 205   0.0000       0.467652        12.7255 
 206   0.0000       0.476141        12.9565 
 207   0.0000       0.477999        13.0070 
 208   0.0000       0.482596        13.1321 
 209   0.0000       0.484301        13.1785 
 210   0.0000       0.487072        13.2539 
 211   0.0000       0.492662        13.4060 
 212   0.0000       0.496054        13.4983 
 213   0.0000       0.497466        13.5367 
 214   0.0000       0.501745        13.6532 
 215   0.0000       0.503257        13.6943 
 216   0.0000       0.505352        13.7513 
 217   0.0000       0.508700        13.8424 
 218   0.0000       0.515152        14.0180 
 219   0.0000       0.516441        14.0531 
 220   0.0000       0.520368        14.1599 
 221   0.0000       0.521323        14.1859 
 222   0.0000       0.526786        14.3346 
 223   0.0000       0.527430        14.3521 
 224   0.0000       0.529932        14.4202 
 225   0.0000       0.530599        14.4383 
 226   0.0000       0.536213        14.5911 
 227   0.0000       0.538770        14.6607 
 228   0.0000       0.542302        14.7568 
 229   0.0000       0.542926        14.7738 
 230   0.0000       0.547472        14.8975 
 231   0.0000       0.551431        15.0052 
 232   0.0000       0.556828        15.1520 
 233   0.0000       0.560269        15.2457 
 234   0.0000       0.561924        15.2907 
 235   0.0000       0.565948        15.4002 
 236   0.0000       0.570208        15.5162 
 237   0.0000       0.575406        15.6576 
 238   0.0000       0.578921        15.7532 
 239   0.0000       0.583974        15.8908 
 240   0.0000       0.585472        15.9315 
 241   0.0000       0.588157        16.0046 
 242   0.0000       0.591369        16.0920 
 243   0.0000       0.595291        16.1987 
 244   0.0000       0.598414        16.2837 
 245   0.0000       0.601345        16.3634 
 246   0.0000       0.605793        16.4845 
 247   0.0000       0.614183        16.7128 
 248   0.0000       0.615257        16.7420 
 249   0.0000       0.620718        16.8906 
 250   0.0000       0.622300        16.9336 
 251   0.0000       0.627221        17.0676 
 252   0.0000       0.630615        17.1599 
 253   0.0000       0.635109        17.2822 
 254   0.0000       0.639628        17.4052 
 255   0.0000       0.645993        17.5784 
 256   0.0000       0.647224        17.6119 
 257   0.0000       0.650120        17.6907 
 258   0.0000       0.654527        17.8106 
 259   0.0000       0.657424        17.8894 
 260   0.0000       0.662603        18.0304 
 261   0.0000       0.666880        18.1467 
 262   0.0000       0.670359        18.2414 
 263   0.0000       0.673419        18.3247 
 264   0.0000       0.675429        18.3794 
 265   0.0000       0.681664        18.5490 
 266   0.0000       0.688863        18.7449 
 267   0.0000       0.692590        18.8463 
 268   0.0000       0.697360        18.9761 
 269   0.0000       0.698527        19.0079 
 270   0.0000       0.703391        19.1402 
 271   0.0000       0.711228        19.3535 
 272   0.0000       0.714403        19.4399 
 273   0.0000       0.719396        19.5758 
 274   0.0000       0.722827        19.6691 
 275   0.0000       0.727185        19.7877 
 276   0.0000       0.732325        19.9276 
 277   0.0000       0.734606        19.9897 
 278   0.0000       0.739729        20.1290 
 279   0.0000       0.742819        20.2131 
 280   0.0000       0.748260        20.3612 
 281   0.0000       0.750678        20.4270 
 282   0.0000       0.760929        20.7059 
 283   0.0000       0.764282        20.7972 
[...]
  | sigma^2 in % of trace(Dij) retained ...   9.15e+00
  | sigma^2 in % of trace(Dip) retained ...   1.56e+01
  | sigma^2 in % of trace(Dpq) retained ...   1.36e-01
  | Av. % of trace(Di) retained         ...  99.998554688155
  | Av. % of trace(Dp) retained         ...  99.999999298198
  | sigma^2 in % of trace(Di) retained  ...   6.64e-07
  | sigma^2 in % of trace(Dp) retained  ...   2.79e-13
 Distributions of % trace(Dij) recovered:
  |       >= 99.9  ...   105 ( 22.1 % of all IJ-pairs)
  |   [80.0, 90.0) ...    24 (  5.0 % of all IJ-pairs)
  |   [90.0, 99.0) ...   258 ( 54.2 % of all IJ-pairs)
  |   [99.0, 99.9) ...    89 ( 18.7 % of all IJ-pairs)
 Distributions of % trace(Dip) recovered:
  |   [80.0, 90.0) ...    13 ( 11.5 % of all IP-pairs)
  |   [90.0, 99.0) ...    55 ( 48.7 % of all IP-pairs)
  |   [99.0, 99.9) ...    45 ( 39.8 % of all IP-pairs)
 Distributions of % trace(Dpq) recovered:
  |       >= 99.9  ...     5 ( 33.3 % of all PQ-pairs)
  |   [99.0, 99.9) ...    10 ( 66.7 % of all PQ-pairs)
 Distributions of % trace(Di) recovered :
  |       >= 99.9  ...    43 (100.0 % of all I-pairs )
 Distributions of % trace(Dp) recovered :
  |       >= 99.9  ...     5 (100.0 % of all P-pairs )

                       ===========================
                       1047 OF 1669 PAIRS ARE KEPT
                       ===========================

 Initial PAO correlation energy (all pairs)    ...  -2.6854022846 Eh
 Energy constituents in PAO basis (Eh):
  | Vijab(+0) ...  -2.2580841858
  | Viab (-1) ...  -0.1741729270
  | Vab  (-2) ...  -0.0573368733
  | Va   (-1) ...  -0.0000448518
  | Vija (+1) ...  -0.0715301692
  | Vij  (+2) ...  -0.0155337627
  | Via  (+0) ...  -0.1085361238
  | Vi   (+1) ...  -0.0001633910
 Initial PNO correlation energy                ...  -2.6506276632 Eh
 Energy constituents in PNO basis (Eh):
  | Vijab(+0) ...  -2.2389100784 (err=  0.0191741075)
  | Viab (-1) ...  -0.1601820382 (err=  0.0139908888)
  | Vab  (-2) ...  -0.0568820647 (err=  0.0004548085)
  | Va   (-1) ...  -0.0000260008 (err=  0.0000188510)
  | Vija (+1) ...  -0.0705675028 (err=  0.0009626664)
  | Vij  (+2) ...  -0.0154767230 (err=  0.0000570397)
  | Via  (+0) ...  -0.1084204094 (err=  0.0001157144)
  | Vi   (+1) ...  -0.0001628459 (err=  0.0000005452)
 Sum of total truncation errors ...   0.0347746214 Eh
  | Pair screening ...   0.0124497523 Eh
  | PNO truncation ...   0.0223248692 Eh

 UMP2 correlation energy (PAO) ...  -2.6803536164
  | alpha-alpha ...  -0.3845431608 (NP_aa=  896)
  | alpha-beta  ...  -1.9908262214 (NP_ab= 1644)
  | beta -beta  ...  -0.3049842342 (NP_bb=  715)
 UMP2 correlation energy (PNO) ...  -2.6452094878
  | alpha-alpha ...  -0.3724003138 (err=  0.0121428470, NP_aa=  556)
  | alpha-beta  ...  -1.9720572441 (err=  0.0187689773, NP_ab= 1022)
  | beta -beta  ...  -0.3007519299 (err=  0.0042323043, NP_bb=  433)
 Sum of total UMP2 truncation errors ...   0.0351441286 Eh
  | Pair screening ...   0.0124577898 Eh
  | PNO truncation ...   0.0226863389 Eh
 Timing for NEV-PNO construction (sec.)
  | Intermediate construction  ..           42.455
  | Amplitude construction     ..           62.202
  | Total time                 ..          104.657
 Making pair pair interaction lists ...      ok
 Total size for 2-ext PNO integrals ...     10.7 MB
Checking the number of SOMO/SOMO doubles PNOs ... 
 #Truncate: (72, 72)[175] -> [86] .. 
 #Truncate: (73, 73)[177] -> [86] .. 
 #Truncate: (74, 74)[174] -> [86] .. 
 #Truncate: (75, 75)[176] -> [86] .. 
 #Truncate: (76, 76)[176] -> [86] .. 

--------------------------------
LOCAL RI TRANSFORMATION (VABPAO)
--------------------------------

Number of PAOs:    1030
Basis functions:   1025 (343 shells)
Aux. functions:    2424 (644 shells)

Processing maps (0.0 sec)
Average map sizes:
   Aux shells -> PAOs           1030.0
   PAOs       -> AO shells       343.0

Calculating integrals (190.1 sec, 37370.165 MB)
Finished
-----------------------------
LOCAL RI TRANSFORMATION (IJV)
-----------------------------

Orbital window:      29 to 76
Basis functions:   1025 (343 shells)
Aux. functions:    2424 (644 shells)

Processing maps (0.0 sec)
Average map sizes:
   Aux shells -> MOs(i)           46.3
   Aux shells -> MOs(j)           48.0
   MOs        -> AO shells       339.4

Calculating integrals (23.2 sec, 41.250 MB)
Sorting integrals (0.3 sec, 41.222 MB)
Total time for the integral transformation: 23.6 sec


-------------------------------------
Pair Pair Term precalculation with     
RI-(ij|mn) and (im|jn) transformation  
ON THE FLY                             
-------------------------------------

   IBatch   1 (of   2)              ... done ( 1202.117 sec)
   IBatch   2 (of   2)              ... done (  855.472 sec)
Total EXT                           ...        2057.589 sec

---------------------
RI-PNO TRANSFORMATION
---------------------

Total Number of PNOs                   ... 32986
Total Number of IJ-PNOs                ... 28893
Total Number of IP-PNOs                ...  3135
Total Number of PQ-PNOs                ...   958
Total Number of IJ-pairs               ...   909
Total Number of PI-pairs               ...   113
Total Number of PQ-pairs               ...    25
Average number of PNOs per pair        ...    31
Maximal number of PNOs per pair        ...    86
>> Statistics for ij-pairs..
   #pairs with  1 -  5 PNOs   :    0
   #pairs with  6 - 10 PNOs   :    0
   #pairs with 11 - 15 PNOs   :   76
   #pairs with 16 - 20 PNOs   :  188
   #pairs with 21 - 25 PNOs   :  150
   #pairs with 26 - 30 PNOs   :  146
   #pairs with 31 - 35 PNOs   :   60
   #pairs with 36 - 40 PNOs   :   50
   #pairs with 41 - 45 PNOs   :   50
   #pairs with 46 - 50 PNOs   :   22
   #pairs with 51 - 55 PNOs   :   31
   #pairs with 56 - 60 PNOs   :   58
   #pairs with 61 - 65 PNOs   :   73
   #pairs with 66 - 70 PNOs   :    2
   #pairs with 71 - 75 PNOs   :    1
   #pairs with 81 - 85 PNOs   :    2
>> Statistics for ip-pairs..
   #pairs with  1 -  5 PNOs   :    0
   #pairs with  6 - 10 PNOs   :    1
   #pairs with 11 - 15 PNOs   :   12
   #pairs with 16 - 20 PNOs   :    9
   #pairs with 21 - 25 PNOs   :   23
   #pairs with 26 - 30 PNOs   :   10
   #pairs with 31 - 35 PNOs   :   44
   #pairs with 36 - 40 PNOs   :   12
   #pairs with 41 - 45 PNOs   :    2
   #pairs with 46 - 50 PNOs   :    0
>> Statistics for pq-pairs..
   #pairs with  1 -  5 PNOs   :    0
   #pairs with  6 - 10 PNOs   :    0
   #pairs with 11 - 15 PNOs   :    0
   #pairs with 16 - 20 PNOs   :    0
   #pairs with 21 - 25 PNOs   :   10
   #pairs with 26 - 30 PNOs   :   10
   #pairs with 31 - 35 PNOs   :    0
   #pairs with 36 - 40 PNOs   :    0
   #pairs with 41 - 45 PNOs   :    0
   #pairs with 46 - 50 PNOs   :    0
   #pairs with 86 - 90 PNOs   :    5

Generation of (ij|ab)[P] integrals            ... on
Generation of (ia|bc)[P],(ja|bc)[P] integrals ... on
Storage of 3 and 4 external integrals         ... on
Generation of ALL (ka|bc)[P] integrals        ... on
Keep RI integrals in memory                   ... off

Ibatch:  1 (of  1)
Starting 2-4 index PNO integral generation ... done

Timings:
Total PNO integral transformation time     ...       2037.958 sec
Size of the 3-external file                ...       281 MB
Size of the 4-external file                ...      1924 MB
Size of the IKJL file                      ...        16 MB
Size of the all 3-external file            ...      6765 MB
Size of the 1-external file                ...        21 MB

Size of the PAO/PNO coefficient matrices   ...     208.8 MB

Making pair/pair overlap matrices          ... done (  306.336 sec)
Size of the pair overlap file              ...    2290.0 MB
Total # unrestricted pairs ...       2011
  # of alpha-alpha pairs   ...        556
  # of alpha-beta pairs    ...       1022
  # of beta-beta pairs     ...        433
Constructing the guess amplitudes          ... done (    0.693 sec)

-------------------------
FINAL STARTUP INFORMATION
-------------------------

E(0)                                       ...  -3028.458499788
E(SL-UMP2 in NEV-PNO space)                ...     -2.681318137
Initial E(tot)                             ...  -3031.139817924
<T|T>                                      ...      0.533451458
Number of unrestricted pairs included      ... 2011
Total number of pairs                      ... 4095
----------------------------------------------------------
                     OPEN-SHELL COUPLED CLUSTER ITERATIONS
----------------------------------------------------------

Number of PNO amplitudes to be optimized        ...          2045508
Number of canonical amplitudes for strong pairs ...       1816340172
Untruncated number of canonical amplitudes      ...       3698645738

Iter       E(tot)           E(Corr)          Delta-E          Residual     Time
  0  -3031.147026563     -2.652418127      0.028900010      0.020765073 1683.04
                           *** Turning on DIIS ***
  1  -3031.262272515     -2.767664078     -0.115245952      0.010122002 1674.23
  2  -3031.327145196     -2.832536759     -0.064872681      0.008293731 1689.57
  3  -3031.349006377     -2.854397941     -0.021861181      0.003228782 1680.59
  4  -3031.356594335     -2.861985899     -0.007587958      0.002637047 1686.57
  5  -3031.360744270     -2.866135834     -0.004149935      0.001519113 1671.02
  6  -3031.362269309     -2.867660872     -0.001525039      0.000772432 1667.79
  7  -3031.362926235     -2.868317798     -0.000656926      0.000487290 1670.22
  8  -3031.363068822     -2.868460385     -0.000142587      0.000235424 1673.12
  9  -3031.363128328     -2.868519891     -0.000059506      0.000142820 1680.97
 10  -3031.363129185     -2.868520748     -0.000000857      0.000084580 1664.32
 11  -3031.363142686     -2.868534250     -0.000013502      0.000063402 1665.30
 12  -3031.363146820     -2.868538383     -0.000004133      0.000028056 1670.94
 13  -3031.363148977     -2.868540540     -0.000002157      0.000018893 1677.07
 14  -3031.363150583     -2.868542147     -0.000001606      0.000009059 1544.61
               --- The CCSD iterations have converged ---

E(0)                                       ...  -3028.458499788
E(CORR)(strong-pairs)                      ...     -2.868542147
E(CORR)(weak-pairs)                        ...     -0.036108649
E(CORR)(corrected)                         ...     -2.904650796
E(TOT)                                     ...  -3031.363150583
Singles norm <S|S>**1/2                    ...      0.194680101 ( 0.064612410, 0.130067691)  
T1 diagnostic                              ...      0.020408020                              
<S**2>(linearized)                         ...      8.7508346 (ideal value:      8.7500000)

----------------------
LARGEST PNO AMPLITUDES
----------------------
  46a-> 78a  46b-> 78b       0.055656
  49b-> 72b  -1b-> -1b       0.054347
  51b-> 76b  -1b-> -1b       0.054103
  52b-> 76b  -1b-> -1b       0.053521
  49b-> 75b  -1b-> -1b       0.047363
  49b-> 74b  -1b-> -1b       0.046230
  44a-> 77a  44b-> 77b       0.044941
  62a-> 77a  62b-> 77b       0.044314
  55a-> 77a  55b-> 77b       0.044049
  70a-> 77a  70b-> 77b       0.043775
  38b-> 73b  -1b-> -1b       0.043478
  56a-> 78a  56b-> 78b       0.043200
  64a-> 77a  64b-> 77b       0.043149
  69a-> 77a  69b-> 77b       0.042656
  35b-> 72b  -1b-> -1b       0.042519
  58a-> 77a  58b-> 77b       0.042245

Total # unrestricted pairs ...       1244
  # of alpha-alpha pairs   ...        340
  # of alpha-beta pairs    ...        622
  # of beta-beta pairs     ...        282

-------------------------------------------
DLPNO BASED TRIPLES CORRECTION
-------------------------------------------

Singles multiplier          ...  1.000000
Fragment selection                          .... not used
TCutTNO                     ... 1.000e-09
TCutMP2Pairs                ... 1.000e-05
TCutDOStrong                ... 2.000e-02
TCutMKNStrong               ... 1.000e-02
TCutDOWeak                  ... 4.000e-02
TCutMKNWeak                 ... 1.000e-01
NTCutTNO                    ... 1

Number of Triples that are to be computed         ...     30954

 . . . . . . . . .
10% done  
20% done  
30% done  
40% done  
50% done  
60% done  
70% done  
80% done  
90% done  
          Batch   1   done (  12095.904 sec)

Triples-Correction TCutTNO=   1.000e-09 (NWeakPairs = 0  1  2  3)  -0.116477920433   -0.001901784058    0.000000000000    0.000000000000
Triples-Correction  -0.118379704490

Triples timings:
Total time                      ... 12611.471 sec

Triples List generation         ...     0.000 sec
TNO generation                  ...   515.339 sec
Pair density generation         ...     0.082 sec
Look up tables                  ...     0.103 sec
Generating 3-index integrals    ...  7130.715 sec
Make 4-ind.int. from 3-ind.int  ...     2.900 sec
Projecting amplitudes (D + S)   ...  4730.590 sec
Sorting integrals for spin cases...    48.207 sec
Calculate W0/W1                 ...   147.784 sec
Energy contr. (sum over a,b,c)  ...    35.576 sec

Everything after 3-index        ...  5070.361 sec

Energy contribution AAA         ...    23.075 sec
Energy contribution AAB         ...   102.814 sec
Energy contribution ABB         ...    93.271 sec
Energy contribution BBB         ...    12.448 sec
prep                ...     2.837 sec
makeTTNO            ...  4681.587 sec
copyij              ...     0.117 sec
copyil              ...     3.669 sec
transposeij         ...     0.072 sec
newMatInDoubleProj  ...    48.293 sec
BlasInDoubleProj    ...  2527.212 sec
ProjSingles         ...    40.044 sec
ProjDoubles         ...  4690.546 sec
overall Doubles for projection      ... 2735006
used Doubles for projection         ... 2735006


Number of Triples   (0, 1, 2, 3 weak pairs; overall):  14411   11173       0       0  ( 25584)
Number of Atoms     (0, 1, 2, 3 weak pairs; overall):   18.8    13.9     0.0     0.0  (    29)
Number of PAOs      (0, 1, 2, 3 weak pairs; overall):  740.0   559.4     0.0     0.0  (  1025)
Number of AuxFcns   (0, 1, 2, 3 weak pairs; overall):  817.0   569.6     0.0     0.0  (  2424)
Number of TNOs (0, 1, 2, 3 weak pairs         ):   79.2    56.6     0.0     0.0
Aver. Number of NTNO, Atoms, PAOs, AuxFcns / Triples:  25584    69.3    16.7   661.1   708.9

Triples Correction (T)                     ...     -0.118379704
    alpha-alpha-alpha ... -0.003791817 (  3.2%)
    alpha-alpha-beta  ... -0.055611191 ( 47.0%)
    alpha-beta -beta  ... -0.054932127 ( 46.4%)
    beta -beta -beta  ... -0.004044569 (  3.4%)
Final correlation energy                   ...     -3.023030500
E(CCSD)                                    ...  -3031.363150583
E(CCSD(T))                                 ...  -3031.481530288

----------------------------
STATISTICS FOR PAIR-ENERGIES
----------------------------
Minimum, maximum and average ratios of UMP and CCSD pair-energies ... 0.45, 1.45, 1.02


------------------------------------------------------------------------------- 
                                     TIMINGS                                   
------------------------------------------------------------------------------- 


Total execution time                   ...    45426.276 sec

Localization of occupied MO's          ...       10.185 sec (  0.0%)
Fock Matrix Formation                  ...     1394.608 sec (  3.1%)
Differential overlap integrals         ...        1.506 sec (  0.0%)
Organizing maps                        ...        1.656 sec (  0.0%)
RI 3-index integral generations        ...      278.495 sec (  0.6%)
RI-PNO integral transformation         ...     4464.238 sec (  9.8%)
Initial Guess                          ...     1817.912 sec (  4.0%)
DIIS Solver                            ...       15.553 sec (  0.0%)
State Vector Update                    ...        0.771 sec (  0.0%)
Sigma-vector construction              ...    24999.355 sec ( 55.0%)
  <0|H|D>                              ...        0.030 sec (  0.0% of sigma)
  <D|H|D>(0-ext)                       ...     4581.657 sec ( 18.3% of sigma)
  <D|H|D>(2-ext Fock)                  ...        1.321 sec (  0.0% of sigma)
  <D|H|D>(2-ext)                       ...     3502.540 sec ( 14.0% of sigma)
  <D|H|D>(4-ext)                       ...      152.128 sec (  0.6% of sigma)
  <D|H|D>(4-ext-corr)                  ...      946.738 sec (  3.8% of sigma)
  CCSD doubles correction              ...      439.151 sec (  1.8% of sigma)
  <S|H|S>                              ...      635.097 sec (  2.5% of sigma)
  <S|H|D>(1-ext)                       ...      246.610 sec (  1.0% of sigma)
  <D|H|S>(1-ext)                       ...        0.525 sec (  0.0% of sigma)
  <S|H|D>(3-ext)                       ...       19.961 sec (  0.1% of sigma)
  CCSD singles correction              ...        0.004 sec (  0.0% of sigma)
  Fock-dressing                        ...     7148.482 sec ( 28.6% of sigma)
  Singles amplitudes                   ...      105.435 sec (  0.4% of sigma)
  (ik|jl)-dressing                     ...     5654.885 sec ( 22.6% of sigma)
  (ij|ab),(ia|jb)-dressing             ...     1230.600 sec (  4.9% of sigma)
  Pair energies                        ...        0.158 sec (  0.0% of sigma)
Total Time for computing (T)           ...    12773.612 sec ( 28.1% of ALL)


-------------------------   --------------------
FINAL SINGLE POINT ENERGY     -3031.481530287628
-------------------------   --------------------


                            ***************************************
                            *     ORCA property calculations      *
                            ***************************************

                                    ---------------------
                                    Active property flags
                                    ---------------------
   (+) Dipole Moment


------------------------------------------------------------------------------
                       ORCA ELECTRIC PROPERTIES CALCULATION
------------------------------------------------------------------------------

Dipole Moment Calculation                       ... on
Quadrupole Moment Calculation                   ... off
Polarizability Calculation                      ... off
GBWName                                         ... simple-grid-250-290-b3lyp_d3bj-631gd-gas-singlepoint-DLPNO_CCSD_T1-NormalPNO-augtz-gas.gbw
Electron density file                           ... simple-grid-250-290-b3lyp_d3bj-631gd-gas-singlepoint-DLPNO_CCSD_T1-NormalPNO-augtz-gas.scfp.tmp
The origin for moment calculation is the CENTER OF MASS  = (-0.315578, -0.043290  0.012525)

-------------
DIPOLE MOMENT
-------------
                                X             Y             Z
Electronic contribution:    -43.48857      -5.12879       1.26083
Nuclear contribution   :     47.02107       6.45023      -1.86616
                        -----------------------------------------
Total Dipole Moment    :      3.53250       1.32144      -0.60533
                        -----------------------------------------
Magnitude (a.u.)       :      3.81984
Magnitude (Debye)      :      9.70926



--------------------
Rotational spectrum 
--------------------
 
Rotational constants in cm-1:     0.018977     0.010713     0.010079 
Rotational constants in MHz :   568.929775   321.170665   302.173736 

 Dipole components along the rotational axes: 
x,y,z [a.u.] :     3.526986    -1.314291    -0.651291 
x,y,z [Debye]:     8.964887    -3.340662    -1.655451 

 

Timings for individual modules:

Sum of individual times         ...    61576.787 sec (=1026.280 min)
GTO integral calculation        ...       11.736 sec (=   0.196 min)   0.0 %
SCF iterations                  ...    16121.123 sec (= 268.685 min)  26.2 %
MDCI module                     ...    45443.928 sec (= 757.399 min)  73.8 %
                             ****ORCA TERMINATED NORMALLY****
TOTAL RUN TIME: 0 days 17 hours 6 minutes 19 seconds 238 msec
