
                                 *****************
                                 * O   R   C   A *
                                 *****************

           --- An Ab Initio, DFT and Semiempirical electronic structure package ---

                  #######################################################
                  #                        -***-                        #
                  #          Department of theory and spectroscopy      #
                  #               Directorship: Frank Neese             #
                  #        Max Planck Institute fuer Kohlenforschung    #
                  #                Kaiser Wilhelm Platz 1               #
                  #                 D-45470 Muelheim/Ruhr               #
                  #                      Germany                        #
                  #                                                     #
                  #                  All rights reserved                #
                  #                        -***-                        #
                  #######################################################


                         Program Version 4.1.2  - RELEASE  -


 With contributions from (in alphabetic order):
   Daniel Aravena         : Magnetic Properties
   Michael Atanasov       : Ab Initio Ligand Field Theory
   Alexander A. Auer      : GIAO ZORA
   Ute Becker             : Parallelization
   Giovanni Bistoni       : ED, Open-shell LED
   Martin Brehm           : Molecular dynamics
   Dmytro Bykov           : SCF Hessian
   Vijay G. Chilkuri      : MRCI spin determinant printing
   Dipayan Datta          : RHF DLPNO-CCSD density
   Achintya Kumar Dutta   : EOM-CC, STEOM-CC
   Dmitry Ganyushin       : Spin-Orbit,Spin-Spin,Magnetic field MRCI
   Miquel Garcia          : C-PCM Hessian
   Yang Guo               : DLPNO-NEVPT2, CIM, IAO-localization
   Andreas Hansen         : Spin unrestricted coupled pair/coupled cluster methods
   Benjamin Helmich-Paris : CASSCF linear response (MC-RPA)
   Lee Huntington         : MR-EOM, pCC
   Robert Izsak           : Overlap fitted RIJCOSX, COSX-SCS-MP3, EOM
   Christian Kollmar      : KDIIS, OOCD, Brueckner-CCSD(T), CCSD density
   Simone Kossmann        : Meta GGA functionals, TD-DFT gradient, OOMP2, MP2 Hessian
   Martin Krupicka        : AUTO-CI
   Lucas Lang             : DCDCAS
   Dagmar Lenk            : GEPOL surface, SMD
   Dimitrios Liakos       : Extrapolation schemes; parallel MDCI
   Dimitrios Manganas     : ROCIS; embedding schemes
   Dimitrios Pantazis     : SARC Basis sets
   Taras Petrenko         : DFT Hessian,TD-DFT gradient, ASA, ECA, R-Raman, ABS, FL, XAS/XES, NRVS
   Peter Pinski           : DLPNO-MP2, DLPNO-MP2 Gradient
   Christoph Reimann      : Effective Core Potentials
   Marius Retegan         : Local ZFS, SOC
   Christoph Riplinger    : Optimizer, TS searches, QM/MM, DLPNO-CCSD(T), (RO)-DLPNO pert. Triples
   Tobias Risthaus        : Range-separated hybrids, TD-DFT gradient, RPA, STAB
   Michael Roemelt        : Restricted open shell CIS
   Masaaki Saitow         : Open-shell DLPNO
   Barbara Sandhoefer     : DKH picture change effects
   Avijit Sen             : IP-ROCIS
   Kantharuban Sivalingam : CASSCF convergence, NEVPT2, FIC-MRCI
   Bernardo de Souza      : ESD, SOC TD-DFT
   Georgi Stoychev        : AutoAux, RI-MP2 NMR
   Willem Van den Heuvel  : Paramagnetic NMR
   Boris Wezisla          : Elementary symmetry handling
   Frank Wennmohs         : Technical directorship


 We gratefully acknowledge several colleagues who have allowed us to
 interface, adapt or use parts of their codes:
   Stefan Grimme, W. Hujo, H. Kruse,             : VdW corrections, initial TS optimization,
                  C. Bannwarth                     DFT functionals, gCP, sTDA/sTD-DF
   Ed Valeev                                     : LibInt (2-el integral package), F12 methods
   Garnet Chan, S. Sharma, J. Yang, R. Olivares  : DMRG
   Ulf Ekstrom                                   : XCFun DFT Library
   Mihaly Kallay                                 : mrcc  (arbitrary order and MRCC methods)
   Andreas Klamt, Michael Diedenhofen            : otool_cosmo (COSMO solvation model)
   Jiri Pittner, Ondrej Demel                    : Mk-CCSD
   Frank Weinhold                                : gennbo (NPA and NBO analysis)
   Christopher J. Cramer and Donald G. Truhlar   : smd solvation model
   Lars Goerigk                                  : TD-DFT with DH, B97 family of functionals
   V. Asgeirsson, H. Jonsson                     : NEB implementation
   FAccTs GmbH                                   : IRC, NEB, NEB-TS, Multilevel


 Your calculation uses the libint2 library for the computation of 2-el integrals
 For citations please refer to: http://libint.valeyev.net

 This ORCA versions uses:
   CBLAS   interface :  Fast vector & matrix operations
   LAPACKE interface :  Fast linear algebra routines
   SCALAPACK package :  Parallel linear algebra routines


----- Orbital basis set information -----
Your calculation utilizes the basis: aug-cc-pVTZ 
    H, B-Ne : Obtained from the ccRepo (grant-hill.group.shef.ac.uk/ccrepo) Feb. 2017
              R. A. Kendall, T. H. Dunning, Jr., R. J. Harrison, J. Chem. Phys. 96, 6796 (1992)
         He : Obtained from the ccRepo (grant-hill.group.shef.ac.uk/ccrepo) Feb. 2017
              D. E. Woon, T. H. Dunning, Jr., J. Chem. Phys. 100, 2975 (1994)
  Li-Be, Na : Obtained from the ccRepo (grant-hill.group.shef.ac.uk/ccrepo) Feb. 2017
              B. P. Prascher, D. E. Woon, K. A. Peterson, T. H. Dunning, Jr., A. K. Wilson, Theor. Chem. Acc. 128, 69 (2011)
         Mg : Obtained from the Peterson Research Group Website (tyr0.chem.wsu.edu/~kipeters) Feb. 2017
              B. P. Prascher, D. E. Woon, K. A. Peterson, T. H. Dunning, Jr., A. K. Wilson, Theor. Chem. Acc. 128, 69 (2011)
      Al-Ar : Obtained from the ccRepo (grant-hill.group.shef.ac.uk/ccrepo) Feb. 2017
              D. E. Woon, T. H. Dunning, Jr., J. Chem. Phys. 98, 1358 (1993)
      Sc-Zn : Obtained from the ccRepo (grant-hill.group.shef.ac.uk/ccrepo) Feb. 2017
              N. B. Balabanov, K. A. Peterson, J. Chem. Phys. 123, 064107 (2005)
              N. B. Balabanov, K. A. Peterson, J. Chem. Phys. 125, 074110 (2006)
      Ga-Kr : Obtained from the ccRepo (grant-hill.group.shef.ac.uk/ccrepo) Feb. 2017
              A. K. Wilson, D. E. Woon, K. A. Peterson, T. H. Dunning, Jr., J. Chem. Phys. 110, 7667 (1999)
     Ag, Au : Obtained from the Peterson Research Group Website (tyr0.chem.wsu.edu/~kipeters) Feb. 2017
              K. A. Peterson, C. Puzzarini, Theor. Chem. Acc. 114, 283 (2005)

----- AuxJ basis set information -----
Your calculation utilizes the AutoAux generation procedure.
  G. L. Stoychev, A. A. Auer, F. Neese, J. Chem. Theory Comput. 13, 554 (2017)

----- AuxC basis set information -----
Your calculation utilizes the auxiliary basis: aug-cc-pVTZ/C 
  H-He, B-F, Al-Ar, Ga-Kr : Obtained from the EMSL Basis Set Exchange (bse.pnl.gov) Feb. 2017
                            F. Weigend, A. Kohn, C. Hattig, J. Chem. Phys. 116, 3175 (2002)
                   Be, Mg : Obtained from the TURBOMOLE 7.0 basis set library
                            C. Haettig, Phys. Chem. Chem. Phys. 7, 59 (2005)
                       Ne : Obtained from the EMSL Basis Set Exchange (bse.pnl.gov) Feb. 2017
                            C. Haettig, Phys. Chem. Chem. Phys. 7, 59 (2005)
                            F. Weigend, A. Kohn, C. Hattig, J. Chem. Phys. 116, 3175 (2002)
                    Sc-Zn : Obtained from the EMSL Basis Set Exchange (bse.pnl.gov) Feb. 2017
                            J. G. Hill, J. A. Platts, J. Chem. Phys. 128, 044104 (2008)

----- AuxJK basis set information -----
Your calculation utilizes the AutoAux generation procedure.
  G. L. Stoychev, A. A. Auer, F. Neese, J. Chem. Theory Comput. 13, 554 (2017)

================================================================================
                                        WARNINGS
                       Please study these warnings very carefully!
================================================================================


WARNING: your system is open-shell and RHF/RKS was chosen
  ===> : WILL SWITCH to UHF/UKS


WARNING: MDCI localization with Augmented Hessian Foster-Boys
  ===> : Switching off randomization!

WARNING: Post HF methods need fully converged wavefunctions
  ===> : Setting SCFConvForced true
         You can overwrite this default with %scf ConvForced false 


INFO   : the flag for use of LIBINT has been found!

================================================================================
                                       INPUT FILE
================================================================================
NAME = simple-grid-260-280-b3lyp_d3bj-631gd-gas-singlepoint-DLPNO_CCSD_T1-NormalPNO-augtz-gas.inp
|  1> ! aug-cc-pVTZ aug-cc-pVTZ/C DLPNO-CCSD(T1) TightSCF NormalPNO UNO MiniPrint AutoAux
|  2> %pal nproc 10 end
|  3> %maxcore 20000
|  4> %mdci
|  5>      density none
|  6> end
|  7> 
|  8> * xyz 0 6
|  9>  O      0.22482200      0.33535800     -0.85378200
| 10>  C      1.02728900      1.28561500     -0.66745400
| 11>  C      3.03116300      0.13078900      0.52034700
| 12>  C      2.61254500     -0.95490200     -0.16529600
| 13>  C      3.07689600     -1.22959500     -1.56845200
| 14> Fe     -1.47053000     -0.15160000      0.01197200
| 15> Cl     -2.06853400     -2.00073200     -0.96683100
| 16>  C      1.68998100     -1.99630000      0.39315100
| 17> Cl     -2.68749200      1.60956900     -0.44556300
| 18> Cl     -1.10464800     -0.35898900      2.16858900
| 19>  H      3.75593200      0.78030200      0.02961300
| 20>  H      2.21799800     -2.95680200      0.46421300
| 21>  H      1.29450600     -1.75196000      1.37836600
| 22>  H      0.84500600     -2.16262400     -0.28690900
| 23>  H      3.57575800     -2.20648600     -1.61023100
| 24>  H      2.22248700     -1.29128800     -2.25567800
| 25>  H      3.78060800     -0.47704100     -1.93460500
| 26>  C      2.83334800      0.38095900      1.99298600
| 27>  H      3.63094400     -0.11137300      2.56571800
| 28>  H      2.89014400      1.44729900      2.23073300
| 29>  H      1.87960300      0.00171400      2.36809200
| 30>  C      0.84658200      2.22380700      0.48579500
| 31>  H      1.73289800      2.83328000      0.66483300
| 32>  H      0.01723800      2.88865600      0.20092400
| 33>  H      0.54493800      1.70220200      1.39396100
| 34>  C      1.83091500      1.75988900     -1.84241500
| 35>  H      1.21416400      2.52654200     -2.33432700
| 36>  H      2.76956900      2.22855100     -1.54418900
| 37>  H      2.00255000      0.95877100     -2.55881700
| 38> *
| 39> 
| 40> 
| 41>                          ****END OF INPUT****
================================================================================

                       ****************************
                       * Single Point Calculation *
                       ****************************

---------------------------------
CARTESIAN COORDINATES (ANGSTROEM)
---------------------------------
  O      0.224822    0.335358   -0.853782
  C      1.027289    1.285615   -0.667454
  C      3.031163    0.130789    0.520347
  C      2.612545   -0.954902   -0.165296
  C      3.076896   -1.229595   -1.568452
  Fe    -1.470530   -0.151600    0.011972
  Cl    -2.068534   -2.000732   -0.966831
  C      1.689981   -1.996300    0.393151
  Cl    -2.687492    1.609569   -0.445563
  Cl    -1.104648   -0.358989    2.168589
  H      3.755932    0.780302    0.029613
  H      2.217998   -2.956802    0.464213
  H      1.294506   -1.751960    1.378366
  H      0.845006   -2.162624   -0.286909
  H      3.575758   -2.206486   -1.610231
  H      2.222487   -1.291288   -2.255678
  H      3.780608   -0.477041   -1.934605
  C      2.833348    0.380959    1.992986
  H      3.630944   -0.111373    2.565718
  H      2.890144    1.447299    2.230733
  H      1.879603    0.001714    2.368092
  C      0.846582    2.223807    0.485795
  H      1.732898    2.833280    0.664833
  H      0.017238    2.888656    0.200924
  H      0.544938    1.702202    1.393961
  C      1.830915    1.759889   -1.842415
  H      1.214164    2.526542   -2.334327
  H      2.769569    2.228551   -1.544189
  H      2.002550    0.958771   -2.558817

----------------------------
CARTESIAN COORDINATES (A.U.)
----------------------------
  NO LB      ZA    FRAG     MASS         X           Y           Z
   0 O     8.0000    0    15.999    0.424852    0.633735   -1.613414
   1 C     6.0000    0    12.011    1.941295    2.429460   -1.261305
   2 C     6.0000    0    12.011    5.728068    0.247155    0.983313
   3 C     6.0000    0    12.011    4.936995   -1.804503   -0.312364
   4 C     6.0000    0    12.011    5.814491   -2.323598   -2.963945
   5 Fe   26.0000    0    55.850   -2.778899   -0.286482    0.022624
   6 Cl   17.0000    0    35.453   -3.908963   -3.780836   -1.827046
   7 C     6.0000    0    12.011    3.193601   -3.772460    0.742948
   8 Cl   17.0000    0    35.453   -5.078624    3.041645   -0.841992
   9 Cl   17.0000    0    35.453   -2.087482   -0.678391    4.098039
  10 H     1.0000    0     1.008    7.097683    1.474557    0.055960
  11 H     1.0000    0     1.008    4.191409   -5.587546    0.877235
  12 H     1.0000    0     1.008    2.446262   -3.310725    2.604734
  13 H     1.0000    0     1.008    1.596830   -4.086767   -0.542179
  14 H     1.0000    0     1.008    6.757203   -4.169654   -3.042896
  15 H     1.0000    0     1.008    4.199892   -2.440181   -4.262614
  16 H     1.0000    0     1.008    7.144314   -0.901477   -3.655874
  17 C     6.0000    0    12.011    5.354252    0.719908    3.766198
  18 H     1.0000    0     1.008    6.861490   -0.210464    4.848504
  19 H     1.0000    0     1.008    5.461581    2.734999    4.215474
  20 H     1.0000    0     1.008    3.551935    0.003239    4.475045
  21 C     6.0000    0    12.011    1.599808    4.202386    0.918020
  22 H     1.0000    0     1.008    3.274703    5.354123    1.256352
  23 H     1.0000    0     1.008    0.032575    5.458769    0.379691
  24 H     1.0000    0     1.008    1.029784    3.216696    2.634205
  25 C     6.0000    0    12.011    3.459928    3.325708   -3.481660
  26 H     1.0000    0     1.008    2.294437    4.774472   -4.411239
  27 H     1.0000    0     1.008    5.233727    4.211351   -2.918094
  28 H     1.0000    0     1.008    3.784271    1.811815   -4.835463



           ************************************************************
           *        Program running with 10 parallel MPI-processes    *
           *              working on a common directory               *
           ************************************************************


           ************************************************************
           *        Program running with 10 parallel MPI-processes    *
           *              working on a common directory               *
           ************************************************************

Diagonalization of the overlap matrix:
Smallest eigenvalue                        ... 8.641e-07
Time for diagonalization                   ...    0.362 sec
Threshold for overlap eigenvalues          ... 1.000e-08
Number of eigenvalues below threshold      ... 0
Time for construction of square roots      ...    0.297 sec
Total time needed                          ...    0.667 sec

-------------------
DFT GRID GENERATION
-------------------

General Integration Accuracy     IntAcc      ...  4.340
Radial Grid Type                 RadialGrid  ... Gauss-Chebyshev
Angular Grid (max. acc.)         AngularGrid ... Lebedev-110
Angular grid pruning method      GridPruning ... 3 (G Style)
Weight generation scheme         WeightScheme... Becke
Basis function cutoff            BFCut       ...    1.0000e-11
Integration weight cutoff        WCut        ...    1.0000e-14
Grids for H and He will be reduced by one unit

# of grid points (after initial pruning)     ...  36112 (   0.0 sec)
# of grid points (after weights+screening)   ...  32430 (   0.1 sec)
nearest neighbour list constructed           ...    0.0 sec
Grid point re-assignment to atoms done       ...    0.0 sec
Grid point division into batches done        ...    0.0 sec
Reduced shell lists constructed in    0.4 sec

Total number of grid points                  ...    32430
Total number of batches                      ...      524
Average number of points per batch           ...       61
Average number of grid points per atom       ...     1118
Average number of shells per batch           ...   287.50 (83.82%)
Average number of basis functions per batch  ...   852.20 (83.14%)
Average number of large shells per batch     ...   233.59 (81.25%)
Average number of large basis fcns per batch ...   693.63 (81.39%)
Maximum spatial batch extension              ...   4.18,  4.43,  3.92 au
Average spatial batch extension              ...   0.18,  0.19,  0.19 au

Time for grid setup =    0.526 sec

Loading Hartree-Fock densities                     ... done
Calculating cut-offs                               ... done
Setting up the integral package                    ... done
Initializing the effective Hamiltonian             ... done
Starting the Coulomb interaction                   ... done (   1.2 sec)
Reading the grid                                   ... done
Mapping shells                                     ... done
Starting the XC term evaluation                    ... done (   1.0 sec)
Transforming the Hamiltonian                       ... done (   0.2 sec)
Diagonalizing the Hamiltonian                      ... done (   0.4 sec)
Back transforming the eigenvectors                 ... done (   0.1 sec)
Now organizing SCF variables                       ... done
--------------
SCF ITERATIONS
--------------
ITER       Energy         Delta-E        Max-DP      RMS-DP      [F,P]     Damp
               ***  Starting incremental Fock matrix formation  ***
  0  -3027.5942384140   0.000000000000 0.17296179  0.00091267  0.2453176 0.7000
  1  -3027.8472969411  -0.253058527075 0.12994367  0.00071856  0.1529681 0.7000
                               ***Turning on DIIS***
  2  -3028.0166976686  -0.169400727490 0.09141231  0.00053203  0.1094338 0.7000
  3  -3029.6059064121  -1.589208743520 0.24273323  0.00135315  0.0817254 0.0000
  4  -3028.3116183462   1.294288065883 0.04225249  0.00021640  0.0196597 0.0000
  5  -3028.4336349625  -0.122016616247 0.03944523  0.00017085  0.0109076 0.0000
  6  -3028.4803914394  -0.046756476941 0.01950423  0.00006960  0.0052627 0.0000
  7  -3028.4940012713  -0.013609831931 0.00858515  0.00003226  0.0032364 0.0000
  8  -3028.4831668407   0.010834430591 0.00633916  0.00001845  0.0015605 0.0000
  9  -3028.4789328157   0.004234025057 0.00228884  0.00001070  0.0007062 0.0000
 10  -3028.4666141364   0.012318679229 0.00093289  0.00000326  0.0004132 0.0000
 11  -3028.4722809210  -0.005666784522 0.00027569  0.00000171  0.0000817 0.0000
 12  -3028.4702595638   0.002021357194 0.00021941  0.00000127  0.0000232 0.0000
 13  -3028.4702269119   0.000032651908 0.00048953  0.00000182  0.0000089 0.0000
 14  -3028.4702427026  -0.000015790703 0.00039382  0.00000168  0.0000056 0.0000
 15  -3028.4701984065   0.000044296074 0.00051237  0.00000178  0.0000035 0.0000
 16  -3028.4702024113  -0.000004004811 0.00044378  0.00000197  0.0000029 0.0000
 17  -3028.4702183936  -0.000015982270 0.00038311  0.00000151  0.0000019 0.0000
 18  -3028.4702018350   0.000016558588 0.00106887  0.00000319  0.0000014 0.0000
                            ***DIIS convergence achieved***

               *****************************************************
               *                     SUCCESS                       *
               *           SCF CONVERGED AFTER  19 CYCLES          *
               *****************************************************

Total Energy       :        -3028.47020748 Eh          -82408.86393 eV
  Last Energy change         ...   -5.6454e-06  Tolerance :   1.0000e-08
  Last MAX-Density change    ...    6.1997e-04  Tolerance :   1.0000e-07
             **** THE GBW FILE WAS UPDATED (simple-grid-260-280-b3lyp_d3bj-631gd-gas-singlepoint-DLPNO_CCSD_T1-NormalPNO-augtz-gas.gbw) ****
             **** DENSITY FILE WAS UPDATED (simple-grid-260-280-b3lyp_d3bj-631gd-gas-singlepoint-DLPNO_CCSD_T1-NormalPNO-augtz-gas.scfp.tmp) ****
             **** ENERGY FILE WAS UPDATED (simple-grid-260-280-b3lyp_d3bj-631gd-gas-singlepoint-DLPNO_CCSD_T1-NormalPNO-augtz-gas.en.tmp) ****
----------------------
UHF SPIN CONTAMINATION
----------------------

Expectation value of <S**2>     :     8.764930
Ideal value S*(S+1) for S=2.5   :     8.750000
Deviation                       :     0.014930

----------------
ORBITAL ENERGIES
----------------
                 SPIN UP ORBITALS
  NO   OCC          E(Eh)            E(eV) 
   0   1.0000    -261.575067     -7117.8194 
   1   1.0000    -104.793412     -2851.5737 
   2   1.0000    -104.790138     -2851.4846 
   3   1.0000    -104.788242     -2851.4330 
   4   1.0000     -32.242781      -877.3707 
   5   1.0000     -27.719239      -754.2788 
   6   1.0000     -27.718136      -754.2488 
   7   1.0000     -27.717946      -754.2437 
   8   1.0000     -20.617357      -561.0268 
   9   1.0000     -11.421403      -310.7922 
  10   1.0000     -11.277124      -306.8661 
  11   1.0000     -11.271432      -306.7113 
  12   1.0000     -11.270274      -306.6797 
  13   1.0000     -11.245140      -305.9958 
  14   1.0000     -11.244300      -305.9730 
  15   1.0000     -11.237587      -305.7903 
  16   1.0000     -11.230294      -305.5918 
  17   1.0000     -10.520125      -286.2672 
  18   1.0000     -10.516826      -286.1774 
  19   1.0000     -10.514880      -286.1244 
  20   1.0000      -7.986959      -217.3362 
  21   1.0000      -7.986201      -217.3156 
  22   1.0000      -7.986151      -217.3142 
  23   1.0000      -7.983706      -217.2477 
  24   1.0000      -7.982921      -217.2263 
  25   1.0000      -7.982866      -217.2248 
  26   1.0000      -7.981670      -217.1923 
  27   1.0000      -7.981008      -217.1743 
  28   1.0000      -7.980960      -217.1730 
  29   1.0000      -4.597660      -125.1087 
  30   1.0000      -3.210779       -87.3697 
  31   1.0000      -3.209081       -87.3235 
  32   1.0000      -3.208929       -87.3194 
  33   1.0000      -1.461896       -39.7802 
  34   1.0000      -1.128504       -30.7082 
  35   1.0000      -1.100310       -29.9410 
  36   1.0000      -1.066415       -29.0186 
  37   1.0000      -1.060624       -28.8611 
  38   1.0000      -1.057753       -28.7829 
  39   1.0000      -1.022464       -27.8226 
  40   1.0000      -1.009040       -27.4574 
  41   1.0000      -0.959891       -26.1200 
  42   1.0000      -0.942068       -25.6350 
  43   1.0000      -0.926581       -25.2135 
  44   1.0000      -0.926474       -25.2106 
  45   1.0000      -0.915867       -24.9220 
  46   1.0000      -0.915203       -24.9039 
  47   1.0000      -0.897741       -24.4288 
  48   1.0000      -0.812845       -22.1186 
  49   1.0000      -0.731049       -19.8929 
  50   1.0000      -0.711052       -19.3487 
  51   1.0000      -0.701210       -19.0809 
  52   1.0000      -0.685003       -18.6399 
  53   1.0000      -0.656484       -17.8638 
  54   1.0000      -0.622551       -16.9405 
  55   1.0000      -0.621509       -16.9121 
  56   1.0000      -0.604587       -16.4516 
  57   1.0000      -0.599371       -16.3097 
  58   1.0000      -0.585738       -15.9387 
  59   1.0000      -0.578284       -15.7359 
  60   1.0000      -0.560853       -15.2616 
  61   1.0000      -0.552168       -15.0253 
  62   1.0000      -0.547635       -14.9019 
  63   1.0000      -0.541540       -14.7360 
  64   1.0000      -0.536038       -14.5863 
  65   1.0000      -0.526877       -14.3370 
  66   1.0000      -0.502597       -13.6763 
  67   1.0000      -0.494394       -13.4532 
  68   1.0000      -0.476511       -12.9665 
  69   1.0000      -0.475669       -12.9436 
  70   1.0000      -0.446223       -12.1423 
  71   1.0000      -0.440221       -11.9790 
  72   1.0000      -0.438388       -11.9292 
  73   1.0000      -0.429741       -11.6938 
  74   1.0000      -0.428767       -11.6673 
  75   1.0000      -0.427499       -11.6328 
  76   1.0000      -0.360455        -9.8085 
  77   0.0000       0.012614         0.3432 
  78   0.0000       0.023512         0.6398 
  79   0.0000       0.024165         0.6576 
  80   0.0000       0.030587         0.8323 
  81   0.0000       0.039266         1.0685 
  82   0.0000       0.041215         1.1215 
  83   0.0000       0.042875         1.1667 
  84   0.0000       0.043216         1.1760 
  85   0.0000       0.044399         1.2082 
  86   0.0000       0.056619         1.5407 
  87   0.0000       0.057121         1.5543 
  88   0.0000       0.061371         1.6700 
  89   0.0000       0.063798         1.7360 
  90   0.0000       0.064575         1.7572 
  91   0.0000       0.068377         1.8606 
  92   0.0000       0.073805         2.0083 
  93   0.0000       0.077373         2.1054 
  94   0.0000       0.082237         2.2378 
  95   0.0000       0.090510         2.4629 
  96   0.0000       0.092263         2.5106 
  97   0.0000       0.094331         2.5669 
  98   0.0000       0.097219         2.6455 
  99   0.0000       0.102354         2.7852 
 100   0.0000       0.104481         2.8431 
 101   0.0000       0.107750         2.9320 
 102   0.0000       0.117134         3.1874 
 103   0.0000       0.120883         3.2894 
 104   0.0000       0.123392         3.3577 
 105   0.0000       0.124288         3.3821 
 106   0.0000       0.125445         3.4135 
 107   0.0000       0.127313         3.4644 
 108   0.0000       0.130700         3.5565 
 109   0.0000       0.133073         3.6211 
 110   0.0000       0.135261         3.6806 
 111   0.0000       0.138152         3.7593 
 112   0.0000       0.142017         3.8645 
 113   0.0000       0.145382         3.9560 
 114   0.0000       0.149377         4.0648 
 115   0.0000       0.151335         4.1180 
 116   0.0000       0.155565         4.2331 
 117   0.0000       0.161883         4.4051 
 118   0.0000       0.162709         4.4275 
 119   0.0000       0.165025         4.4906 
 120   0.0000       0.168776         4.5926 
 121   0.0000       0.169917         4.6237 
 122   0.0000       0.174205         4.7404 
 123   0.0000       0.180624         4.9150 
 124   0.0000       0.182917         4.9774 
 125   0.0000       0.184999         5.0341 
 126   0.0000       0.186950         5.0872 
 127   0.0000       0.191152         5.2015 
 128   0.0000       0.194628         5.2961 
 129   0.0000       0.196669         5.3516 
 130   0.0000       0.198100         5.3906 
 131   0.0000       0.200810         5.4643 
 132   0.0000       0.203080         5.5261 
 133   0.0000       0.207185         5.6378 
 134   0.0000       0.211547         5.7565 
 135   0.0000       0.215495         5.8639 
 136   0.0000       0.217915         5.9298 
 137   0.0000       0.224783         6.1167 
 138   0.0000       0.226391         6.1604 
 139   0.0000       0.232113         6.3161 
 140   0.0000       0.234031         6.3683 
 141   0.0000       0.235503         6.4084 
 142   0.0000       0.238755         6.4969 
 143   0.0000       0.242028         6.5859 
 144   0.0000       0.243585         6.6283 
 145   0.0000       0.245635         6.6841 
 146   0.0000       0.252379         6.8676 
 147   0.0000       0.254346         6.9211 
 148   0.0000       0.257454         7.0057 
 149   0.0000       0.259792         7.0693 
 150   0.0000       0.261296         7.1102 
 151   0.0000       0.267171         7.2701 
 152   0.0000       0.274923         7.4810 
 153   0.0000       0.278070         7.5667 
 154   0.0000       0.280728         7.6390 
 155   0.0000       0.286507         7.7963 
 156   0.0000       0.290698         7.9103 
 157   0.0000       0.291800         7.9403 
 158   0.0000       0.296101         8.0573 
 159   0.0000       0.305527         8.3138 
 160   0.0000       0.308356         8.3908 
 161   0.0000       0.310641         8.4530 
 162   0.0000       0.317130         8.6296 
 163   0.0000       0.319007         8.6806 
 164   0.0000       0.324263         8.8236 
 165   0.0000       0.329659         8.9705 
 166   0.0000       0.331696         9.0259 
 167   0.0000       0.336040         9.1441 
 168   0.0000       0.338952         9.2234 
 169   0.0000       0.342518         9.3204 
 170   0.0000       0.345052         9.3894 
 171   0.0000       0.353154         9.6098 
 172   0.0000       0.354783         9.6541 
 173   0.0000       0.359295         9.7769 
 174   0.0000       0.359643         9.7864 
 175   0.0000       0.366179         9.9642 
 176   0.0000       0.366947         9.9851 
 177   0.0000       0.373318        10.1585 
 178   0.0000       0.376268        10.2388 
 179   0.0000       0.377221        10.2647 
 180   0.0000       0.379537        10.3277 
 181   0.0000       0.381354        10.3772 
 182   0.0000       0.382809        10.4168 
 183   0.0000       0.384218        10.4551 
 184   0.0000       0.391285        10.6474 
 185   0.0000       0.394538        10.7359 
 186   0.0000       0.396847        10.7988 
 187   0.0000       0.400580        10.9003 
 188   0.0000       0.402566        10.9544 
 189   0.0000       0.405562        11.0359 
 190   0.0000       0.408012        11.1026 
 191   0.0000       0.412732        11.2310 
 192   0.0000       0.416229        11.3262 
 193   0.0000       0.421276        11.4635 
 194   0.0000       0.424713        11.5570 
 195   0.0000       0.433588        11.7985 
 196   0.0000       0.436772        11.8852 
 197   0.0000       0.438883        11.9426 
 198   0.0000       0.442120        12.0307 
 199   0.0000       0.444116        12.0850 
 200   0.0000       0.450142        12.2490 
 201   0.0000       0.452242        12.3061 
 202   0.0000       0.455586        12.3971 
 203   0.0000       0.457012        12.4359 
 204   0.0000       0.461463        12.5570 
 205   0.0000       0.464640        12.6435 
 206   0.0000       0.466716        12.7000 
 207   0.0000       0.472589        12.8598 
 208   0.0000       0.477977        13.0064 
 209   0.0000       0.479243        13.0409 
 210   0.0000       0.486328        13.2336 
 211   0.0000       0.486827        13.2472 
 212   0.0000       0.494159        13.4468 
 213   0.0000       0.495089        13.4720 
 214   0.0000       0.498212        13.5571 
 215   0.0000       0.501529        13.6473 
 216   0.0000       0.504339        13.7238 
 217   0.0000       0.507931        13.8215 
 218   0.0000       0.509705        13.8698 
 219   0.0000       0.513853        13.9827 
 220   0.0000       0.514917        14.0116 
 221   0.0000       0.519558        14.1379 
 222   0.0000       0.523193        14.2368 
 223   0.0000       0.524457        14.2712 
 224   0.0000       0.527348        14.3499 
 225   0.0000       0.530978        14.4486 
 226   0.0000       0.534003        14.5310 
 227   0.0000       0.534918        14.5559 
 228   0.0000       0.541193        14.7266 
 229   0.0000       0.544161        14.8074 
 230   0.0000       0.544462        14.8156 
 231   0.0000       0.549430        14.9508 
 232   0.0000       0.556159        15.1339 
 233   0.0000       0.559558        15.2263 
 234   0.0000       0.561691        15.2844 
 235   0.0000       0.565460        15.3870 
 236   0.0000       0.571908        15.5624 
 237   0.0000       0.574667        15.6375 
 238   0.0000       0.575289        15.6544 
 239   0.0000       0.582167        15.8416 
 240   0.0000       0.583775        15.8853 
 241   0.0000       0.586271        15.9533 
 242   0.0000       0.589977        16.0541 
 243   0.0000       0.592952        16.1350 
 244   0.0000       0.598720        16.2920 
 245   0.0000       0.602759        16.4019 
 246   0.0000       0.605326        16.4718 
 247   0.0000       0.613369        16.6906 
 248   0.0000       0.614005        16.7079 
 249   0.0000       0.615638        16.7524 
 250   0.0000       0.619319        16.8525 
 251   0.0000       0.626241        17.0409 
 252   0.0000       0.631686        17.1891 
 253   0.0000       0.632950        17.2234 
 254   0.0000       0.636686        17.3251 
 255   0.0000       0.640806        17.4372 
 256   0.0000       0.644209        17.5298 
 257   0.0000       0.649349        17.6697 
 258   0.0000       0.651832        17.7373 
 259   0.0000       0.654510        17.8101 
 260   0.0000       0.659876        17.9561 
 261   0.0000       0.663031        18.0420 
 262   0.0000       0.666719        18.1424 
 263   0.0000       0.672270        18.2934 
 264   0.0000       0.675535        18.3823 
 265   0.0000       0.677526        18.4364 
 266   0.0000       0.684161        18.6170 
 267   0.0000       0.688374        18.7316 
 268   0.0000       0.692895        18.8546 
 269   0.0000       0.695871        18.9356 
 270   0.0000       0.703186        19.1347 
 271   0.0000       0.706443        19.2233 
 272   0.0000       0.709615        19.3096 
 273   0.0000       0.713446        19.4138 
 274   0.0000       0.715953        19.4821 
 275   0.0000       0.722867        19.6702 
 276   0.0000       0.728552        19.8249 
 277   0.0000       0.732695        19.9377 
 278   0.0000       0.733993        19.9730 
 279   0.0000       0.740431        20.1481 
 280   0.0000       0.746137        20.3034 
 281   0.0000       0.748228        20.3603 
 282   0.0000       0.758323        20.6350 
 283   0.0000       0.759753        20.6739 
 284   0.0000       0.764756        20.8101 
 285   0.0000       0.778608        21.1870 
 286   0.0000       0.778989        21.1974 
 287   0.0000       0.785932        21.3863 
 288   0.0000       0.796891        21.6845 
 289   0.0000       0.802130        21.8271 
 290   0.0000       0.811865        22.0920 
 291   0.0000       0.814226        22.1562 
 292   0.0000       0.821300        22.3487 
 293   0.0000       0.824180        22.4271 
 294   0.0000       0.832386        22.6504 
 295   0.0000       0.835535        22.7361 
 296   0.0000       0.842686        22.9306 
 297   0.0000       0.845239        23.0001 
 298   0.0000       0.852422        23.1956 
 299   0.0000       0.855359        23.2755 
 300   0.0000       0.858271        23.3547 
 301   0.0000       0.861208        23.4347 
 302   0.0000       0.864163        23.5151 
 303   0.0000       0.875587        23.8259 
 304   0.0000       0.879567        23.9342 
 305   0.0000       0.884372        24.0650 
 306   0.0000       0.886833        24.1319 
 307   0.0000       0.892111        24.2756 
 308   0.0000       0.897221        24.4146 
 309   0.0000       0.905257        24.6333 
 310   0.0000       0.911082        24.7918 
 311   0.0000       0.913376        24.8542 
 312   0.0000       0.914786        24.8926 
 313   0.0000       0.917130        24.9564 
 314   0.0000       0.921278        25.0693 
 315   0.0000       0.927512        25.2389 
 316   0.0000       0.929925        25.3046 
 317   0.0000       0.933059        25.3898 
 318   0.0000       0.941350        25.6154 
 319   0.0000       0.942288        25.6410 
 320   0.0000       0.944448        25.6997 
 321   0.0000       0.948248        25.8031 
 322   0.0000       0.950446        25.8630 
 323   0.0000       0.954259        25.9667 
 324   0.0000       0.956754        26.0346 
 325   0.0000       0.958645        26.0860 
 326   0.0000       0.966815        26.3084 
 327   0.0000       0.970685        26.4137 
 328   0.0000       0.974174        26.5086 
 329   0.0000       0.974698        26.5229 
 330   0.0000       0.976377        26.5686 
 331   0.0000       0.981238        26.7008 
 332   0.0000       0.983661        26.7668 
 333   0.0000       0.988749        26.9052 
 334   0.0000       0.990746        26.9596 
 335   0.0000       0.996983        27.1293 
 336   0.0000       1.005765        27.3682 
 337   0.0000       1.006838        27.3975 
 338   0.0000       1.011610        27.5273 
 339   0.0000       1.013185        27.5702 
 340   0.0000       1.017361        27.6838 
 341   0.0000       1.021621        27.7997 
 342   0.0000       1.022163        27.8145 
 343   0.0000       1.028362        27.9831 
 344   0.0000       1.031881        28.0789 
 345   0.0000       1.032715        28.1016 
 346   0.0000       1.038083        28.2477 
 347   0.0000       1.040094        28.3024 
 348   0.0000       1.045898        28.4603 
 349   0.0000       1.048081        28.5197 
 350   0.0000       1.051070        28.6011 
 351   0.0000       1.053917        28.6785 
 352   0.0000       1.056682        28.7538 
 353   0.0000       1.062498        28.9120 
 354   0.0000       1.065653        28.9979 
 355   0.0000       1.070126        29.1196 
 356   0.0000       1.075525        29.2665 
 357   0.0000       1.080898        29.4127 
 358   0.0000       1.084344        29.5065 
 359   0.0000       1.086234        29.5579 
 360   0.0000       1.088944        29.6317 
 361   0.0000       1.091593        29.7038 
 362   0.0000       1.099996        29.9324 
 363   0.0000       1.103609        30.0307 
 364   0.0000       1.106165        30.1003 
 365   0.0000       1.108508        30.1640 
 366   0.0000       1.117039        30.3962 
 367   0.0000       1.119199        30.4550 
 368   0.0000       1.124507        30.5994 
 369   0.0000       1.126990        30.6669 
 370   0.0000       1.133630        30.8477 
 371   0.0000       1.137933        30.9647 
 372   0.0000       1.142353        31.0850 
 373   0.0000       1.143345        31.1120 
 374   0.0000       1.147025        31.2121 
 375   0.0000       1.151901        31.3448 
 376   0.0000       1.155250        31.4359 
 377   0.0000       1.162883        31.6436 
 378   0.0000       1.167354        31.7653 
 379   0.0000       1.174670        31.9644 
 380   0.0000       1.178003        32.0551 
 381   0.0000       1.183815        32.2132 
 382   0.0000       1.185325        32.2543 
 383   0.0000       1.193096        32.4658 
 384   0.0000       1.194229        32.4966 
 385   0.0000       1.201422        32.6923 
 386   0.0000       1.204097        32.7652 
 387   0.0000       1.209086        32.9009 
 388   0.0000       1.212638        32.9976 
 389   0.0000       1.218356        33.1531 
 390   0.0000       1.221344        33.2345 
 391   0.0000       1.230046        33.4713 
 392   0.0000       1.233333        33.5607 
 393   0.0000       1.239441        33.7269 
 394   0.0000       1.243015        33.8242 
 395   0.0000       1.246869        33.9290 
 396   0.0000       1.251612        34.0581 
 397   0.0000       1.257515        34.2187 
 398   0.0000       1.264597        34.4114 
 399   0.0000       1.265306        34.4307 
 400   0.0000       1.268797        34.5257 
 401   0.0000       1.273930        34.6654 
 402   0.0000       1.280810        34.8526 
 403   0.0000       1.282516        34.8990 
 404   0.0000       1.287043        35.0222 
 405   0.0000       1.295731        35.2586 
 406   0.0000       1.302683        35.4478 
 407   0.0000       1.306857        35.5614 
 408   0.0000       1.309744        35.6399 
 409   0.0000       1.310460        35.6594 
 410   0.0000       1.312882        35.7253 
 411   0.0000       1.319470        35.9046 
 412   0.0000       1.323024        36.0013 
 413   0.0000       1.326724        36.1020 
 414   0.0000       1.336750        36.3748 
 415   0.0000       1.340721        36.4829 
 416   0.0000       1.345255        36.6062 
 417   0.0000       1.354892        36.8685 
 418   0.0000       1.361349        37.0442 
 419   0.0000       1.367808        37.2200 
 420   0.0000       1.373029        37.3620 
 421   0.0000       1.379129        37.5280 
 422   0.0000       1.380992        37.5787 
 423   0.0000       1.385660        37.7057 
 424   0.0000       1.386822        37.7373 
 425   0.0000       1.392169        37.8828 
 426   0.0000       1.397643        38.0318 
 427   0.0000       1.403463        38.1902 
 428   0.0000       1.412796        38.4441 
 429   0.0000       1.417259        38.5656 
 430   0.0000       1.420310        38.6486 
 431   0.0000       1.432838        38.9895 
 432   0.0000       1.434855        39.0444 
 433   0.0000       1.439920        39.1822 
 434   0.0000       1.446481        39.3608 
 435   0.0000       1.455157        39.5968 
 436   0.0000       1.456764        39.6406 
 437   0.0000       1.464950        39.8633 
 438   0.0000       1.467774        39.9402 
 439   0.0000       1.475226        40.1429 
 440   0.0000       1.476015        40.1644 
 441   0.0000       1.478856        40.2417 
 442   0.0000       1.481538        40.3147 
 443   0.0000       1.491398        40.5830 
 444   0.0000       1.493581        40.6424 
 445   0.0000       1.496713        40.7276 
 446   0.0000       1.500869        40.8407 
 447   0.0000       1.507769        41.0285 
 448   0.0000       1.512019        41.1441 
 449   0.0000       1.516236        41.2589 
 450   0.0000       1.524308        41.4785 
 451   0.0000       1.529392        41.6169 
 452   0.0000       1.535329        41.7784 
 453   0.0000       1.539096        41.8809 
 454   0.0000       1.547204        42.1016 
 455   0.0000       1.551219        42.2108 
 456   0.0000       1.556159        42.3452 
 457   0.0000       1.563572        42.5470 
 458   0.0000       1.570758        42.7425 
 459   0.0000       1.572665        42.7944 
 460   0.0000       1.575684        42.8765 
 461   0.0000       1.580250        43.0008 
 462   0.0000       1.590788        43.2875 
 463   0.0000       1.595679        43.4206 
 464   0.0000       1.599057        43.5126 
 465   0.0000       1.601165        43.5699 
 466   0.0000       1.607594        43.7449 
 467   0.0000       1.616285        43.9814 
 468   0.0000       1.619337        44.0644 
 469   0.0000       1.627280        44.2805 
 470   0.0000       1.628812        44.3222 
 471   0.0000       1.636740        44.5380 
 472   0.0000       1.642088        44.6835 
 473   0.0000       1.650793        44.9204 
 474   0.0000       1.654083        45.0099 
 475   0.0000       1.659482        45.1568 
 476   0.0000       1.668628        45.4057 
 477   0.0000       1.671502        45.4839 
 478   0.0000       1.678045        45.6619 
 479   0.0000       1.683016        45.7972 
 480   0.0000       1.688312        45.9413 
 481   0.0000       1.697796        46.1994 
 482   0.0000       1.700235        46.2657 
 483   0.0000       1.708276        46.4845 
 484   0.0000       1.711101        46.5614 
 485   0.0000       1.713076        46.6152 
 486   0.0000       1.722422        46.8695 
 487   0.0000       1.729008        47.0487 
 488   0.0000       1.731211        47.1086 
 489   0.0000       1.733495        47.1708 
 490   0.0000       1.736154        47.2432 
 491   0.0000       1.744605        47.4731 
 492   0.0000       1.752453        47.6867 
 493   0.0000       1.757424        47.8219 
 494   0.0000       1.760907        47.9167 
 495   0.0000       1.768016        48.1102 
 496   0.0000       1.768604        48.1262 
 497   0.0000       1.769225        48.1431 
 498   0.0000       1.779695        48.4280 
 499   0.0000       1.784931        48.5704 
 500   0.0000       1.791186        48.7406 
 501   0.0000       1.798768        48.9470 
 502   0.0000       1.804540        49.1040 
 503   0.0000       1.806144        49.1477 
 504   0.0000       1.808077        49.2003 
 505   0.0000       1.821949        49.5778 
 506   0.0000       1.823639        49.6237 
 507   0.0000       1.830084        49.7991 
 508   0.0000       1.834804        49.9276 
 509   0.0000       1.837341        49.9966 
 510   0.0000       1.844370        50.1879 
 511   0.0000       1.850507        50.3549 
 512   0.0000       1.851237        50.3747 
 513   0.0000       1.858425        50.5703 
 514   0.0000       1.864829        50.7446 
 515   0.0000       1.865877        50.7731 
 516   0.0000       1.871342        50.9218 
 517   0.0000       1.880227        51.1636 
 518   0.0000       1.883975        51.2656 
 519   0.0000       1.889750        51.4227 
 520   0.0000       1.892021        51.4845 
 521   0.0000       1.898529        51.6616 
 522   0.0000       1.910346        51.9832 
 523   0.0000       1.913040        52.0565 
 524   0.0000       1.917601        52.1806 
 525   0.0000       1.919442        52.2307 
 526   0.0000       1.930543        52.5327 
 527   0.0000       1.932806        52.5943 
 528   0.0000       1.937382        52.7188 
 529   0.0000       1.942136        52.8482 
 530   0.0000       1.948825        53.0302 
 531   0.0000       1.952187        53.1217 
 532   0.0000       1.958036        53.2809 
 533   0.0000       1.962834        53.4114 
 534   0.0000       1.966506        53.5114 
 535   0.0000       1.976935        53.7951 
 536   0.0000       1.983726        53.9799 
 537   0.0000       1.992706        54.2243 
 538   0.0000       1.994859        54.2829 
 539   0.0000       2.004768        54.5525 
 540   0.0000       2.006125        54.5894 
 541   0.0000       2.017055        54.8869 
 542   0.0000       2.018806        54.9345 
 543   0.0000       2.028370        55.1947 
 544   0.0000       2.033017        55.3212 
 545   0.0000       2.038982        55.4835 
 546   0.0000       2.047735        55.7217 
 547   0.0000       2.050517        55.7974 
 548   0.0000       2.056054        55.9481 
 549   0.0000       2.061402        56.0936 
 550   0.0000       2.068973        56.2996 
 551   0.0000       2.077177        56.5229 
 552   0.0000       2.090055        56.8733 
 553   0.0000       2.098496        57.1030 
 554   0.0000       2.103435        57.2374 
 555   0.0000       2.110501        57.4296 
 556   0.0000       2.111687        57.4619 
 557   0.0000       2.120864        57.7117 
 558   0.0000       2.129386        57.9435 
 559   0.0000       2.132723        58.0343 
 560   0.0000       2.138141        58.1818 
 561   0.0000       2.147871        58.4465 
 562   0.0000       2.156847        58.6908 
 563   0.0000       2.158346        58.7316 
 564   0.0000       2.162256        58.8380 
 565   0.0000       2.169644        59.0390 
 566   0.0000       2.182638        59.3926 
 567   0.0000       2.185250        59.4637 
 568   0.0000       2.193852        59.6977 
 569   0.0000       2.204241        59.9804 
 570   0.0000       2.205920        60.0261 
 571   0.0000       2.211033        60.1653 
 572   0.0000       2.222699        60.4827 
 573   0.0000       2.229485        60.6674 
 574   0.0000       2.235302        60.8257 
 575   0.0000       2.239938        60.9518 
 576   0.0000       2.254620        61.3513 
 577   0.0000       2.256844        61.4119 
 578   0.0000       2.260925        61.5229 
 579   0.0000       2.271929        61.8223 
 580   0.0000       2.279615        62.0315 
 581   0.0000       2.283595        62.1398 
 582   0.0000       2.287855        62.2557 
 583   0.0000       2.297290        62.5124 
 584   0.0000       2.314551        62.9821 
 585   0.0000       2.321235        63.1640 
 586   0.0000       2.323147        63.2160 
 587   0.0000       2.332029        63.4577 
 588   0.0000       2.343305        63.7646 
 589   0.0000       2.350068        63.9486 
 590   0.0000       2.355265        64.0900 
 591   0.0000       2.362619        64.2901 
 592   0.0000       2.376578        64.6700 
 593   0.0000       2.385441        64.9111 
 594   0.0000       2.393171        65.1215 
 595   0.0000       2.397905        65.2503 
 596   0.0000       2.401700        65.3536 
 597   0.0000       2.409758        65.5728 
 598   0.0000       2.414817        65.7105 
 599   0.0000       2.419558        65.8395 
 600   0.0000       2.432370        66.1882 
 601   0.0000       2.443940        66.5030 
 602   0.0000       2.447374        66.5964 
 603   0.0000       2.452701        66.7414 
 604   0.0000       2.463956        67.0477 
 605   0.0000       2.476529        67.3898 
 606   0.0000       2.485559        67.6355 
 607   0.0000       2.503866        68.1337 
 608   0.0000       2.508229        68.2524 
 609   0.0000       2.514281        68.4171 
 610   0.0000       2.526302        68.7442 
 611   0.0000       2.543122        69.2019 
 612   0.0000       2.550135        69.3927 
 613   0.0000       2.556133        69.5559 
 614   0.0000       2.569677        69.9245 
 615   0.0000       2.583632        70.3042 
 616   0.0000       2.596212        70.6465 
 617   0.0000       2.602626        70.8211 
 618   0.0000       2.632964        71.6466 
 619   0.0000       2.642874        71.9163 
 620   0.0000       2.650548        72.1251 
 621   0.0000       2.656628        72.2905 
 622   0.0000       2.668786        72.6213 
 623   0.0000       2.674374        72.7734 
 624   0.0000       2.675868        72.8141 
 625   0.0000       2.693482        73.2934 
 626   0.0000       2.694054        73.3089 
 627   0.0000       2.704133        73.5832 
 628   0.0000       2.715810        73.9009 
 629   0.0000       2.724334        74.1329 
 630   0.0000       2.728228        74.2389 
 631   0.0000       2.745492        74.7086 
 632   0.0000       2.753510        74.9268 
 633   0.0000       2.764040        75.2133 
 634   0.0000       2.770318        75.3842 
 635   0.0000       2.779705        75.6396 
 636   0.0000       2.787753        75.8586 
 637   0.0000       2.791395        75.9577 
 638   0.0000       2.799581        76.1805 
 639   0.0000       2.821557        76.7785 
 640   0.0000       2.824305        76.8532 
 641   0.0000       2.849339        77.5345 
 642   0.0000       2.854739        77.6814 
 643   0.0000       2.867750        78.0355 
 644   0.0000       2.887044        78.5605 
 645   0.0000       2.892454        78.7077 
 646   0.0000       2.901275        78.9477 
 647   0.0000       2.916086        79.3507 
 648   0.0000       2.918644        79.4203 
 649   0.0000       2.931458        79.7690 
 650   0.0000       2.944191        80.1155 
 651   0.0000       2.957168        80.4686 
 652   0.0000       2.980346        81.0993 
 653   0.0000       2.999100        81.6096 
 654   0.0000       3.017755        82.1173 
 655   0.0000       3.023749        82.2804 
 656   0.0000       3.031765        82.4985 
 657   0.0000       3.056890        83.1822 
 658   0.0000       3.073147        83.6246 
 659   0.0000       3.086220        83.9803 
 660   0.0000       3.089528        84.0703 
 661   0.0000       3.103114        84.4400 
 662   0.0000       3.121227        84.9329 
 663   0.0000       3.136385        85.3454 
 664   0.0000       3.156200        85.8846 
 665   0.0000       3.164163        86.1012 
 666   0.0000       3.174716        86.3884 
 667   0.0000       3.187208        86.7283 
 668   0.0000       3.201803        87.1255 
 669   0.0000       3.207602        87.2833 
 670   0.0000       3.216707        87.5311 
 671   0.0000       3.223520        87.7164 
 672   0.0000       3.235763        88.0496 
 673   0.0000       3.249030        88.4106 
 674   0.0000       3.257005        88.6276 
 675   0.0000       3.262037        88.7645 
 676   0.0000       3.270074        88.9832 
 677   0.0000       3.277942        89.1973 
 678   0.0000       3.288003        89.4711 
 679   0.0000       3.296308        89.6971 
 680   0.0000       3.305414        89.9449 
 681   0.0000       3.318077        90.2895 
 682   0.0000       3.331026        90.6418 
 683   0.0000       3.336506        90.7909 
 684   0.0000       3.340721        90.9056 
 685   0.0000       3.355197        91.2996 
 686   0.0000       3.367466        91.6334 
 687   0.0000       3.390714        92.2660 
 688   0.0000       3.394314        92.3640 
 689   0.0000       3.400467        92.5314 
 690   0.0000       3.419781        93.0570 
 691   0.0000       3.430556        93.3502 
 692   0.0000       3.432853        93.4127 
 693   0.0000       3.437369        93.5356 
 694   0.0000       3.446472        93.7833 
 695   0.0000       3.458640        94.1144 
 696   0.0000       3.470704        94.4427 
 697   0.0000       3.481666        94.7409 
 698   0.0000       3.484802        94.8263 
 699   0.0000       3.493153        95.0535 
 700   0.0000       3.494214        95.0824 
 701   0.0000       3.506162        95.4075 
 702   0.0000       3.513051        95.5950 
 703   0.0000       3.523543        95.8805 
 704   0.0000       3.528886        96.0259 
 705   0.0000       3.535376        96.2025 
 706   0.0000       3.544863        96.4606 
 707   0.0000       3.555686        96.7551 
 708   0.0000       3.564269        96.9887 
 709   0.0000       3.569116        97.1206 
 710   0.0000       3.578996        97.3894 
 711   0.0000       3.588112        97.6375 
 712   0.0000       3.594170        97.8023 
 713   0.0000       3.606057        98.1258 
 714   0.0000       3.614798        98.3636 
 715   0.0000       3.623861        98.6103 
 716   0.0000       3.634854        98.9094 
 717   0.0000       3.643230        99.1373 
 718   0.0000       3.656871        99.5085 
 719   0.0000       3.658832        99.5619 
 720   0.0000       3.669270        99.8459 
 721   0.0000       3.674567        99.9900 
 722   0.0000       3.681395       100.1758 
 723   0.0000       3.685678       100.2924 
 724   0.0000       3.695105       100.5489 
 725   0.0000       3.698934       100.6531 
 726   0.0000       3.708057       100.9014 
 727   0.0000       3.714805       101.0850 
 728   0.0000       3.723417       101.3193 
 729   0.0000       3.727840       101.4397 
 730   0.0000       3.744775       101.9005 
 731   0.0000       3.749606       102.0320 
 732   0.0000       3.751088       102.0723 
 733   0.0000       3.757302       102.2414 
 734   0.0000       3.762404       102.3802 
 735   0.0000       3.774788       102.7172 
 736   0.0000       3.776523       102.7644 
 737   0.0000       3.789586       103.1199 
 738   0.0000       3.798152       103.3530 
 739   0.0000       3.799823       103.3984 
 740   0.0000       3.814678       103.8027 
 741   0.0000       3.819623       103.9372 
 742   0.0000       3.821831       103.9973 
 743   0.0000       3.831165       104.2513 
 744   0.0000       3.834368       104.3385 
 745   0.0000       3.842412       104.5573 
 746   0.0000       3.855349       104.9094 
 747   0.0000       3.867328       105.2353 
 748   0.0000       3.872986       105.3893 
 749   0.0000       3.881939       105.6329 
 750   0.0000       3.885984       105.7430 
 751   0.0000       3.886961       105.7696 
 752   0.0000       3.891825       105.9019 
 753   0.0000       3.906841       106.3106 
 754   0.0000       3.910735       106.4165 
 755   0.0000       3.920632       106.6858 
 756   0.0000       3.923251       106.7571 
 757   0.0000       3.931958       106.9940 
 758   0.0000       3.938455       107.1708 
 759   0.0000       3.946225       107.3822 
 760   0.0000       3.951945       107.5379 
 761   0.0000       3.956404       107.6592 
 762   0.0000       3.961091       107.7868 
 763   0.0000       3.973074       108.1128 
 764   0.0000       3.977541       108.2344 
 765   0.0000       3.989857       108.5695 
 766   0.0000       3.991170       108.6052 
 767   0.0000       3.997897       108.7883 
 768   0.0000       4.002511       108.9139 
 769   0.0000       4.015378       109.2640 
 770   0.0000       4.022410       109.4553 
 771   0.0000       4.025312       109.5343 
 772   0.0000       4.036300       109.8333 
 773   0.0000       4.038523       109.8938 
 774   0.0000       4.048966       110.1780 
 775   0.0000       4.052328       110.2694 
 776   0.0000       4.061735       110.5254 
 777   0.0000       4.069458       110.7356 
 778   0.0000       4.081283       111.0574 
 779   0.0000       4.092327       111.3579 
 780   0.0000       4.100569       111.5821 
 781   0.0000       4.106769       111.7509 
 782   0.0000       4.115651       111.9926 
 783   0.0000       4.127241       112.3079 
 784   0.0000       4.129711       112.3751 
 785   0.0000       4.130345       112.3924 
 786   0.0000       4.143100       112.7395 
 787   0.0000       4.149093       112.9026 
 788   0.0000       4.157097       113.1204 
 789   0.0000       4.167977       113.4164 
 790   0.0000       4.169212       113.4500 
 791   0.0000       4.180329       113.7525 
 792   0.0000       4.189884       114.0125 
 793   0.0000       4.196015       114.1794 
 794   0.0000       4.214800       114.6905 
 795   0.0000       4.218745       114.7979 
 796   0.0000       4.225864       114.9916 
 797   0.0000       4.229217       115.0829 
 798   0.0000       4.232886       115.1827 
 799   0.0000       4.249175       115.6259 
 800   0.0000       4.264242       116.0359 
 801   0.0000       4.277014       116.3835 
 802   0.0000       4.280913       116.4896 
 803   0.0000       4.293546       116.8333 
 804   0.0000       4.303834       117.1133 
 805   0.0000       4.309047       117.2551 
 806   0.0000       4.314343       117.3992 
 807   0.0000       4.325941       117.7149 
 808   0.0000       4.331421       117.8640 
 809   0.0000       4.344523       118.2205 
 810   0.0000       4.350012       118.3699 
 811   0.0000       4.360761       118.6624 
 812   0.0000       4.371283       118.9487 
 813   0.0000       4.377178       119.1091 
 814   0.0000       4.394414       119.5781 
 815   0.0000       4.399926       119.7281 
 816   0.0000       4.408438       119.9597 
 817   0.0000       4.424812       120.4053 
 818   0.0000       4.428709       120.5113 
 819   0.0000       4.438306       120.7724 
 820   0.0000       4.454442       121.2115 
 821   0.0000       4.460611       121.3794 
 822   0.0000       4.461354       121.3996 
 823   0.0000       4.482372       121.9715 
 824   0.0000       4.489861       122.1753 
 825   0.0000       4.504004       122.5602 
 826   0.0000       4.508464       122.6815 
 827   0.0000       4.511142       122.7544 
 828   0.0000       4.517527       122.9281 
 829   0.0000       4.526621       123.1756 
 830   0.0000       4.531221       123.3008 
 831   0.0000       4.543590       123.6374 
 832   0.0000       4.548831       123.7800 
 833   0.0000       4.556671       123.9933 
 834   0.0000       4.564974       124.2192 
 835   0.0000       4.593170       124.9865 
 836   0.0000       4.599998       125.1723 
 837   0.0000       4.609267       125.4245 
 838   0.0000       4.625474       125.8656 
 839   0.0000       4.636224       126.1581 
 840   0.0000       4.639921       126.2587 
 841   0.0000       4.658320       126.7593 
 842   0.0000       4.661214       126.8381 
 843   0.0000       4.669781       127.0712 
 844   0.0000       4.683232       127.4372 
 845   0.0000       4.694054       127.7317 
 846   0.0000       4.712936       128.2455 
 847   0.0000       4.714274       128.2819 
 848   0.0000       4.718471       128.3961 
 849   0.0000       4.726693       128.6199 
 850   0.0000       4.753003       129.3358 
 851   0.0000       4.764061       129.6367 
 852   0.0000       4.775117       129.9375 
 853   0.0000       4.782727       130.1446 
 854   0.0000       4.807659       130.8231 
 855   0.0000       4.819951       131.1575 
 856   0.0000       4.830388       131.4415 
 857   0.0000       4.833940       131.5382 
 858   0.0000       4.835263       131.5742 
 859   0.0000       4.864574       132.3718 
 860   0.0000       4.871477       132.5596 
 861   0.0000       4.894958       133.1986 
 862   0.0000       4.897119       133.2574 
 863   0.0000       4.903076       133.4195 
 864   0.0000       4.913981       133.7162 
 865   0.0000       4.920350       133.8895 
 866   0.0000       4.933727       134.2535 
 867   0.0000       4.941329       134.4604 
 868   0.0000       4.961873       135.0194 
 869   0.0000       4.971302       135.2760 
 870   0.0000       4.986470       135.6888 
 871   0.0000       4.994708       135.9129 
 872   0.0000       4.995439       135.9328 
 873   0.0000       5.008215       136.2805 
 874   0.0000       5.014449       136.4501 
 875   0.0000       5.040074       137.1474 
 876   0.0000       5.044104       137.2570 
 877   0.0000       5.046774       137.3297 
 878   0.0000       5.063559       137.7865 
 879   0.0000       5.076146       138.1290 
 880   0.0000       5.087415       138.4356 
 881   0.0000       5.105811       138.9362 
 882   0.0000       5.114019       139.1595 
 883   0.0000       5.120871       139.3460 
 884   0.0000       5.131714       139.6410 
 885   0.0000       5.156428       140.3135 
 886   0.0000       5.168243       140.6351 
 887   0.0000       5.185019       141.0915 
 888   0.0000       5.188817       141.1949 
 889   0.0000       5.201665       141.5445 
 890   0.0000       5.217467       141.9745 
 891   0.0000       5.223150       142.1291 
 892   0.0000       5.237124       142.5094 
 893   0.0000       5.256316       143.0316 
 894   0.0000       5.262438       143.1982 
 895   0.0000       5.270014       143.4044 
 896   0.0000       5.281752       143.7238 
 897   0.0000       5.294179       144.0619 
 898   0.0000       5.312735       144.5669 
 899   0.0000       5.317443       144.6950 
 900   0.0000       5.334246       145.1522 
 901   0.0000       5.346274       145.4795 
 902   0.0000       5.364738       145.9819 
 903   0.0000       5.375016       146.2616 
 904   0.0000       5.385121       146.5366 
 905   0.0000       5.398688       146.9058 
 906   0.0000       5.410707       147.2328 
 907   0.0000       5.434827       147.8892 
 908   0.0000       5.441353       148.0667 
 909   0.0000       5.443257       148.1185 
 910   0.0000       5.451324       148.3381 
 911   0.0000       5.467430       148.7763 
 912   0.0000       5.470000       148.8463 
 913   0.0000       5.484857       149.2505 
 914   0.0000       5.510846       149.9577 
 915   0.0000       5.517353       150.1348 
 916   0.0000       5.530788       150.5004 
 917   0.0000       5.549389       151.0066 
 918   0.0000       5.561005       151.3226 
 919   0.0000       5.571481       151.6077 
 920   0.0000       5.583609       151.9377 
 921   0.0000       5.587284       152.0377 
 922   0.0000       5.605305       152.5281 
 923   0.0000       5.616686       152.8378 
 924   0.0000       5.624091       153.0393 
 925   0.0000       5.637650       153.4083 
 926   0.0000       5.650529       153.7587 
 927   0.0000       5.657396       153.9456 
 928   0.0000       5.660848       154.0395 
 929   0.0000       5.679344       154.5428 
 930   0.0000       5.704682       155.2323 
 931   0.0000       5.709200       155.3552 
 932   0.0000       5.722909       155.7283 
 933   0.0000       5.736646       156.1021 
 934   0.0000       5.743919       156.3000 
 935   0.0000       5.755888       156.6257 
 936   0.0000       5.769232       156.9888 
 937   0.0000       5.777402       157.2111 
 938   0.0000       5.792035       157.6093 
 939   0.0000       5.803807       157.9296 
 940   0.0000       5.824539       158.4938 
 941   0.0000       5.865019       159.5953 
 942   0.0000       5.873359       159.8222 
 943   0.0000       5.905716       160.7027 
 944   0.0000       5.938444       161.5933 
 945   0.0000       5.982361       162.7883 
 946   0.0000       6.053704       164.7297 
 947   0.0000       6.078682       165.4093 
 948   0.0000       6.098877       165.9589 
 949   0.0000       6.109753       166.2548 
 950   0.0000       6.148849       167.3187 
 951   0.0000       6.152113       167.4075 
 952   0.0000       6.182010       168.2210 
 953   0.0000       6.195152       168.5786 
 954   0.0000       6.208749       168.9487 
 955   0.0000       6.228366       169.4825 
 956   0.0000       6.241964       169.8525 
 957   0.0000       6.258327       170.2977 
 958   0.0000       6.263629       170.4420 
 959   0.0000       6.275739       170.7715 
 960   0.0000       6.292385       171.2245 
 961   0.0000       6.307861       171.6456 
 962   0.0000       6.325987       172.1389 
 963   0.0000       6.344959       172.6551 
 964   0.0000       6.356624       172.9725 
 965   0.0000       6.360297       173.0725 
 966   0.0000       6.394444       174.0017 
 967   0.0000       6.409407       174.4088 
 968   0.0000       6.466867       175.9724 
 969   0.0000       6.519440       177.4030 
 970   0.0000       6.594881       179.4558 
 971   0.0000       6.635222       180.5536 
 972   0.0000       6.819288       185.5623 
 973   0.0000       6.836305       186.0253 
 974   0.0000       6.848566       186.3590 
 975   0.0000       6.879366       187.1971 
 976   0.0000       6.910815       188.0528 
 977   0.0000       6.934321       188.6925 
 978   0.0000       6.957695       189.3285 
 979   0.0000       6.991558       190.2500 
 980   0.0000       6.999036       190.4535 
 981   0.0000       7.019161       191.0011 
 982   0.0000       7.035602       191.4485 
 983   0.0000       7.053718       191.9414 
 984   0.0000       7.064380       192.2316 
 985   0.0000       7.116474       193.6491 
 986   0.0000       7.240401       197.0213 
 987   0.0000       7.299815       198.6381 
 988   0.0000       7.331090       199.4891 
 989   0.0000       7.384170       200.9335 
 990   0.0000       7.508938       204.3286 
 991   0.0000       7.575420       206.1377 
 992   0.0000       7.616591       207.2580 
 993   0.0000       7.684966       209.1186 
 994   0.0000       7.752916       210.9676 
 995   0.0000       7.843634       213.4361 
 996   0.0000       7.909985       215.2416 
 997   0.0000       7.994485       217.5410 
 998   0.0000       8.248270       224.4468 
 999   0.0000       9.401766       255.8351 
 1000   0.0000       9.410925       256.0843 
 1001   0.0000       9.430859       256.6267 
 1002   0.0000       9.446237       257.0452 
 1003   0.0000       9.454849       257.2795 
 1004   0.0000       9.482013       258.0187 
 1005   0.0000       9.649265       262.5698 
 1006   0.0000      10.084747       274.4199 
 1007   0.0000      10.087355       274.4909 
 1008   0.0000      10.100241       274.8415 
 1009   0.0000      10.199001       277.5289 
 1010   0.0000      10.208888       277.7980 
 1011   0.0000      10.236756       278.5563 
 1012   0.0000      10.330226       281.0998 
 1013   0.0000      10.377600       282.3888 
 1014   0.0000      10.443613       284.1852 
 1015   0.0000      11.080279       301.5097 
 1016   0.0000      16.730432       455.2582 
 1017   0.0000      17.553664       477.6595 
 1018   0.0000      18.110043       492.7993 
 1019   0.0000      18.400509       500.7033 
 1020   0.0000      18.555655       504.9250 
 1021   0.0000      18.682040       508.3642 
 1022   0.0000      20.431914       555.9806 
 1023   0.0000      21.251342       578.2784 
 1024   0.0000      21.661946       589.4515 

                 SPIN DOWN ORBITALS
  NO   OCC          E(Eh)            E(eV) 
   0   1.0000    -261.571490     -7117.7221 
   1   1.0000    -104.791932     -2851.5334 
   2   1.0000    -104.788586     -2851.4424 
   3   1.0000    -104.786685     -2851.3907 
   4   1.0000     -32.080786      -872.9626 
   5   1.0000     -27.558704      -749.9105 
   6   1.0000     -27.558633      -749.9085 
   7   1.0000     -27.558520      -749.9054 
   8   1.0000     -20.613808      -560.9302 
   9   1.0000     -11.421322      -310.7900 
  10   1.0000     -11.277015      -306.8632 
  11   1.0000     -11.271424      -306.7110 
  12   1.0000     -11.270294      -306.6803 
  13   1.0000     -11.245083      -305.9943 
  14   1.0000     -11.244297      -305.9729 
  15   1.0000     -11.237592      -305.7904 
  16   1.0000     -11.230307      -305.5922 
  17   1.0000     -10.518544      -286.2241 
  18   1.0000     -10.515169      -286.1323 
  19   1.0000     -10.513227      -286.0794 
  20   1.0000      -7.984461      -217.2682 
  21   1.0000      -7.983734      -217.2485 
  22   1.0000      -7.983694      -217.2474 
  23   1.0000      -7.981049      -217.1754 
  24   1.0000      -7.980367      -217.1568 
  25   1.0000      -7.980276      -217.1543 
  26   1.0000      -7.979217      -217.1255 
  27   1.0000      -7.978328      -217.1013 
  28   1.0000      -7.978246      -217.0991 
  29   1.0000      -4.155557      -113.0785 
  30   1.0000      -2.677107       -72.8478 
  31   1.0000      -2.677090       -72.8473 
  32   1.0000      -2.676605       -72.8341 
  33   1.0000      -1.453166       -39.5427 
  34   1.0000      -1.128182       -30.6994 
  35   1.0000      -1.097952       -29.8768 
  36   1.0000      -1.050853       -28.5952 
  37   1.0000      -1.038320       -28.2541 
  38   1.0000      -1.035111       -28.1668 
  39   1.0000      -1.021788       -27.8043 
  40   1.0000      -1.008498       -27.4426 
  41   1.0000      -0.959777       -26.1169 
  42   1.0000      -0.897898       -24.4331 
  43   1.0000      -0.825720       -22.4690 
  44   1.0000      -0.731120       -19.8948 
  45   1.0000      -0.713137       -19.4055 
  46   1.0000      -0.700343       -19.0573 
  47   1.0000      -0.684348       -18.6220 
  48   1.0000      -0.656413       -17.8619 
  49   1.0000      -0.622515       -16.9395 
  50   1.0000      -0.620945       -16.8968 
  51   1.0000      -0.604315       -16.4443 
  52   1.0000      -0.599280       -16.3072 
  53   1.0000      -0.585473       -15.9315 
  54   1.0000      -0.576984       -15.7005 
  55   1.0000      -0.560028       -15.2391 
  56   1.0000      -0.551993       -15.0205 
  57   1.0000      -0.545854       -14.8534 
  58   1.0000      -0.541449       -14.7336 
  59   1.0000      -0.528179       -14.3725 
  60   1.0000      -0.522985       -14.2311 
  61   1.0000      -0.504215       -13.7204 
  62   1.0000      -0.494235       -13.4488 
  63   1.0000      -0.484775       -13.1914 
  64   1.0000      -0.482276       -13.1234 
  65   1.0000      -0.453543       -12.3415 
  66   1.0000      -0.450431       -12.2569 
  67   1.0000      -0.447518       -12.1776 
  68   1.0000      -0.431225       -11.7342 
  69   1.0000      -0.428760       -11.6671 
  70   1.0000      -0.413014       -11.2387 
  71   1.0000      -0.359805        -9.7908 
  72   0.0000       0.012598         0.3428 
  73   0.0000       0.023489         0.6392 
  74   0.0000       0.024130         0.6566 
  75   0.0000       0.030514         0.8303 
  76   0.0000       0.039153         1.0654 
  77   0.0000       0.041033         1.1166 
  78   0.0000       0.042805         1.1648 
  79   0.0000       0.043238         1.1766 
  80   0.0000       0.044258         1.2043 
  81   0.0000       0.054019         1.4699 
  82   0.0000       0.056700         1.5429 
  83   0.0000       0.061244         1.6665 
  84   0.0000       0.063278         1.7219 
  85   0.0000       0.064306         1.7498 
  86   0.0000       0.064770         1.7625 
  87   0.0000       0.071840         1.9549 
  88   0.0000       0.077137         2.0990 
  89   0.0000       0.082029         2.2321 
  90   0.0000       0.089821         2.4442 
  91   0.0000       0.091987         2.5031 
  92   0.0000       0.093994         2.5577 
  93   0.0000       0.095824         2.6075 
  94   0.0000       0.100910         2.7459 
  95   0.0000       0.103220         2.8087 
  96   0.0000       0.104329         2.8389 
  97   0.0000       0.106821         2.9067 
  98   0.0000       0.107312         2.9201 
  99   0.0000       0.109542         2.9808 
 100   0.0000       0.111893         3.0448 
 101   0.0000       0.114750         3.1225 
 102   0.0000       0.119277         3.2457 
 103   0.0000       0.122484         3.3329 
 104   0.0000       0.123985         3.3738 
 105   0.0000       0.125673         3.4197 
 106   0.0000       0.127492         3.4692 
 107   0.0000       0.129181         3.5152 
 108   0.0000       0.132173         3.5966 
 109   0.0000       0.134129         3.6498 
 110   0.0000       0.137219         3.7339 
 111   0.0000       0.138870         3.7789 
 112   0.0000       0.144393         3.9291 
 113   0.0000       0.146502         3.9865 
 114   0.0000       0.151828         4.1315 
 115   0.0000       0.152184         4.1411 
 116   0.0000       0.156359         4.2547 
 117   0.0000       0.162481         4.4213 
 118   0.0000       0.162894         4.4326 
 119   0.0000       0.167452         4.5566 
 120   0.0000       0.170794         4.6475 
 121   0.0000       0.172842         4.7033 
 122   0.0000       0.175766         4.7828 
 123   0.0000       0.181192         4.9305 
 124   0.0000       0.183454         4.9920 
 125   0.0000       0.187199         5.0939 
 126   0.0000       0.187611         5.1052 
 127   0.0000       0.192699         5.2436 
 128   0.0000       0.197834         5.3833 
 129   0.0000       0.198835         5.4106 
 130   0.0000       0.199403         5.4260 
 131   0.0000       0.202560         5.5119 
 132   0.0000       0.205406         5.5894 
 133   0.0000       0.209144         5.6911 
 134   0.0000       0.216349         5.8871 
 135   0.0000       0.218587         5.9481 
 136   0.0000       0.224046         6.0966 
 137   0.0000       0.227874         6.2008 
 138   0.0000       0.229601         6.2477 
 139   0.0000       0.233559         6.3555 
 140   0.0000       0.236289         6.4297 
 141   0.0000       0.241025         6.5586 
 142   0.0000       0.241679         6.5764 
 143   0.0000       0.247021         6.7218 
 144   0.0000       0.250734         6.8228 
 145   0.0000       0.251477         6.8430 
 146   0.0000       0.254142         6.9156 
 147   0.0000       0.259907         7.0724 
 148   0.0000       0.260468         7.0877 
 149   0.0000       0.266789         7.2597 
 150   0.0000       0.272669         7.4197 
 151   0.0000       0.273849         7.4518 
 152   0.0000       0.277966         7.5638 
 153   0.0000       0.282283         7.6813 
 154   0.0000       0.286496         7.7959 
 155   0.0000       0.292647         7.9633 
 156   0.0000       0.293359         7.9827 
 157   0.0000       0.297511         8.0957 
 158   0.0000       0.299544         8.1510 
 159   0.0000       0.307824         8.3763 
 160   0.0000       0.309736         8.4283 
 161   0.0000       0.318006         8.6534 
 162   0.0000       0.321650         8.7525 
 163   0.0000       0.322413         8.7733 
 164   0.0000       0.329877         8.9764 
 165   0.0000       0.332287         9.0420 
 166   0.0000       0.335974         9.1423 
 167   0.0000       0.341092         9.2816 
 168   0.0000       0.342893         9.3306 
 169   0.0000       0.345478         9.4009 
 170   0.0000       0.350251         9.5308 
 171   0.0000       0.354222         9.6389 
 172   0.0000       0.359272         9.7763 
 173   0.0000       0.361076         9.8254 
 174   0.0000       0.364127         9.9084 
 175   0.0000       0.367061         9.9882 
 176   0.0000       0.368331        10.0228 
 177   0.0000       0.376680        10.2500 
 178   0.0000       0.378981        10.3126 
 179   0.0000       0.382941        10.4203 
 180   0.0000       0.385476        10.4893 
 181   0.0000       0.386701        10.5227 
 182   0.0000       0.390465        10.6251 
 183   0.0000       0.393837        10.7168 
 184   0.0000       0.395457        10.7609 
 185   0.0000       0.396239        10.7822 
 186   0.0000       0.399236        10.8638 
 187   0.0000       0.403013        10.9665 
 188   0.0000       0.404810        11.0154 
 189   0.0000       0.408477        11.1152 
 190   0.0000       0.412117        11.2143 
 191   0.0000       0.416876        11.3438 
 192   0.0000       0.421376        11.4662 
 193   0.0000       0.424715        11.5571 
 194   0.0000       0.429091        11.6762 
 195   0.0000       0.434818        11.8320 
 196   0.0000       0.438662        11.9366 
 197   0.0000       0.442716        12.0469 
 198   0.0000       0.446472        12.1491 
 199   0.0000       0.450567        12.2605 
 200   0.0000       0.453436        12.3386 
 201   0.0000       0.457202        12.4411 
 202   0.0000       0.460180        12.5221 
 203   0.0000       0.462101        12.5744 
 204   0.0000       0.463917        12.6238 
 205   0.0000       0.467391        12.7184 
 206   0.0000       0.476924        12.9778 
 207   0.0000       0.477954        13.0058 
 208   0.0000       0.479681        13.0528 
 209   0.0000       0.483837        13.1659 
 210   0.0000       0.488000        13.2792 
 211   0.0000       0.494821        13.4648 
 212   0.0000       0.497182        13.5290 
 213   0.0000       0.498837        13.5740 
 214   0.0000       0.500485        13.6189 
 215   0.0000       0.504829        13.7371 
 216   0.0000       0.507257        13.8032 
 217   0.0000       0.509474        13.8635 
 218   0.0000       0.514550        14.0016 
 219   0.0000       0.517509        14.0821 
 220   0.0000       0.519849        14.1458 
 221   0.0000       0.522723        14.2240 
 222   0.0000       0.527004        14.3405 
 223   0.0000       0.527989        14.3673 
 224   0.0000       0.529327        14.4037 
 225   0.0000       0.533058        14.5052 
 226   0.0000       0.537103        14.6153 
 227   0.0000       0.539520        14.6811 
 228   0.0000       0.542415        14.7598 
 229   0.0000       0.545454        14.8426 
 230   0.0000       0.547040        14.8857 
 231   0.0000       0.552357        15.0304 
 232   0.0000       0.558175        15.1887 
 233   0.0000       0.560737        15.2584 
 234   0.0000       0.563087        15.3224 
 235   0.0000       0.567776        15.4500 
 236   0.0000       0.572787        15.5863 
 237   0.0000       0.576612        15.6904 
 238   0.0000       0.576812        15.6958 
 239   0.0000       0.583858        15.8876 
 240   0.0000       0.586109        15.9488 
 241   0.0000       0.587376        15.9833 
 242   0.0000       0.592378        16.1194 
 243   0.0000       0.594696        16.1825 
 244   0.0000       0.599982        16.3263 
 245   0.0000       0.604741        16.4558 
 246   0.0000       0.606328        16.4990 
 247   0.0000       0.616274        16.7697 
 248   0.0000       0.617497        16.8029 
 249   0.0000       0.618975        16.8432 
 250   0.0000       0.622360        16.9353 
 251   0.0000       0.627420        17.0730 
 252   0.0000       0.634778        17.2732 
 253   0.0000       0.635924        17.3044 
 254   0.0000       0.639008        17.3883 
 255   0.0000       0.642937        17.4952 
 256   0.0000       0.649501        17.6738 
 257   0.0000       0.651764        17.7354 
 258   0.0000       0.653949        17.7948 
 259   0.0000       0.656754        17.8712 
 260   0.0000       0.662157        18.0182 
 261   0.0000       0.667213        18.1558 
 262   0.0000       0.670562        18.2469 
 263   0.0000       0.674909        18.3652 
 264   0.0000       0.677916        18.4470 
 265   0.0000       0.680607        18.5203 
 266   0.0000       0.687001        18.6942 
 267   0.0000       0.690567        18.7913 
 268   0.0000       0.695366        18.9219 
 269   0.0000       0.698517        19.0076 
 270   0.0000       0.706640        19.2287 
 271   0.0000       0.709403        19.3038 
 272   0.0000       0.712806        19.3964 
 273   0.0000       0.719258        19.5720 
 274   0.0000       0.722157        19.6509 
 275   0.0000       0.726396        19.7662 
 276   0.0000       0.732748        19.9391 
 277   0.0000       0.736982        20.0543 
 278   0.0000       0.739220        20.1152 
 279   0.0000       0.744451        20.2575 
 280   0.0000       0.750314        20.4171 
 281   0.0000       0.751105        20.4386 
 282   0.0000       0.760414        20.6919 
 283   0.0000       0.762481        20.7482 
[...]
  | sigma^2 in % of trace(Dip) retained ...   1.69e+01
  | sigma^2 in % of trace(Dpq) retained ...   1.37e-01
  | Av. % of trace(Di) retained         ...  99.998568085985
  | Av. % of trace(Dp) retained         ...  99.999999777866
  | sigma^2 in % of trace(Di) retained  ...   6.62e-07
  | sigma^2 in % of trace(Dp) retained  ...   1.36e-13
 Distributions of % trace(Dij) recovered:
  |       >= 99.9  ...   105 ( 21.8 % of all IJ-pairs)
  |   [80.0, 90.0) ...    23 (  4.8 % of all IJ-pairs)
  |   [90.0, 99.0) ...   268 ( 55.7 % of all IJ-pairs)
  |   [99.0, 99.9) ...    85 ( 17.7 % of all IJ-pairs)
 Distributions of % trace(Dip) recovered:
  |   [80.0, 90.0) ...    14 ( 12.3 % of all IP-pairs)
  |   [90.0, 99.0) ...    55 ( 48.2 % of all IP-pairs)
  |   [99.0, 99.9) ...    45 ( 39.5 % of all IP-pairs)
 Distributions of % trace(Dpq) recovered:
  |       >= 99.9  ...     5 ( 33.3 % of all PQ-pairs)
  |   [99.0, 99.9) ...    10 ( 66.7 % of all PQ-pairs)
 Distributions of % trace(Di) recovered :
  |       >= 99.9  ...    43 (100.0 % of all I-pairs )
 Distributions of % trace(Dp) recovered :
  |       >= 99.9  ...     5 (100.0 % of all P-pairs )

                       ===========================
                       1058 OF 1675 PAIRS ARE KEPT
                       ===========================

 Initial PAO correlation energy (all pairs)    ...  -2.6841050066 Eh
 Energy constituents in PAO basis (Eh):
  | Vijab(+0) ...  -2.2567700138
  | Viab (-1) ...  -0.1741570005
  | Vab  (-2) ...  -0.0573329987
  | Va   (-1) ...  -0.0000451311
  | Vija (+1) ...  -0.0715097964
  | Vij  (+2) ...  -0.0155418362
  | Via  (+0) ...  -0.1085841801
  | Vi   (+1) ...  -0.0001640498
 Initial PNO correlation energy                ...  -2.6497465459 Eh
 Energy constituents in PNO basis (Eh):
  | Vijab(+0) ...  -2.2380059698 (err=  0.0187640440)
  | Viab (-1) ...  -0.1601497308 (err=  0.0140072697)
  | Vab  (-2) ...  -0.0568777490 (err=  0.0004552497)
  | Va   (-1) ...  -0.0000261591 (err=  0.0000189720)
  | Vija (+1) ...  -0.0705662688 (err=  0.0009435276)
  | Vij  (+2) ...  -0.0154891445 (err=  0.0000526918)
  | Via  (+0) ...  -0.1084680083 (err=  0.0001161718)
  | Vi   (+1) ...  -0.0001635156 (err=  0.0000005341)
 Sum of total truncation errors ...   0.0343584607 Eh
  | Pair screening ...   0.0120332573 Eh
  | PNO truncation ...   0.0223252034 Eh

 UMP2 correlation energy (PAO) ...  -2.6790329379
  | alpha-alpha ...  -0.3842521229 (NP_aa=  900)
  | alpha-beta  ...  -1.9900750251 (NP_ab= 1650)
  | beta -beta  ...  -0.3047057899 (NP_bb=  717)
 UMP2 correlation energy (PNO) ...  -2.6443065985
  | alpha-alpha ...  -0.3721876094 (err=  0.0120645135, NP_aa=  562)
  | alpha-beta  ...  -1.9715415019 (err=  0.0185335232, NP_ab= 1033)
  | beta -beta  ...  -0.3005774872 (err=  0.0041283027, NP_bb=  438)
 Sum of total UMP2 truncation errors ...   0.0347263394 Eh
  | Pair screening ...   0.0120392084 Eh
  | PNO truncation ...   0.0226871310 Eh
 Timing for NEV-PNO construction (sec.)
  | Intermediate construction  ..           38.901
  | Amplitude construction     ..           60.424
  | Total time                 ..           99.325
 Making pair pair interaction lists ...      ok
 Total size for 2-ext PNO integrals ...     10.6 MB
Checking the number of SOMO/SOMO doubles PNOs ... 
 #Truncate: (72, 72)[170] -> [85] .. 
 #Truncate: (73, 73)[172] -> [85] .. 
 #Truncate: (74, 74)[171] -> [85] .. 
 #Truncate: (75, 75)[172] -> [85] .. 
 #Truncate: (76, 76)[171] -> [85] .. 

--------------------------------
LOCAL RI TRANSFORMATION (VABPAO)
--------------------------------

Number of PAOs:    1030
Basis functions:   1025 (343 shells)
Aux. functions:    2424 (644 shells)

Processing maps (0.0 sec)
Average map sizes:
   Aux shells -> PAOs           1030.0
   PAOs       -> AO shells       343.0

Calculating integrals (219.0 sec, 37370.165 MB)
Finished
-----------------------------
LOCAL RI TRANSFORMATION (IJV)
-----------------------------

Orbital window:      29 to 76
Basis functions:   1025 (343 shells)
Aux. functions:    2424 (644 shells)

Processing maps (0.0 sec)
Average map sizes:
   Aux shells -> MOs(i)           46.5
   Aux shells -> MOs(j)           48.0
   MOs        -> AO shells       339.9

Calculating integrals (22.7 sec, 41.391 MB)
Sorting integrals (0.3 sec, 41.364 MB)
Total time for the integral transformation: 23.1 sec


-------------------------------------
Pair Pair Term precalculation with     
RI-(ij|mn) and (im|jn) transformation  
ON THE FLY                             
-------------------------------------

   IBatch   1 (of   2)              ... done ( 1182.178 sec)
   IBatch   2 (of   2)              ... done (  750.614 sec)
Total EXT                           ...        1932.793 sec

---------------------
RI-PNO TRANSFORMATION
---------------------

Total Number of PNOs                   ... 33046
Total Number of IJ-PNOs                ... 28949
Total Number of IP-PNOs                ...  3144
Total Number of PQ-PNOs                ...   953
Total Number of IJ-pairs               ...   919
Total Number of PI-pairs               ...   114
Total Number of PQ-pairs               ...    25
Average number of PNOs per pair        ...    31
Maximal number of PNOs per pair        ...    85
>> Statistics for ij-pairs..
   #pairs with  1 -  5 PNOs   :    0
   #pairs with  6 - 10 PNOs   :    0
   #pairs with 11 - 15 PNOs   :   78
   #pairs with 16 - 20 PNOs   :  194
   #pairs with 21 - 25 PNOs   :  158
   #pairs with 26 - 30 PNOs   :  140
   #pairs with 31 - 35 PNOs   :   60
   #pairs with 36 - 40 PNOs   :   58
   #pairs with 41 - 45 PNOs   :   46
   #pairs with 46 - 50 PNOs   :   18
   #pairs with 51 - 55 PNOs   :   32
   #pairs with 56 - 60 PNOs   :   55
   #pairs with 61 - 65 PNOs   :   75
   #pairs with 66 - 70 PNOs   :    3
   #pairs with 81 - 85 PNOs   :    2
>> Statistics for ip-pairs..
   #pairs with  1 -  5 PNOs   :    0
   #pairs with  6 - 10 PNOs   :    1
   #pairs with 11 - 15 PNOs   :   13
   #pairs with 16 - 20 PNOs   :    9
   #pairs with 21 - 25 PNOs   :   23
   #pairs with 26 - 30 PNOs   :   10
   #pairs with 31 - 35 PNOs   :   44
   #pairs with 36 - 40 PNOs   :   12
   #pairs with 41 - 45 PNOs   :    2
   #pairs with 46 - 50 PNOs   :    0
>> Statistics for pq-pairs..
   #pairs with  1 -  5 PNOs   :    0
   #pairs with  6 - 10 PNOs   :    0
   #pairs with 11 - 15 PNOs   :    0
   #pairs with 16 - 20 PNOs   :    0
   #pairs with 21 - 25 PNOs   :   10
   #pairs with 26 - 30 PNOs   :   10
   #pairs with 31 - 35 PNOs   :    0
   #pairs with 36 - 40 PNOs   :    0
   #pairs with 41 - 45 PNOs   :    0
   #pairs with 46 - 50 PNOs   :    0
   #pairs with 81 - 85 PNOs   :    5

Generation of (ij|ab)[P] integrals            ... on
Generation of (ia|bc)[P],(ja|bc)[P] integrals ... on
Storage of 3 and 4 external integrals         ... on
Generation of ALL (ka|bc)[P] integrals        ... on
Keep RI integrals in memory                   ... off

Ibatch:  1 (of  1)
Starting 2-4 index PNO integral generation ... done

Timings:
Total PNO integral transformation time     ...       1924.895 sec
Size of the 3-external file                ...       279 MB
Size of the 4-external file                ...      1902 MB
Size of the IKJL file                      ...        17 MB
Size of the all 3-external file            ...      6716 MB
Size of the 1-external file                ...        21 MB

Size of the PAO/PNO coefficient matrices   ...     209.4 MB

Making pair/pair overlap matrices          ... done (  287.792 sec)
Size of the pair overlap file              ...    2293.0 MB
Total # unrestricted pairs ...       2033
  # of alpha-alpha pairs   ...        562
  # of alpha-beta pairs    ...       1033
  # of beta-beta pairs     ...        438
Constructing the guess amplitudes          ... done (    0.573 sec)

-------------------------
FINAL STARTUP INFORMATION
-------------------------

E(0)                                       ...  -3028.462117279
E(SL-UMP2 in NEV-PNO space)                ...     -2.680004558
Initial E(tot)                             ...  -3031.142121838
<T|T>                                      ...      0.532905710
Number of unrestricted pairs included      ... 2033
Total number of pairs                      ... 4095
----------------------------------------------------------
                     OPEN-SHELL COUPLED CLUSTER ITERATIONS
----------------------------------------------------------

Number of PNO amplitudes to be optimized        ...          2038469
Number of canonical amplitudes for strong pairs ...       1836211325
Untruncated number of canonical amplitudes      ...       3698645738

Iter       E(tot)           E(Corr)          Delta-E          Residual     Time
  0  -3031.149361654     -2.651546415      0.028458144      0.020936950 1563.70
                           *** Turning on DIIS ***
  1  -3031.265105215     -2.767289976     -0.115743561      0.010309589 1798.24
  2  -3031.329989739     -2.832174499     -0.064884524      0.008372025 1777.80
  3  -3031.351945492     -2.854130253     -0.021955754      0.003266778 1754.62
  4  -3031.359587004     -2.861771765     -0.007641512      0.002647122 1780.13
  5  -3031.363783448     -2.865968208     -0.004196443      0.001516178 1813.10
  6  -3031.365329911     -2.867514671     -0.001546463      0.000762902 1791.40
  7  -3031.365986311     -2.868171071     -0.000656400      0.000489337 1779.12
  8  -3031.366131439     -2.868316199     -0.000145128      0.000235570 1771.44
  9  -3031.366191160     -2.868375920     -0.000059721      0.000137392 1761.54
 10  -3031.366192649     -2.868377410     -0.000001490      0.000085474 1760.98
 11  -3031.366205975     -2.868390735     -0.000013325      0.000063470 1777.34
 12  -3031.366210502     -2.868395263     -0.000004527      0.000034169 1787.26
 13  -3031.366212712     -2.868397472     -0.000002210      0.000018120 1791.25
 14  -3031.366214386     -2.868399146     -0.000001674      0.000010404 1818.47
 15  -3031.366213459     -2.868398220      0.000000927      0.000004625 1774.80
               --- The CCSD iterations have converged ---

E(0)                                       ...  -3028.462117279
E(CORR)(strong-pairs)                      ...     -2.868398220
E(CORR)(weak-pairs)                        ...     -0.035697960
E(CORR)(corrected)                         ...     -2.904096180
E(TOT)                                     ...  -3031.366213459
Singles norm <S|S>**1/2                    ...      0.195503624 ( 0.064734010, 0.130769615)  
T1 diagnostic                              ...      0.020494348                              
<S**2>(linearized)                         ...      8.7508455 (ideal value:      8.7500000)

----------------------
LARGEST PNO AMPLITUDES
----------------------
  46a-> 78a  46b-> 78b       0.055546
  49b-> 72b  -1b-> -1b       0.054664
  52b-> 73b  -1b-> -1b       0.054064
  51b-> 73b  -1b-> -1b       0.053922
  49b-> 76b  -1b-> -1b       0.047228
  49b-> 75b  -1b-> -1b       0.046440
  47a-> 78a  47b-> 78b       0.045260
  44a-> 77a  44b-> 77b       0.045147
  55a-> 77a  55b-> 77b       0.044141
  62a-> 77a  62b-> 77b       0.044025
  38b-> 74b  -1b-> -1b       0.044014
  42b-> 74b  -1b-> -1b       0.043701
  70a-> 77a  70b-> 77b       0.043657
  35b-> 72b  -1b-> -1b       0.043466
  64a-> 77a  64b-> 77b       0.043249
  56a-> 78a  56b-> 78b       0.042943

Total # unrestricted pairs ...       1234
  # of alpha-alpha pairs   ...        338
  # of alpha-beta pairs    ...        617
  # of beta-beta pairs     ...        279

-------------------------------------------
DLPNO BASED TRIPLES CORRECTION
-------------------------------------------

Singles multiplier          ...  1.000000
Fragment selection                          .... not used
TCutTNO                     ... 1.000e-09
TCutMP2Pairs                ... 1.000e-05
TCutDOStrong                ... 2.000e-02
TCutMKNStrong               ... 1.000e-02
TCutDOWeak                  ... 4.000e-02
TCutMKNWeak                 ... 1.000e-01
NTCutTNO                    ... 1

Number of Triples that are to be computed         ...     31736

 . . . . . . . . .
10% done  
20% done  
30% done  
40% done  
50% done  
60% done  
70% done  
80% done  
90% done  
          Batch   1   done (  13503.866 sec)

Triples-Correction TCutTNO=   1.000e-09 (NWeakPairs = 0  1  2  3)  -0.116384009842   -0.001813757103    0.000000000000    0.000000000000
Triples-Correction  -0.118197766945

Triples timings:
Total time                      ... 14085.178 sec

Triples List generation         ...     0.000 sec
TNO generation                  ...   581.047 sec
Pair density generation         ...     0.087 sec
Look up tables                  ...     0.110 sec
Generating 3-index integrals    ...  8087.562 sec
Make 4-ind.int. from 3-ind.int  ...     3.277 sec
Projecting amplitudes (D + S)   ...  5168.227 sec
Sorting integrals for spin cases...    50.250 sec
Calculate W0/W1                 ...   157.932 sec
Energy contr. (sum over a,b,c)  ...    36.500 sec

Everything after 3-index        ...  5533.643 sec

Energy contribution AAA         ...    24.212 sec
Energy contribution AAB         ...   108.547 sec
Energy contribution ABB         ...    98.526 sec
Energy contribution BBB         ...    13.435 sec
prep                ...     3.050 sec
makeTTNO            ...  5115.159 sec
copyij              ...     0.129 sec
copyil              ...     3.829 sec
transposeij         ...     0.076 sec
newMatInDoubleProj  ...    49.901 sec
BlasInDoubleProj    ...  2817.676 sec
ProjSingles         ...    43.653 sec
ProjDoubles         ...  5124.573 sec
overall Doubles for projection      ... 2813613
used Doubles for projection         ... 2813613


Number of Triples   (0, 1, 2, 3 weak pairs; overall):  14677   11562       0       0  ( 26239)
Number of Atoms     (0, 1, 2, 3 weak pairs; overall):   19.0    13.6     0.0     0.0  (    29)
Number of PAOs      (0, 1, 2, 3 weak pairs; overall):  747.2   553.1     0.0     0.0  (  1025)
Number of AuxFcns   (0, 1, 2, 3 weak pairs; overall):  847.6   568.5     0.0     0.0  (  2424)
Number of TNOs (0, 1, 2, 3 weak pairs         ):   78.6    55.7     0.0     0.0
Aver. Number of NTNO, Atoms, PAOs, AuxFcns / Triples:  26239    68.5    16.6   661.7   724.7

Triples Correction (T)                     ...     -0.118197767
    alpha-alpha-alpha ... -0.003779570 (  3.2%)
    alpha-alpha-beta  ... -0.055521088 ( 47.0%)
    alpha-beta -beta  ... -0.054856218 ( 46.4%)
    beta -beta -beta  ... -0.004040890 (  3.4%)
Final correlation energy                   ...     -3.022293947
E(CCSD)                                    ...  -3031.366213459
E(CCSD(T))                                 ...  -3031.484411226

----------------------------
STATISTICS FOR PAIR-ENERGIES
----------------------------
Minimum, maximum and average ratios of UMP and CCSD pair-energies ... 0.46, 1.45, 1.02


------------------------------------------------------------------------------- 
                                     TIMINGS                                   
------------------------------------------------------------------------------- 


Total execution time                   ...    50180.942 sec

Localization of occupied MO's          ...       10.024 sec (  0.0%)
Fock Matrix Formation                  ...     1326.260 sec (  2.6%)
Differential overlap integrals         ...        1.436 sec (  0.0%)
Organizing maps                        ...        1.619 sec (  0.0%)
RI 3-index integral generations        ...      305.067 sec (  0.6%)
RI-PNO integral transformation         ...     4369.988 sec (  8.7%)
Initial Guess                          ...     1858.638 sec (  3.7%)
DIIS Solver                            ...       17.544 sec (  0.0%)
State Vector Update                    ...        0.743 sec (  0.0%)
Sigma-vector construction              ...    28301.194 sec ( 56.4%)
  <0|H|D>                              ...        0.033 sec (  0.0% of sigma)
  <D|H|D>(0-ext)                       ...     5036.068 sec ( 17.8% of sigma)
  <D|H|D>(2-ext Fock)                  ...        1.607 sec (  0.0% of sigma)
  <D|H|D>(2-ext)                       ...     3748.866 sec ( 13.2% of sigma)
  <D|H|D>(4-ext)                       ...      184.634 sec (  0.7% of sigma)
  <D|H|D>(4-ext-corr)                  ...     1145.178 sec (  4.0% of sigma)
  CCSD doubles correction              ...      466.429 sec (  1.6% of sigma)
  <S|H|S>                              ...      744.642 sec (  2.6% of sigma)
  <S|H|D>(1-ext)                       ...      282.907 sec (  1.0% of sigma)
  <D|H|S>(1-ext)                       ...        0.674 sec (  0.0% of sigma)
  <S|H|D>(3-ext)                       ...       23.655 sec (  0.1% of sigma)
  CCSD singles correction              ...        0.005 sec (  0.0% of sigma)
  Fock-dressing                        ...     8138.848 sec ( 28.8% of sigma)
  Singles amplitudes                   ...      122.262 sec (  0.4% of sigma)
  (ik|jl)-dressing                     ...     6773.098 sec ( 23.9% of sigma)
  (ij|ab),(ia|jb)-dressing             ...     1373.199 sec (  4.9% of sigma)
  Pair energies                        ...        0.124 sec (  0.0% of sigma)
Total Time for computing (T)           ...    14360.680 sec ( 28.6% of ALL)


-------------------------   --------------------
FINAL SINGLE POINT ENERGY     -3031.484411225963
-------------------------   --------------------


                            ***************************************
                            *     ORCA property calculations      *
                            ***************************************

                                    ---------------------
                                    Active property flags
                                    ---------------------
   (+) Dipole Moment


------------------------------------------------------------------------------
                       ORCA ELECTRIC PROPERTIES CALCULATION
------------------------------------------------------------------------------

Dipole Moment Calculation                       ... on
Quadrupole Moment Calculation                   ... off
Polarizability Calculation                      ... off
GBWName                                         ... simple-grid-260-280-b3lyp_d3bj-631gd-gas-singlepoint-DLPNO_CCSD_T1-NormalPNO-augtz-gas.gbw
Electron density file                           ... simple-grid-260-280-b3lyp_d3bj-631gd-gas-singlepoint-DLPNO_CCSD_T1-NormalPNO-augtz-gas.scfp.tmp
The origin for moment calculation is the CENTER OF MASS  = (-0.312913, -0.039241  0.015322)

-------------
DIPOLE MOMENT
-------------
                                X             Y             Z
Electronic contribution:    -43.24754      -4.48834       1.65054
Nuclear contribution   :     46.62400       5.84695      -2.28301
                        -----------------------------------------
Total Dipole Moment    :      3.37647       1.35861      -0.63247
                        -----------------------------------------
Magnitude (a.u.)       :      3.69410
Magnitude (Debye)      :      9.38965



--------------------
Rotational spectrum 
--------------------
 
Rotational constants in cm-1:     0.018883     0.010828     0.010196 
Rotational constants in MHz :   566.090987   324.614001   305.663728 

 Dipole components along the rotational axes: 
x,y,z [a.u.] :     3.369709    -1.357441    -0.669909 
x,y,z [Debye]:     8.565119    -3.450342    -1.702773 

 

Timings for individual modules:

Sum of individual times         ...    66550.812 sec (=1109.180 min)
GTO integral calculation        ...       13.365 sec (=   0.223 min)   0.0 %
SCF iterations                  ...    16338.849 sec (= 272.314 min)  24.6 %
MDCI module                     ...    50198.599 sec (= 836.643 min)  75.4 %
                             ****ORCA TERMINATED NORMALLY****
TOTAL RUN TIME: 0 days 18 hours 29 minutes 13 seconds 757 msec
