
                                 *****************
                                 * O   R   C   A *
                                 *****************

           --- An Ab Initio, DFT and Semiempirical electronic structure package ---

                  #######################################################
                  #                        -***-                        #
                  #          Department of theory and spectroscopy      #
                  #               Directorship: Frank Neese             #
                  #        Max Planck Institute fuer Kohlenforschung    #
                  #                Kaiser Wilhelm Platz 1               #
                  #                 D-45470 Muelheim/Ruhr               #
                  #                      Germany                        #
                  #                                                     #
                  #                  All rights reserved                #
                  #                        -***-                        #
                  #######################################################


                         Program Version 4.1.2  - RELEASE  -


 With contributions from (in alphabetic order):
   Daniel Aravena         : Magnetic Properties
   Michael Atanasov       : Ab Initio Ligand Field Theory
   Alexander A. Auer      : GIAO ZORA
   Ute Becker             : Parallelization
   Giovanni Bistoni       : ED, Open-shell LED
   Martin Brehm           : Molecular dynamics
   Dmytro Bykov           : SCF Hessian
   Vijay G. Chilkuri      : MRCI spin determinant printing
   Dipayan Datta          : RHF DLPNO-CCSD density
   Achintya Kumar Dutta   : EOM-CC, STEOM-CC
   Dmitry Ganyushin       : Spin-Orbit,Spin-Spin,Magnetic field MRCI
   Miquel Garcia          : C-PCM Hessian
   Yang Guo               : DLPNO-NEVPT2, CIM, IAO-localization
   Andreas Hansen         : Spin unrestricted coupled pair/coupled cluster methods
   Benjamin Helmich-Paris : CASSCF linear response (MC-RPA)
   Lee Huntington         : MR-EOM, pCC
   Robert Izsak           : Overlap fitted RIJCOSX, COSX-SCS-MP3, EOM
   Christian Kollmar      : KDIIS, OOCD, Brueckner-CCSD(T), CCSD density
   Simone Kossmann        : Meta GGA functionals, TD-DFT gradient, OOMP2, MP2 Hessian
   Martin Krupicka        : AUTO-CI
   Lucas Lang             : DCDCAS
   Dagmar Lenk            : GEPOL surface, SMD
   Dimitrios Liakos       : Extrapolation schemes; parallel MDCI
   Dimitrios Manganas     : ROCIS; embedding schemes
   Dimitrios Pantazis     : SARC Basis sets
   Taras Petrenko         : DFT Hessian,TD-DFT gradient, ASA, ECA, R-Raman, ABS, FL, XAS/XES, NRVS
   Peter Pinski           : DLPNO-MP2, DLPNO-MP2 Gradient
   Christoph Reimann      : Effective Core Potentials
   Marius Retegan         : Local ZFS, SOC
   Christoph Riplinger    : Optimizer, TS searches, QM/MM, DLPNO-CCSD(T), (RO)-DLPNO pert. Triples
   Tobias Risthaus        : Range-separated hybrids, TD-DFT gradient, RPA, STAB
   Michael Roemelt        : Restricted open shell CIS
   Masaaki Saitow         : Open-shell DLPNO
   Barbara Sandhoefer     : DKH picture change effects
   Avijit Sen             : IP-ROCIS
   Kantharuban Sivalingam : CASSCF convergence, NEVPT2, FIC-MRCI
   Bernardo de Souza      : ESD, SOC TD-DFT
   Georgi Stoychev        : AutoAux, RI-MP2 NMR
   Willem Van den Heuvel  : Paramagnetic NMR
   Boris Wezisla          : Elementary symmetry handling
   Frank Wennmohs         : Technical directorship


 We gratefully acknowledge several colleagues who have allowed us to
 interface, adapt or use parts of their codes:
   Stefan Grimme, W. Hujo, H. Kruse,             : VdW corrections, initial TS optimization,
                  C. Bannwarth                     DFT functionals, gCP, sTDA/sTD-DF
   Ed Valeev                                     : LibInt (2-el integral package), F12 methods
   Garnet Chan, S. Sharma, J. Yang, R. Olivares  : DMRG
   Ulf Ekstrom                                   : XCFun DFT Library
   Mihaly Kallay                                 : mrcc  (arbitrary order and MRCC methods)
   Andreas Klamt, Michael Diedenhofen            : otool_cosmo (COSMO solvation model)
   Jiri Pittner, Ondrej Demel                    : Mk-CCSD
   Frank Weinhold                                : gennbo (NPA and NBO analysis)
   Christopher J. Cramer and Donald G. Truhlar   : smd solvation model
   Lars Goerigk                                  : TD-DFT with DH, B97 family of functionals
   V. Asgeirsson, H. Jonsson                     : NEB implementation
   FAccTs GmbH                                   : IRC, NEB, NEB-TS, Multilevel


 Your calculation uses the libint2 library for the computation of 2-el integrals
 For citations please refer to: http://libint.valeyev.net

 This ORCA versions uses:
   CBLAS   interface :  Fast vector & matrix operations
   LAPACKE interface :  Fast linear algebra routines
   SCALAPACK package :  Parallel linear algebra routines


----- Orbital basis set information -----
Your calculation utilizes the basis: aug-cc-pVTZ 
    H, B-Ne : Obtained from the ccRepo (grant-hill.group.shef.ac.uk/ccrepo) Feb. 2017
              R. A. Kendall, T. H. Dunning, Jr., R. J. Harrison, J. Chem. Phys. 96, 6796 (1992)
         He : Obtained from the ccRepo (grant-hill.group.shef.ac.uk/ccrepo) Feb. 2017
              D. E. Woon, T. H. Dunning, Jr., J. Chem. Phys. 100, 2975 (1994)
  Li-Be, Na : Obtained from the ccRepo (grant-hill.group.shef.ac.uk/ccrepo) Feb. 2017
              B. P. Prascher, D. E. Woon, K. A. Peterson, T. H. Dunning, Jr., A. K. Wilson, Theor. Chem. Acc. 128, 69 (2011)
         Mg : Obtained from the Peterson Research Group Website (tyr0.chem.wsu.edu/~kipeters) Feb. 2017
              B. P. Prascher, D. E. Woon, K. A. Peterson, T. H. Dunning, Jr., A. K. Wilson, Theor. Chem. Acc. 128, 69 (2011)
      Al-Ar : Obtained from the ccRepo (grant-hill.group.shef.ac.uk/ccrepo) Feb. 2017
              D. E. Woon, T. H. Dunning, Jr., J. Chem. Phys. 98, 1358 (1993)
      Sc-Zn : Obtained from the ccRepo (grant-hill.group.shef.ac.uk/ccrepo) Feb. 2017
              N. B. Balabanov, K. A. Peterson, J. Chem. Phys. 123, 064107 (2005)
              N. B. Balabanov, K. A. Peterson, J. Chem. Phys. 125, 074110 (2006)
      Ga-Kr : Obtained from the ccRepo (grant-hill.group.shef.ac.uk/ccrepo) Feb. 2017
              A. K. Wilson, D. E. Woon, K. A. Peterson, T. H. Dunning, Jr., J. Chem. Phys. 110, 7667 (1999)
     Ag, Au : Obtained from the Peterson Research Group Website (tyr0.chem.wsu.edu/~kipeters) Feb. 2017
              K. A. Peterson, C. Puzzarini, Theor. Chem. Acc. 114, 283 (2005)

----- AuxJ basis set information -----
Your calculation utilizes the AutoAux generation procedure.
  G. L. Stoychev, A. A. Auer, F. Neese, J. Chem. Theory Comput. 13, 554 (2017)

----- AuxC basis set information -----
Your calculation utilizes the auxiliary basis: aug-cc-pVTZ/C 
  H-He, B-F, Al-Ar, Ga-Kr : Obtained from the EMSL Basis Set Exchange (bse.pnl.gov) Feb. 2017
                            F. Weigend, A. Kohn, C. Hattig, J. Chem. Phys. 116, 3175 (2002)
                   Be, Mg : Obtained from the TURBOMOLE 7.0 basis set library
                            C. Haettig, Phys. Chem. Chem. Phys. 7, 59 (2005)
                       Ne : Obtained from the EMSL Basis Set Exchange (bse.pnl.gov) Feb. 2017
                            C. Haettig, Phys. Chem. Chem. Phys. 7, 59 (2005)
                            F. Weigend, A. Kohn, C. Hattig, J. Chem. Phys. 116, 3175 (2002)
                    Sc-Zn : Obtained from the EMSL Basis Set Exchange (bse.pnl.gov) Feb. 2017
                            J. G. Hill, J. A. Platts, J. Chem. Phys. 128, 044104 (2008)

----- AuxJK basis set information -----
Your calculation utilizes the AutoAux generation procedure.
  G. L. Stoychev, A. A. Auer, F. Neese, J. Chem. Theory Comput. 13, 554 (2017)

================================================================================
                                        WARNINGS
                       Please study these warnings very carefully!
================================================================================


WARNING: your system is open-shell and RHF/RKS was chosen
  ===> : WILL SWITCH to UHF/UKS


WARNING: MDCI localization with Augmented Hessian Foster-Boys
  ===> : Switching off randomization!

WARNING: Post HF methods need fully converged wavefunctions
  ===> : Setting SCFConvForced true
         You can overwrite this default with %scf ConvForced false 


INFO   : the flag for use of LIBINT has been found!

================================================================================
                                       INPUT FILE
================================================================================
NAME = simple-grid-215-245-b3lyp_d3bj-631gd-gas-singlepoint-DLPNO_CCSD_T1-NormalPNO-augtz-gas.inp
|  1> ! aug-cc-pVTZ aug-cc-pVTZ/C DLPNO-CCSD(T1) TightSCF NormalPNO UNO MiniPrint AutoAux
|  2> %pal nproc 10 end
|  3> %maxcore 20000
|  4> %mdci
|  5>      density none
|  6> end
|  7> 
|  8> * xyz 0 6
|  9>  O     -0.31763300     -0.14385900     -0.70482800
| 10>  C     -1.21833300     -1.06576300     -0.59947800
| 11>  C     -2.96287900     -0.15230400      0.26345400
| 12>  C     -2.39994900      1.02420900     -0.15521100
| 13>  C     -2.61194000      1.56362500     -1.53215300
| 14> Fe      1.42918300      0.09191200      0.02521300
| 15> Cl      2.04594700      2.04843500     -0.74573700
| 16>  C     -1.56118700      1.88319000      0.73051000
| 17> Cl      2.54837600     -1.64289700     -0.72368100
| 18> Cl      1.23590200      0.05525100      2.22991400
| 19>  H     -3.68289800     -0.61317200     -0.40931500
| 20>  H     -2.20542700      2.68251100      1.12667300
| 21>  H     -1.12935100      1.35272300      1.57817100
| 22>  H     -0.75788400      2.36591400      0.16613800
| 23>  H     -2.94277300      2.60713800     -1.45773200
| 24>  H     -1.65519600      1.57869100     -2.06927800
| 25>  H     -3.35470800      1.00530900     -2.10538900
| 26>  C     -3.10974300     -0.53850700      1.71674200
| 27>  H     -3.96203600      0.00056800      2.15008100
| 28>  H     -3.31463000     -1.60580600      1.82892200
| 29>  H     -2.22963500     -0.29620100      2.31636400
| 30>  C     -1.00458500     -2.14470200      0.43345500
| 31>  H     -1.86422700     -2.80921700      0.53038300
| 32>  H     -0.15291200     -2.73190100      0.06068600
| 33>  H     -0.71697900     -1.73962600      1.40315700
| 34>  C     -1.80445100     -1.54203100     -1.91105600
| 35>  H     -1.01387600     -2.14265100     -2.38071400
| 36>  H     -2.68317000     -2.17538100     -1.77448100
| 37>  H     -2.02742700     -0.71743700     -2.58658300
| 38> *
| 39> 
| 40> 
| 41>                          ****END OF INPUT****
================================================================================

                       ****************************
                       * Single Point Calculation *
                       ****************************

---------------------------------
CARTESIAN COORDINATES (ANGSTROEM)
---------------------------------
  O     -0.317633   -0.143859   -0.704828
  C     -1.218333   -1.065763   -0.599478
  C     -2.962879   -0.152304    0.263454
  C     -2.399949    1.024209   -0.155211
  C     -2.611940    1.563625   -1.532153
  Fe     1.429183    0.091912    0.025213
  Cl     2.045947    2.048435   -0.745737
  C     -1.561187    1.883190    0.730510
  Cl     2.548376   -1.642897   -0.723681
  Cl     1.235902    0.055251    2.229914
  H     -3.682898   -0.613172   -0.409315
  H     -2.205427    2.682511    1.126673
  H     -1.129351    1.352723    1.578171
  H     -0.757884    2.365914    0.166138
  H     -2.942773    2.607138   -1.457732
  H     -1.655196    1.578691   -2.069278
  H     -3.354708    1.005309   -2.105389
  C     -3.109743   -0.538507    1.716742
  H     -3.962036    0.000568    2.150081
  H     -3.314630   -1.605806    1.828922
  H     -2.229635   -0.296201    2.316364
  C     -1.004585   -2.144702    0.433455
  H     -1.864227   -2.809217    0.530383
  H     -0.152912   -2.731901    0.060686
  H     -0.716979   -1.739626    1.403157
  C     -1.804451   -1.542031   -1.911056
  H     -1.013876   -2.142651   -2.380714
  H     -2.683170   -2.175381   -1.774481
  H     -2.027427   -0.717437   -2.586583

----------------------------
CARTESIAN COORDINATES (A.U.)
----------------------------
  NO LB      ZA    FRAG     MASS         X           Y           Z
   0 O     8.0000    0    15.999   -0.600239   -0.271854   -1.331932
   1 C     6.0000    0    12.011   -2.302316   -2.014000   -1.132849
   2 C     6.0000    0    12.011   -5.599030   -0.287813    0.497856
   3 C     6.0000    0    12.011   -4.535246    1.935475   -0.293306
   4 C     6.0000    0    12.011   -4.935851    2.954823   -2.895350
   5 Fe   26.0000    0    55.850    2.700764    0.173689    0.047646
   6 Cl   17.0000    0    35.453    3.866280    3.870981   -1.409239
   7 C     6.0000    0    12.011   -2.950216    3.558713    1.380464
   8 Cl   17.0000    0    35.453    4.815733   -3.104625   -1.367559
   9 Cl   17.0000    0    35.453    2.335516    0.104409    4.213927
  10 H     1.0000    0     1.008   -6.959669   -1.158727   -0.773493
  11 H     1.0000    0     1.008   -4.167653    5.069211    2.129103
  12 H     1.0000    0     1.008   -2.134164    2.556276    2.982311
  13 H     1.0000    0     1.008   -1.432193    4.470930    0.313955
  14 H     1.0000    0     1.008   -5.561035    4.926777   -2.754714
  15 H     1.0000    0     1.008   -3.127867    2.983294   -3.910369
  16 H     1.0000    0     1.008   -6.339479    1.899759   -3.978609
  17 C     6.0000    0    12.011   -5.876563   -1.017631    3.244172
  18 H     1.0000    0     1.008   -7.487163    0.001073    4.063064
  19 H     1.0000    0     1.008   -6.263743   -3.034534    3.456162
  20 H     1.0000    0     1.008   -4.213400   -0.559739    4.377294
  21 C     6.0000    0    12.011   -1.898391   -4.052899    0.819111
  22 H     1.0000    0     1.008   -3.522878   -5.308651    1.002279
  23 H     1.0000    0     1.008   -0.288962   -5.162545    0.114680
  24 H     1.0000    0     1.008   -1.354894   -3.287417    2.651582
  25 C     6.0000    0    12.011   -3.409918   -2.914016   -3.611372
  26 H     1.0000    0     1.008   -1.915948   -4.049024   -4.498897
  27 H     1.0000    0     1.008   -5.070456   -4.110874   -3.353283
  28 H     1.0000    0     1.008   -3.831282   -1.355759   -4.887933



           ************************************************************
           *        Program running with 10 parallel MPI-processes    *
           *              working on a common directory               *
           ************************************************************


           ************************************************************
           *        Program running with 10 parallel MPI-processes    *
           *              working on a common directory               *
           ************************************************************

Diagonalization of the overlap matrix:
Smallest eigenvalue                        ... 6.368e-07
Time for diagonalization                   ...    0.336 sec
Threshold for overlap eigenvalues          ... 1.000e-08
Number of eigenvalues below threshold      ... 0
Time for construction of square roots      ...    0.282 sec
Total time needed                          ...    0.622 sec

-------------------
DFT GRID GENERATION
-------------------

General Integration Accuracy     IntAcc      ...  4.340
Radial Grid Type                 RadialGrid  ... Gauss-Chebyshev
Angular Grid (max. acc.)         AngularGrid ... Lebedev-110
Angular grid pruning method      GridPruning ... 3 (G Style)
Weight generation scheme         WeightScheme... Becke
Basis function cutoff            BFCut       ...    1.0000e-11
Integration weight cutoff        WCut        ...    1.0000e-14
Grids for H and He will be reduced by one unit

# of grid points (after initial pruning)     ...  36112 (   0.0 sec)
# of grid points (after weights+screening)   ...  32323 (   0.1 sec)
nearest neighbour list constructed           ...    0.0 sec
Grid point re-assignment to atoms done       ...    0.0 sec
Grid point division into batches done        ...    0.0 sec
Reduced shell lists constructed in    0.2 sec

Total number of grid points                  ...    32323
Total number of batches                      ...      519
Average number of points per batch           ...       62
Average number of grid points per atom       ...     1115
Average number of shells per batch           ...   293.06 (85.44%)
Average number of basis functions per batch  ...   870.19 (84.90%)
Average number of large shells per batch     ...   240.49 (82.06%)
Average number of large basis fcns per batch ...   714.60 (82.12%)
Maximum spatial batch extension              ...   2.97,  3.34,  4.36 au
Average spatial batch extension              ...   0.18,  0.17,  0.18 au

Time for grid setup =    0.336 sec

Loading Hartree-Fock densities                     ... done
Calculating cut-offs                               ... done
Setting up the integral package                    ... done
Initializing the effective Hamiltonian             ... done
Starting the Coulomb interaction                   ... done (   1.1 sec)
Reading the grid                                   ... done
Mapping shells                                     ... done
Starting the XC term evaluation                    ... done (   0.8 sec)
Transforming the Hamiltonian                       ... done (   0.2 sec)
Diagonalizing the Hamiltonian                      ... done (   0.3 sec)
Back transforming the eigenvectors                 ... done (   0.1 sec)
Now organizing SCF variables                       ... done
--------------
SCF ITERATIONS
--------------
ITER       Energy         Delta-E        Max-DP      RMS-DP      [F,P]     Damp
               ***  Starting incremental Fock matrix formation  ***
  0  -3027.5730745676   0.000000000000 0.21064291  0.00114560  0.2697542 0.7000
  1  -3027.8220504356  -0.248975868063 0.15607214  0.00089161  0.1625997 0.7000
                               ***Turning on DIIS***
  2  -3027.9893857807  -0.167335345101 0.11164722  0.00065513  0.1093467 0.7000
  3  -3029.6360012914  -1.646615510626 0.25904462  0.00163349  0.0820079 0.0000
  4  -3028.2921338744   1.343867416996 0.04551255  0.00022645  0.0197721 0.0000
  5  -3028.4114188267  -0.119284952346 0.03934523  0.00017314  0.0117606 0.0000
  6  -3028.4470671171  -0.035648290352 0.02031637  0.00007110  0.0053981 0.0000
  7  -3028.4607343958  -0.013667278781 0.00896320  0.00003202  0.0034049 0.0000
  8  -3028.4544470189   0.006287376951 0.00586172  0.00001853  0.0014344 0.0000
  9  -3028.4469169470   0.007530071901 0.00225726  0.00001062  0.0007384 0.0000
 10  -3028.4355507161   0.011366230925 0.00095472  0.00000325  0.0004238 0.0000
 11  -3028.4416758144  -0.006125098383 0.00032525  0.00000183  0.0000697 0.0000
 12  -3028.4394027295   0.002273084933 0.00052524  0.00000160  0.0000240 0.0000
 13  -3028.4394339365  -0.000031207017 0.00137710  0.00000267  0.0000099 0.0000
 14  -3028.4394775196  -0.000043583044 0.00086020  0.00000227  0.0000059 0.0000
 15  -3028.4394203552   0.000057164349 0.00091679  0.00000218  0.0000030 0.0000
 16  -3028.4394422702  -0.000021915002 0.00110467  0.00000254  0.0000018 0.0000
 17  -3028.4394576129  -0.000015342690 0.00120338  0.00000249  0.0000015 0.0000
 18  -3028.4394400249   0.000017588021 0.00255436  0.00000480  0.0000014 0.0000
 19  -3028.4394487525  -0.000008727571 0.00139830  0.00000335  0.0000012 0.0000
               *** Restarting incremental Fock matrix formation ***
                                   *** Resetting DIIS ***
                            ***DIIS convergence achieved***

               *****************************************************
               *                     SUCCESS                       *
               *           SCF CONVERGED AFTER  20 CYCLES          *
               *****************************************************

Total Energy       :        -3028.43944825 Eh          -82408.02693 eV
  Last Energy change         ...    5.0482e-07  Tolerance :   1.0000e-08
  Last MAX-Density change    ...    9.0788e-03  Tolerance :   1.0000e-07
             **** THE GBW FILE WAS UPDATED (simple-grid-215-245-b3lyp_d3bj-631gd-gas-singlepoint-DLPNO_CCSD_T1-NormalPNO-augtz-gas.gbw) ****
             **** DENSITY FILE WAS UPDATED (simple-grid-215-245-b3lyp_d3bj-631gd-gas-singlepoint-DLPNO_CCSD_T1-NormalPNO-augtz-gas.scfp.tmp) ****
             **** ENERGY FILE WAS UPDATED (simple-grid-215-245-b3lyp_d3bj-631gd-gas-singlepoint-DLPNO_CCSD_T1-NormalPNO-augtz-gas.en.tmp) ****
----------------------
UHF SPIN CONTAMINATION
----------------------

Expectation value of <S**2>     :     8.764486
Ideal value S*(S+1) for S=2.5   :     8.750000
Deviation                       :     0.014486

----------------
ORBITAL ENERGIES
----------------
                 SPIN UP ORBITALS
  NO   OCC          E(Eh)            E(eV) 
   0   1.0000    -261.561010     -7117.4369 
   1   1.0000    -104.783662     -2851.3084 
   2   1.0000    -104.780208     -2851.2144 
   3   1.0000    -104.780102     -2851.2115 
   4   1.0000     -32.228852      -876.9917 
   5   1.0000     -27.705002      -753.8914 
   6   1.0000     -27.704392      -753.8748 
   7   1.0000     -27.704213      -753.8700 
   8   1.0000     -20.576120      -559.9047 
   9   1.0000     -11.407336      -310.4094 
  10   1.0000     -11.322747      -308.1076 
  11   1.0000     -11.266224      -306.5695 
  12   1.0000     -11.265607      -306.5527 
  13   1.0000     -11.261655      -306.4452 
  14   1.0000     -11.258812      -306.3679 
  15   1.0000     -11.252007      -306.1827 
  16   1.0000     -11.248655      -306.0915 
  17   1.0000     -10.510309      -286.0000 
  18   1.0000     -10.506830      -285.9054 
  19   1.0000     -10.506687      -285.9015 
  20   1.0000      -7.977179      -217.0701 
  21   1.0000      -7.976351      -217.0475 
  22   1.0000      -7.976316      -217.0466 
  23   1.0000      -7.973692      -216.9752 
  24   1.0000      -7.973492      -216.9698 
  25   1.0000      -7.972926      -216.9543 
  26   1.0000      -7.972852      -216.9523 
  27   1.0000      -7.972799      -216.9509 
  28   1.0000      -7.972729      -216.9490 
  29   1.0000      -4.584055      -124.7385 
  30   1.0000      -3.196871       -86.9913 
  31   1.0000      -3.195855       -86.9636 
  32   1.0000      -3.195508       -86.9542 
  33   1.0000      -1.424508       -38.7628 
  34   1.0000      -1.159229       -31.5442 
  35   1.0000      -1.089397       -29.6440 
  36   1.0000      -1.055358       -28.7177 
  37   1.0000      -1.049817       -28.5670 
  38   1.0000      -1.047494       -28.5038 
  39   1.0000      -1.036590       -28.2071 
  40   1.0000      -0.997723       -27.1494 
  41   1.0000      -0.981044       -26.6956 
  42   1.0000      -0.930419       -25.3180 
  43   1.0000      -0.918178       -24.9849 
  44   1.0000      -0.913335       -24.8531 
  45   1.0000      -0.913217       -24.8499 
  46   1.0000      -0.903685       -24.5905 
  47   1.0000      -0.903207       -24.5775 
  48   1.0000      -0.794925       -21.6310 
  49   1.0000      -0.753129       -20.4937 
  50   1.0000      -0.694260       -18.8918 
  51   1.0000      -0.690956       -18.8019 
  52   1.0000      -0.682857       -18.5815 
  53   1.0000      -0.666533       -18.1373 
  54   1.0000      -0.641748       -17.4629 
  55   1.0000      -0.621699       -16.9173 
  56   1.0000      -0.603548       -16.4234 
  57   1.0000      -0.596093       -16.2205 
  58   1.0000      -0.583438       -15.8762 
  59   1.0000      -0.574013       -15.6197 
  60   1.0000      -0.570648       -15.5281 
  61   1.0000      -0.561590       -15.2816 
  62   1.0000      -0.554733       -15.0951 
  63   1.0000      -0.549158       -14.9433 
  64   1.0000      -0.542891       -14.7728 
  65   1.0000      -0.521273       -14.1846 
  66   1.0000      -0.516716       -14.0606 
  67   1.0000      -0.485993       -13.2245 
  68   1.0000      -0.468147       -12.7389 
  69   1.0000      -0.462254       -12.5786 
  70   1.0000      -0.435576       -11.8526 
  71   1.0000      -0.431361       -11.7379 
  72   1.0000      -0.429908       -11.6984 
  73   1.0000      -0.421175       -11.4608 
  74   1.0000      -0.419800       -11.4233 
  75   1.0000      -0.419176       -11.4064 
  76   1.0000      -0.376574       -10.2471 
  77   0.0000       0.010968         0.2985 
  78   0.0000       0.021283         0.5791 
  79   0.0000       0.022461         0.6112 
  80   0.0000       0.030090         0.8188 
  81   0.0000       0.037716         1.0263 
  82   0.0000       0.039413         1.0725 
  83   0.0000       0.042116         1.1460 
  84   0.0000       0.044468         1.2100 
  85   0.0000       0.044951         1.2232 
  86   0.0000       0.051416         1.3991 
  87   0.0000       0.056474         1.5367 
  88   0.0000       0.059487         1.6187 
  89   0.0000       0.063025         1.7150 
  90   0.0000       0.066264         1.8031 
  91   0.0000       0.066498         1.8095 
  92   0.0000       0.072835         1.9820 
  93   0.0000       0.074849         2.0368 
  94   0.0000       0.078890         2.1467 
  95   0.0000       0.090822         2.4714 
  96   0.0000       0.091048         2.4775 
  97   0.0000       0.093137         2.5344 
  98   0.0000       0.098085         2.6690 
  99   0.0000       0.100661         2.7391 
 100   0.0000       0.102101         2.7783 
 101   0.0000       0.109287         2.9738 
 102   0.0000       0.114533         3.1166 
 103   0.0000       0.121785         3.3139 
 104   0.0000       0.123158         3.3513 
 105   0.0000       0.126619         3.4455 
 106   0.0000       0.127100         3.4586 
 107   0.0000       0.128542         3.4978 
 108   0.0000       0.131276         3.5722 
 109   0.0000       0.134128         3.6498 
 110   0.0000       0.137948         3.7537 
 111   0.0000       0.139943         3.8081 
 112   0.0000       0.141435         3.8486 
 113   0.0000       0.145822         3.9680 
 114   0.0000       0.150065         4.0835 
 115   0.0000       0.152102         4.1389 
 116   0.0000       0.157674         4.2905 
 117   0.0000       0.160898         4.3783 
 118   0.0000       0.163596         4.4517 
 119   0.0000       0.165928         4.5151 
 120   0.0000       0.168576         4.5872 
 121   0.0000       0.170426         4.6375 
 122   0.0000       0.175438         4.7739 
 123   0.0000       0.176772         4.8102 
 124   0.0000       0.181003         4.9253 
 125   0.0000       0.187664         5.1066 
 126   0.0000       0.190755         5.1907 
 127   0.0000       0.191503         5.2111 
 128   0.0000       0.196114         5.3365 
 129   0.0000       0.200636         5.4596 
 130   0.0000       0.201660         5.4874 
 131   0.0000       0.203144         5.5278 
 132   0.0000       0.207035         5.6337 
 133   0.0000       0.207889         5.6570 
 134   0.0000       0.210452         5.7267 
 135   0.0000       0.215758         5.8711 
 136   0.0000       0.220094         5.9891 
 137   0.0000       0.224671         6.1136 
 138   0.0000       0.225902         6.1471 
 139   0.0000       0.231859         6.3092 
 140   0.0000       0.235822         6.4171 
 141   0.0000       0.236973         6.4484 
 142   0.0000       0.237913         6.4739 
 143   0.0000       0.244748         6.6599 
 144   0.0000       0.248144         6.7524 
 145   0.0000       0.249745         6.7959 
 146   0.0000       0.251651         6.8478 
 147   0.0000       0.252803         6.8791 
 148   0.0000       0.258911         7.0453 
 149   0.0000       0.264425         7.1954 
 150   0.0000       0.266340         7.2475 
 151   0.0000       0.271106         7.3772 
 152   0.0000       0.273304         7.4370 
 153   0.0000       0.278830         7.5874 
 154   0.0000       0.283127         7.7043 
 155   0.0000       0.286730         7.8023 
 156   0.0000       0.289321         7.8728 
 157   0.0000       0.294305         8.0084 
 158   0.0000       0.300079         8.1656 
 159   0.0000       0.305011         8.2998 
 160   0.0000       0.307891         8.3781 
 161   0.0000       0.315026         8.5723 
 162   0.0000       0.319012         8.6808 
 163   0.0000       0.320303         8.7159 
 164   0.0000       0.325095         8.8463 
 165   0.0000       0.328817         8.9476 
 166   0.0000       0.334182         9.0936 
 167   0.0000       0.338789         9.2189 
 168   0.0000       0.341507         9.2929 
 169   0.0000       0.345494         9.4014 
 170   0.0000       0.347792         9.4639 
 171   0.0000       0.352850         9.6015 
 172   0.0000       0.356634         9.7045 
 173   0.0000       0.360461         9.8086 
 174   0.0000       0.361483         9.8364 
 175   0.0000       0.365303         9.9404 
 176   0.0000       0.368716        10.0333 
 177   0.0000       0.371343        10.1048 
 178   0.0000       0.374276        10.1846 
 179   0.0000       0.379152        10.3172 
 180   0.0000       0.381258        10.3746 
 181   0.0000       0.383335        10.4311 
 182   0.0000       0.385100        10.4791 
 183   0.0000       0.389619        10.6021 
 184   0.0000       0.393163        10.6985 
 185   0.0000       0.394920        10.7463 
 186   0.0000       0.400536        10.8991 
 187   0.0000       0.402390        10.9496 
 188   0.0000       0.404152        10.9975 
 189   0.0000       0.409248        11.1362 
 190   0.0000       0.411890        11.2081 
 191   0.0000       0.415490        11.3060 
 192   0.0000       0.419113        11.4046 
 193   0.0000       0.426044        11.5933 
 194   0.0000       0.430582        11.7167 
 195   0.0000       0.432372        11.7654 
 196   0.0000       0.435781        11.8582 
 197   0.0000       0.439944        11.9715 
 198   0.0000       0.446669        12.1545 
 199   0.0000       0.447058        12.1651 
 200   0.0000       0.453813        12.3489 
 201   0.0000       0.456606        12.4249 
 202   0.0000       0.458429        12.4745 
 203   0.0000       0.460541        12.5320 
 204   0.0000       0.466367        12.6905 
 205   0.0000       0.469277        12.7697 
 206   0.0000       0.472917        12.8687 
 207   0.0000       0.473117        12.8742 
 208   0.0000       0.477148        12.9839 
 209   0.0000       0.482408        13.1270 
 210   0.0000       0.484871        13.1940 
 211   0.0000       0.486090        13.2272 
 212   0.0000       0.490212        13.3394 
 213   0.0000       0.495172        13.4743 
 214   0.0000       0.498010        13.5515 
 215   0.0000       0.500994        13.6327 
 216   0.0000       0.505030        13.7426 
 217   0.0000       0.507297        13.8043 
 218   0.0000       0.509090        13.8530 
 219   0.0000       0.513133        13.9631 
 220   0.0000       0.514999        14.0138 
 221   0.0000       0.519250        14.1295 
 222   0.0000       0.522261        14.2114 
 223   0.0000       0.525211        14.2917 
 224   0.0000       0.530231        14.4283 
 225   0.0000       0.532528        14.4908 
 226   0.0000       0.535320        14.5668 
 227   0.0000       0.540541        14.7089 
 228   0.0000       0.542814        14.7707 
 229   0.0000       0.546237        14.8639 
 230   0.0000       0.551723        15.0131 
 231   0.0000       0.553586        15.0638 
 232   0.0000       0.559193        15.2164 
 233   0.0000       0.562081        15.2950 
 234   0.0000       0.566870        15.4253 
 235   0.0000       0.570523        15.5247 
 236   0.0000       0.572610        15.5815 
 237   0.0000       0.577341        15.7103 
 238   0.0000       0.580381        15.7930 
 239   0.0000       0.583638        15.8816 
 240   0.0000       0.588354        16.0099 
 241   0.0000       0.595100        16.1935 
 242   0.0000       0.599417        16.3110 
 243   0.0000       0.602040        16.3823 
 244   0.0000       0.606022        16.4907 
 245   0.0000       0.606372        16.5002 
 246   0.0000       0.609886        16.5959 
 247   0.0000       0.614779        16.7290 
 248   0.0000       0.615877        16.7589 
 249   0.0000       0.622739        16.9456 
 250   0.0000       0.625559        17.0223 
 251   0.0000       0.633681        17.2433 
 252   0.0000       0.639154        17.3923 
 253   0.0000       0.640330        17.4243 
 254   0.0000       0.642137        17.4734 
 255   0.0000       0.647837        17.6286 
 256   0.0000       0.650095        17.6900 
 257   0.0000       0.651588        17.7306 
 258   0.0000       0.654872        17.8200 
 259   0.0000       0.656001        17.8507 
 260   0.0000       0.660033        17.9604 
 261   0.0000       0.663759        18.0618 
 262   0.0000       0.672020        18.2866 
 263   0.0000       0.676216        18.4008 
 264   0.0000       0.681933        18.5563 
 265   0.0000       0.685055        18.6413 
 266   0.0000       0.688697        18.7404 
 267   0.0000       0.690930        18.8012 
 268   0.0000       0.695167        18.9165 
 269   0.0000       0.700820        19.0703 
 270   0.0000       0.706386        19.2217 
 271   0.0000       0.713719        19.4213 
 272   0.0000       0.717384        19.5210 
 273   0.0000       0.722652        19.6644 
 274   0.0000       0.727120        19.7859 
 275   0.0000       0.727773        19.8037 
 276   0.0000       0.733155        19.9502 
 277   0.0000       0.738468        20.0947 
 278   0.0000       0.742424        20.2024 
 279   0.0000       0.744291        20.2532 
 280   0.0000       0.755509        20.5584 
 281   0.0000       0.756963        20.5980 
 282   0.0000       0.758268        20.6335 
 283   0.0000       0.764880        20.8134 
 284   0.0000       0.765751        20.8371 
 285   0.0000       0.780072        21.2268 
 286   0.0000       0.783269        21.3138 
 287   0.0000       0.790417        21.5083 
 288   0.0000       0.800477        21.7821 
 289   0.0000       0.808782        22.0081 
 290   0.0000       0.810948        22.0670 
 291   0.0000       0.819041        22.2872 
 292   0.0000       0.824083        22.4244 
 293   0.0000       0.826291        22.4845 
 294   0.0000       0.835304        22.7298 
 295   0.0000       0.837494        22.7894 
 296   0.0000       0.840659        22.8755 
 297   0.0000       0.850257        23.1367 
 298   0.0000       0.853476        23.2243 
 299   0.0000       0.859161        23.3790 
 300   0.0000       0.861369        23.4390 
 301   0.0000       0.869533        23.6612 
 302   0.0000       0.871785        23.7225 
 303   0.0000       0.876500        23.8508 
 304   0.0000       0.885681        24.1006 
 305   0.0000       0.887475        24.1494 
 306   0.0000       0.891764        24.2661 
 307   0.0000       0.898426        24.4474 
 308   0.0000       0.902670        24.5629 
 309   0.0000       0.905742        24.6465 
 310   0.0000       0.911255        24.7965 
 311   0.0000       0.914074        24.8732 
 312   0.0000       0.917079        24.9550 
 313   0.0000       0.921185        25.0667 
 314   0.0000       0.927900        25.2494 
 315   0.0000       0.929063        25.2811 
 316   0.0000       0.935361        25.4525 
 317   0.0000       0.937406        25.5081 
 318   0.0000       0.940248        25.5855 
 319   0.0000       0.944068        25.6894 
 320   0.0000       0.950960        25.8769 
 321   0.0000       0.955633        26.0041 
 322   0.0000       0.956219        26.0200 
 323   0.0000       0.960953        26.1489 
 324   0.0000       0.963946        26.2303 
 325   0.0000       0.966283        26.2939 
 326   0.0000       0.969639        26.3852 
 327   0.0000       0.975725        26.5508 
 328   0.0000       0.977373        26.5957 
 329   0.0000       0.978320        26.6214 
 330   0.0000       0.981873        26.7181 
 331   0.0000       0.987051        26.8590 
 332   0.0000       0.993748        27.0413 
 333   0.0000       0.999462        27.1967 
 334   0.0000       1.001730        27.2585 
 335   0.0000       1.003896        27.3174 
 336   0.0000       1.009528        27.4707 
 337   0.0000       1.014590        27.6084 
 338   0.0000       1.015729        27.6394 
 339   0.0000       1.018155        27.7054 
 340   0.0000       1.020416        27.7669 
 341   0.0000       1.023032        27.8381 
 342   0.0000       1.028586        27.9892 
 343   0.0000       1.032443        28.0942 
 344   0.0000       1.036720        28.2106 
 345   0.0000       1.040238        28.3063 
 346   0.0000       1.043566        28.3969 
 347   0.0000       1.047827        28.5128 
 348   0.0000       1.053052        28.6550 
 349   0.0000       1.055937        28.7335 
 350   0.0000       1.059249        28.8236 
 351   0.0000       1.065341        28.9894 
 352   0.0000       1.066947        29.0331 
 353   0.0000       1.069396        29.0997 
 354   0.0000       1.076512        29.2934 
 355   0.0000       1.078460        29.3464 
 356   0.0000       1.080758        29.4089 
 357   0.0000       1.082388        29.4533 
 358   0.0000       1.088398        29.6168 
 359   0.0000       1.094380        29.7796 
 360   0.0000       1.095276        29.8040 
 361   0.0000       1.099532        29.9198 
 362   0.0000       1.105642        30.0860 
 363   0.0000       1.106746        30.1161 
 364   0.0000       1.113729        30.3061 
 365   0.0000       1.120687        30.4954 
 366   0.0000       1.122352        30.5407 
 367   0.0000       1.125761        30.6335 
 368   0.0000       1.130199        30.7543 
 369   0.0000       1.136781        30.9334 
 370   0.0000       1.141109        31.0512 
 371   0.0000       1.145614        31.1738 
 372   0.0000       1.147218        31.2174 
 373   0.0000       1.153196        31.3801 
 374   0.0000       1.156673        31.4747 
 375   0.0000       1.160993        31.5922 
 376   0.0000       1.167138        31.7594 
 377   0.0000       1.170616        31.8541 
 378   0.0000       1.176262        32.0077 
 379   0.0000       1.181008        32.1369 
 380   0.0000       1.186448        32.2849 
 381   0.0000       1.189279        32.3619 
 382   0.0000       1.193461        32.4757 
 383   0.0000       1.196573        32.5604 
 384   0.0000       1.200990        32.6806 
 385   0.0000       1.205648        32.8074 
 386   0.0000       1.215344        33.0712 
 387   0.0000       1.218379        33.1538 
 388   0.0000       1.221159        33.2294 
 389   0.0000       1.229740        33.4629 
 390   0.0000       1.231759        33.5179 
 391   0.0000       1.240182        33.7471 
 392   0.0000       1.244558        33.8661 
 393   0.0000       1.246456        33.9178 
 394   0.0000       1.252417        34.0800 
 395   0.0000       1.253079        34.0980 
 396   0.0000       1.259932        34.2845 
 397   0.0000       1.265173        34.4271 
 398   0.0000       1.271027        34.5864 
 399   0.0000       1.275022        34.6951 
 400   0.0000       1.281673        34.8761 
 401   0.0000       1.287992        35.0481 
 402   0.0000       1.290198        35.1081 
 403   0.0000       1.292849        35.1802 
 404   0.0000       1.299158        35.3519 
 405   0.0000       1.311214        35.6799 
 406   0.0000       1.314094        35.7583 
 407   0.0000       1.317698        35.8564 
 408   0.0000       1.321917        35.9712 
 409   0.0000       1.326762        36.1030 
 410   0.0000       1.329965        36.1902 
 411   0.0000       1.332912        36.2704 
 412   0.0000       1.339582        36.4519 
 413   0.0000       1.348584        36.6968 
 414   0.0000       1.354281        36.8518 
 415   0.0000       1.356539        36.9133 
 416   0.0000       1.359877        37.0041 
 417   0.0000       1.361846        37.0577 
 418   0.0000       1.368775        37.2463 
 419   0.0000       1.377950        37.4959 
 420   0.0000       1.381442        37.5909 
 421   0.0000       1.386622        37.7319 
 422   0.0000       1.390200        37.8293 
 423   0.0000       1.398105        38.0444 
 424   0.0000       1.406817        38.2814 
 425   0.0000       1.411742        38.4155 
 426   0.0000       1.414255        38.4838 
 427   0.0000       1.421466        38.6801 
 428   0.0000       1.427505        38.8444 
 429   0.0000       1.436938        39.1011 
 430   0.0000       1.439091        39.1596 
 431   0.0000       1.442279        39.2464 
 432   0.0000       1.451262        39.4908 
 433   0.0000       1.453875        39.5620 
 434   0.0000       1.461346        39.7652 
 435   0.0000       1.466151        39.8960 
 436   0.0000       1.472535        40.0697 
 437   0.0000       1.477918        40.2162 
 438   0.0000       1.482568        40.3427 
 439   0.0000       1.485459        40.4214 
 440   0.0000       1.497183        40.7404 
 441   0.0000       1.499601        40.8062 
 442   0.0000       1.502507        40.8853 
 443   0.0000       1.504315        40.9345 
 444   0.0000       1.510618        41.1060 
 445   0.0000       1.514013        41.1984 
 446   0.0000       1.518158        41.3112 
 447   0.0000       1.521907        41.4132 
 448   0.0000       1.526853        41.5478 
 449   0.0000       1.534496        41.7558 
 450   0.0000       1.537330        41.8329 
 451   0.0000       1.546011        42.0691 
 452   0.0000       1.555580        42.3295 
 453   0.0000       1.559248        42.4293 
 454   0.0000       1.565461        42.5984 
 455   0.0000       1.568860        42.6908 
 456   0.0000       1.572187        42.7814 
 457   0.0000       1.578331        42.9486 
 458   0.0000       1.585357        43.1398 
 459   0.0000       1.590066        43.2679 
 460   0.0000       1.595437        43.4140 
 461   0.0000       1.597049        43.4579 
 462   0.0000       1.606305        43.7098 
 463   0.0000       1.607103        43.7315 
 464   0.0000       1.618811        44.0501 
 465   0.0000       1.622208        44.1425 
 466   0.0000       1.626470        44.2585 
 467   0.0000       1.633315        44.4448 
 468   0.0000       1.635903        44.5152 
 469   0.0000       1.642659        44.6990 
 470   0.0000       1.645812        44.7848 
 471   0.0000       1.653242        44.9870 
 472   0.0000       1.655690        45.0536 
 473   0.0000       1.665758        45.3276 
 474   0.0000       1.670151        45.4471 
 475   0.0000       1.675851        45.6022 
 476   0.0000       1.681037        45.7433 
 477   0.0000       1.684752        45.8444 
 478   0.0000       1.688531        45.9473 
 479   0.0000       1.692863        46.0652 
 480   0.0000       1.703132        46.3446 
 481   0.0000       1.704516        46.3822 
 482   0.0000       1.709177        46.5091 
 483   0.0000       1.715088        46.6699 
 484   0.0000       1.722261        46.8651 
 485   0.0000       1.727268        47.0013 
 486   0.0000       1.736336        47.2481 
 487   0.0000       1.741387        47.3855 
 488   0.0000       1.746722        47.5307 
 489   0.0000       1.751960        47.6733 
 490   0.0000       1.755790        47.7775 
 491   0.0000       1.758266        47.8449 
 492   0.0000       1.763403        47.9846 
 493   0.0000       1.768094        48.1123 
 494   0.0000       1.774581        48.2888 
 495   0.0000       1.776617        48.3442 
 496   0.0000       1.789473        48.6940 
 497   0.0000       1.792873        48.7866 
 498   0.0000       1.797981        48.9256 
 499   0.0000       1.802634        49.0522 
 500   0.0000       1.805034        49.1175 
 501   0.0000       1.813975        49.3608 
 502   0.0000       1.818236        49.4767 
 503   0.0000       1.820714        49.5441 
 504   0.0000       1.827251        49.7220 
 505   0.0000       1.834280        49.9133 
 506   0.0000       1.836104        49.9629 
 507   0.0000       1.844002        50.1778 
 508   0.0000       1.848905        50.3113 
 509   0.0000       1.852441        50.4075 
 510   0.0000       1.853890        50.4469 
 511   0.0000       1.861394        50.6511 
 512   0.0000       1.866012        50.7768 
 513   0.0000       1.874350        51.0036 
 514   0.0000       1.876306        51.0569 
 515   0.0000       1.885938        51.3190 
 516   0.0000       1.887509        51.3617 
 517   0.0000       1.890711        51.4489 
 518   0.0000       1.899058        51.6760 
 519   0.0000       1.903059        51.7849 
 520   0.0000       1.907506        51.9059 
 521   0.0000       1.913760        52.0761 
 522   0.0000       1.920165        52.2503 
 523   0.0000       1.930024        52.5186 
 524   0.0000       1.933116        52.6028 
 525   0.0000       1.937983        52.7352 
 526   0.0000       1.939803        52.7847 
 527   0.0000       1.947325        52.9894 
 528   0.0000       1.950984        53.0890 
 529   0.0000       1.953629        53.1610 
 530   0.0000       1.966456        53.5100 
 531   0.0000       1.967123        53.5281 
 532   0.0000       1.977653        53.8147 
 533   0.0000       1.978879        53.8480 
 534   0.0000       1.982517        53.9470 
 535   0.0000       1.991222        54.1839 
 536   0.0000       1.998220        54.3743 
 537   0.0000       2.005942        54.5845 
 538   0.0000       2.010854        54.7181 
 539   0.0000       2.022475        55.0343 
 540   0.0000       2.022952        55.0473 
 541   0.0000       2.030899        55.2636 
 542   0.0000       2.037513        55.4436 
 543   0.0000       2.039482        55.4971 
 544   0.0000       2.053986        55.8918 
 545   0.0000       2.064157        56.1686 
 546   0.0000       2.068093        56.2757 
 547   0.0000       2.071807        56.3767 
 548   0.0000       2.083193        56.6866 
 549   0.0000       2.084081        56.7107 
 550   0.0000       2.091317        56.9076 
 551   0.0000       2.097254        57.0692 
 552   0.0000       2.111323        57.4520 
 553   0.0000       2.116928        57.6045 
 554   0.0000       2.120674        57.7065 
 555   0.0000       2.125621        57.8411 
 556   0.0000       2.132658        58.0326 
 557   0.0000       2.136925        58.1487 
 558   0.0000       2.143598        58.3303 
 559   0.0000       2.153734        58.6061 
 560   0.0000       2.158082        58.7244 
 561   0.0000       2.163683        58.8768 
 562   0.0000       2.170455        59.0611 
 563   0.0000       2.176900        59.2365 
 564   0.0000       2.186867        59.5077 
 565   0.0000       2.191373        59.6303 
 566   0.0000       2.196233        59.7625 
 567   0.0000       2.206336        60.0375 
 568   0.0000       2.213497        60.2323 
 569   0.0000       2.218239        60.3613 
 570   0.0000       2.227675        60.6181 
 571   0.0000       2.236018        60.8451 
 572   0.0000       2.243029        61.0359 
 573   0.0000       2.245896        61.1139 
 574   0.0000       2.255954        61.3876 
 575   0.0000       2.259552        61.4855 
 576   0.0000       2.263487        61.5926 
 577   0.0000       2.270646        61.7874 
 578   0.0000       2.278850        62.0107 
 579   0.0000       2.286615        62.2220 
 580   0.0000       2.288858        62.2830 
 581   0.0000       2.298846        62.5548 
 582   0.0000       2.305993        62.7493 
 583   0.0000       2.317426        63.0604 
 584   0.0000       2.325669        63.2847 
 585   0.0000       2.335352        63.5482 
 586   0.0000       2.339855        63.6707 
 587   0.0000       2.347933        63.8905 
 588   0.0000       2.352362        64.0110 
 589   0.0000       2.368597        64.4528 
 590   0.0000       2.375696        64.6460 
 591   0.0000       2.388889        65.0050 
 592   0.0000       2.395218        65.1772 
 593   0.0000       2.399211        65.2859 
 594   0.0000       2.408747        65.5453 
 595   0.0000       2.416276        65.7502 
 596   0.0000       2.426218        66.0208 
 597   0.0000       2.430025        66.1243 
 598   0.0000       2.440364        66.4057 
 599   0.0000       2.452860        66.7457 
 600   0.0000       2.455690        66.8227 
 601   0.0000       2.465979        67.1027 
 602   0.0000       2.469912        67.2097 
 603   0.0000       2.482945        67.5644 
 604   0.0000       2.494622        67.8821 
 605   0.0000       2.504571        68.1528 
 606   0.0000       2.510079        68.3027 
 607   0.0000       2.518212        68.5240 
 608   0.0000       2.525347        68.7182 
 609   0.0000       2.543088        69.2009 
 610   0.0000       2.553199        69.4761 
 611   0.0000       2.560650        69.6788 
 612   0.0000       2.575390        70.0799 
 613   0.0000       2.584066        70.3160 
 614   0.0000       2.600337        70.7588 
 615   0.0000       2.604306        70.8668 
 616   0.0000       2.608109        70.9702 
 617   0.0000       2.616514        71.1990 
 618   0.0000       2.645223        71.9802 
 619   0.0000       2.658040        72.3289 
 620   0.0000       2.667358        72.5825 
 621   0.0000       2.669779        72.6484 
 622   0.0000       2.673952        72.7619 
 623   0.0000       2.681128        72.9572 
 624   0.0000       2.683234        73.0145 
 625   0.0000       2.701282        73.5056 
 626   0.0000       2.709528        73.7300 
 627   0.0000       2.716102        73.9089 
 628   0.0000       2.730503        74.3008 
 629   0.0000       2.739418        74.5434 
 630   0.0000       2.752952        74.9116 
 631   0.0000       2.755318        74.9760 
 632   0.0000       2.776786        75.5602 
 633   0.0000       2.781047        75.6761 
 634   0.0000       2.786372        75.8210 
 635   0.0000       2.795652        76.0736 
 636   0.0000       2.805230        76.3342 
 637   0.0000       2.818408        76.6928 
 638   0.0000       2.833664        77.1079 
 639   0.0000       2.848590        77.5141 
 640   0.0000       2.862674        77.8973 
 641   0.0000       2.875857        78.2561 
 642   0.0000       2.880053        78.3702 
 643   0.0000       2.895934        78.8024 
 644   0.0000       2.905716        79.0686 
 645   0.0000       2.920837        79.4800 
 646   0.0000       2.930167        79.7339 
 647   0.0000       2.937218        79.9258 
 648   0.0000       2.946229        80.1710 
 649   0.0000       2.962433        80.6119 
 650   0.0000       2.979822        81.0851 
 651   0.0000       2.986563        81.2685 
 652   0.0000       3.004300        81.7512 
 653   0.0000       3.035253        82.5934 
 654   0.0000       3.044133        82.8351 
 655   0.0000       3.059977        83.2662 
 656   0.0000       3.081541        83.8530 
 657   0.0000       3.091211        84.1161 
 658   0.0000       3.100322        84.3641 
 659   0.0000       3.108825        84.5954 
 660   0.0000       3.117632        84.8351 
 661   0.0000       3.129137        85.1481 
 662   0.0000       3.152125        85.7737 
 663   0.0000       3.164312        86.1053 
 664   0.0000       3.183747        86.6342 
 665   0.0000       3.190383        86.8147 
 666   0.0000       3.196955        86.9936 
 667   0.0000       3.214354        87.4670 
 668   0.0000       3.217058        87.5406 
 669   0.0000       3.237839        88.1061 
 670   0.0000       3.243132        88.2501 
 671   0.0000       3.251252        88.4711 
 672   0.0000       3.267203        88.9051 
 673   0.0000       3.270675        88.9996 
 674   0.0000       3.283378        89.3453 
 675   0.0000       3.287220        89.4498 
 676   0.0000       3.298478        89.7562 
 677   0.0000       3.301389        89.8354 
 678   0.0000       3.318300        90.2955 
 679   0.0000       3.321689        90.3878 
 680   0.0000       3.325691        90.4967 
 681   0.0000       3.337776        90.8255 
 682   0.0000       3.347428        91.0882 
 683   0.0000       3.359313        91.4116 
 684   0.0000       3.372567        91.7722 
 685   0.0000       3.374236        91.8176 
 686   0.0000       3.387080        92.1671 
 687   0.0000       3.394688        92.3741 
 688   0.0000       3.411585        92.8339 
 689   0.0000       3.416450        92.9663 
 690   0.0000       3.434566        93.4593 
 691   0.0000       3.442049        93.6629 
 692   0.0000       3.447221        93.8036 
 693   0.0000       3.455187        94.0204 
 694   0.0000       3.467338        94.3511 
 695   0.0000       3.476473        94.5996 
 696   0.0000       3.491140        94.9988 
 697   0.0000       3.494414        95.0879 
 698   0.0000       3.505144        95.3798 
 699   0.0000       3.506693        95.4220 
 700   0.0000       3.522771        95.8595 
 701   0.0000       3.524935        95.9184 
 702   0.0000       3.544429        96.4488 
 703   0.0000       3.546285        96.4993 
 704   0.0000       3.558570        96.8336 
 705   0.0000       3.559819        96.8676 
 706   0.0000       3.573860        97.2497 
 707   0.0000       3.576905        97.3325 
 708   0.0000       3.578591        97.3784 
 709   0.0000       3.590908        97.7136 
 710   0.0000       3.599435        97.9456 
 711   0.0000       3.603245        98.0493 
 712   0.0000       3.614172        98.3466 
 713   0.0000       3.631859        98.8279 
 714   0.0000       3.635614        98.9301 
 715   0.0000       3.651788        99.3702 
 716   0.0000       3.655100        99.4603 
 717   0.0000       3.660371        99.6038 
 718   0.0000       3.678889       100.1077 
 719   0.0000       3.682745       100.2126 
 720   0.0000       3.684499       100.2603 
 721   0.0000       3.691840       100.4601 
 722   0.0000       3.704059       100.7926 
 723   0.0000       3.705693       100.8370 
 724   0.0000       3.715614       101.1070 
 725   0.0000       3.722098       101.2834 
 726   0.0000       3.731542       101.5404 
 727   0.0000       3.741778       101.8190 
 728   0.0000       3.751485       102.0831 
 729   0.0000       3.758057       102.2619 
 730   0.0000       3.763910       102.4212 
 731   0.0000       3.767182       102.5102 
 732   0.0000       3.773641       102.6860 
 733   0.0000       3.783453       102.9530 
 734   0.0000       3.789059       103.1055 
 735   0.0000       3.796705       103.3136 
 736   0.0000       3.801871       103.4542 
 737   0.0000       3.806854       103.5898 
 738   0.0000       3.813732       103.7769 
 739   0.0000       3.816678       103.8571 
 740   0.0000       3.832569       104.2895 
 741   0.0000       3.834044       104.3297 
 742   0.0000       3.840286       104.4995 
 743   0.0000       3.856777       104.9482 
 744   0.0000       3.871103       105.3381 
 745   0.0000       3.881261       105.6145 
 746   0.0000       3.885464       105.7289 
 747   0.0000       3.891603       105.8959 
 748   0.0000       3.894774       105.9822 
 749   0.0000       3.897652       106.0605 
 750   0.0000       3.908973       106.3686 
 751   0.0000       3.916024       106.5604 
 752   0.0000       3.921541       106.7106 
 753   0.0000       3.925898       106.8291 
 754   0.0000       3.931318       106.9766 
 755   0.0000       3.934276       107.0571 
 756   0.0000       3.943560       107.3097 
 757   0.0000       3.948650       107.4482 
 758   0.0000       3.960046       107.7583 
 759   0.0000       3.966637       107.9377 
 760   0.0000       3.972202       108.0891 
 761   0.0000       3.979829       108.2966 
 762   0.0000       3.986703       108.4837 
 763   0.0000       3.991388       108.6112 
 764   0.0000       4.004459       108.9669 
 765   0.0000       4.012732       109.1920 
 766   0.0000       4.016157       109.2852 
 767   0.0000       4.024369       109.5086 
 768   0.0000       4.035721       109.8175 
 769   0.0000       4.039632       109.9240 
 770   0.0000       4.046838       110.1201 
 771   0.0000       4.052915       110.2854 
 772   0.0000       4.062362       110.5425 
 773   0.0000       4.066344       110.6508 
 774   0.0000       4.080331       111.0315 
 775   0.0000       4.085424       111.1701 
 776   0.0000       4.092371       111.3591 
 777   0.0000       4.100640       111.5841 
 778   0.0000       4.113479       111.9335 
 779   0.0000       4.114516       111.9617 
 780   0.0000       4.119921       112.1087 
 781   0.0000       4.128242       112.3352 
 782   0.0000       4.142311       112.7180 
 783   0.0000       4.148880       112.8968 
 784   0.0000       4.155739       113.0834 
 785   0.0000       4.159967       113.1985 
 786   0.0000       4.173692       113.5719 
 787   0.0000       4.181252       113.7777 
 788   0.0000       4.194120       114.1278 
 789   0.0000       4.206305       114.4594 
 790   0.0000       4.212802       114.6362 
 791   0.0000       4.214615       114.6855 
 792   0.0000       4.221039       114.8603 
 793   0.0000       4.233934       115.2112 
 794   0.0000       4.241341       115.4128 
 795   0.0000       4.249278       115.6287 
 796   0.0000       4.251564       115.6909 
 797   0.0000       4.265568       116.0720 
 798   0.0000       4.268926       116.1634 
 799   0.0000       4.281479       116.5050 
 800   0.0000       4.293241       116.8250 
 801   0.0000       4.305891       117.1693 
 802   0.0000       4.314067       117.3917 
 803   0.0000       4.317277       117.4791 
 804   0.0000       4.320432       117.5649 
 805   0.0000       4.327265       117.7509 
 806   0.0000       4.339882       118.0942 
 807   0.0000       4.353259       118.4582 
 808   0.0000       4.365411       118.7889 
 809   0.0000       4.376081       119.0792 
 810   0.0000       4.381569       119.2285 
 811   0.0000       4.382354       119.2499 
 812   0.0000       4.399291       119.7108 
 813   0.0000       4.406221       119.8994 
 814   0.0000       4.414547       120.1259 
 815   0.0000       4.426270       120.4449 
 816   0.0000       4.428963       120.5182 
 817   0.0000       4.440653       120.8363 
 818   0.0000       4.458408       121.3195 
 819   0.0000       4.469089       121.6101 
 820   0.0000       4.475969       121.7973 
 821   0.0000       4.479486       121.8930 
 822   0.0000       4.489688       122.1706 
 823   0.0000       4.500870       122.4749 
 824   0.0000       4.503673       122.5512 
 825   0.0000       4.521598       123.0389 
 826   0.0000       4.529319       123.2490 
 827   0.0000       4.539327       123.5214 
 828   0.0000       4.550843       123.8347 
 829   0.0000       4.562513       124.1523 
 830   0.0000       4.564885       124.2168 
 831   0.0000       4.580748       124.6485 
 832   0.0000       4.595186       125.0414 
 833   0.0000       4.603684       125.2726 
 834   0.0000       4.612359       125.5087 
 835   0.0000       4.626605       125.8963 
 836   0.0000       4.636770       126.1729 
 837   0.0000       4.642443       126.3273 
 838   0.0000       4.657395       126.7342 
 839   0.0000       4.667836       127.0183 
 840   0.0000       4.669325       127.0588 
 841   0.0000       4.681745       127.3968 
 842   0.0000       4.693802       127.7249 
 843   0.0000       4.713300       128.2554 
 844   0.0000       4.717445       128.3682 
 845   0.0000       4.733430       128.8032 
 846   0.0000       4.746170       129.1499 
 847   0.0000       4.753167       129.3402 
 848   0.0000       4.770910       129.8231 
 849   0.0000       4.777515       130.0028 
 850   0.0000       4.781189       130.1028 
 851   0.0000       4.801322       130.6506 
 852   0.0000       4.810339       130.8960 
 853   0.0000       4.813543       130.9832 
 854   0.0000       4.828744       131.3968 
 855   0.0000       4.840341       131.7124 
 856   0.0000       4.850524       131.9895 
 857   0.0000       4.870430       132.5311 
 858   0.0000       4.870600       132.5358 
 859   0.0000       4.888167       133.0138 
 860   0.0000       4.902734       133.4102 
 861   0.0000       4.910215       133.6137 
 862   0.0000       4.919877       133.8767 
 863   0.0000       4.926279       134.0509 
 864   0.0000       4.939200       134.4025 
 865   0.0000       4.956890       134.8838 
 866   0.0000       4.967250       135.1657 
 867   0.0000       4.968930       135.2115 
 868   0.0000       4.988169       135.7350 
 869   0.0000       5.002441       136.1233 
 870   0.0000       5.013743       136.4309 
 871   0.0000       5.024711       136.7293 
 872   0.0000       5.039924       137.1433 
 873   0.0000       5.049570       137.4058 
 874   0.0000       5.051229       137.4509 
 875   0.0000       5.067629       137.8972 
 876   0.0000       5.069034       137.9354 
 877   0.0000       5.095837       138.6648 
 878   0.0000       5.102954       138.8584 
 879   0.0000       5.126125       139.4890 
 880   0.0000       5.133341       139.6853 
 881   0.0000       5.144603       139.9918 
 882   0.0000       5.151933       140.1912 
 883   0.0000       5.156874       140.3257 
 884   0.0000       5.171329       140.7190 
 885   0.0000       5.180812       140.9771 
 886   0.0000       5.199959       141.4981 
 887   0.0000       5.217317       141.9704 
 888   0.0000       5.220226       142.0496 
 889   0.0000       5.235576       142.4673 
 890   0.0000       5.240354       142.5973 
 891   0.0000       5.254056       142.9701 
 892   0.0000       5.277864       143.6180 
 893   0.0000       5.302292       144.2827 
 894   0.0000       5.312846       144.5699 
 895   0.0000       5.332057       145.0926 
 896   0.0000       5.342128       145.3667 
 897   0.0000       5.348992       145.5535 
 898   0.0000       5.357428       145.7830 
 899   0.0000       5.365697       146.0080 
 900   0.0000       5.368273       146.0781 
 901   0.0000       5.385277       146.5408 
 902   0.0000       5.399016       146.9147 
 903   0.0000       5.408807       147.1811 
 904   0.0000       5.415268       147.3569 
 905   0.0000       5.419836       147.4812 
 906   0.0000       5.433046       147.8407 
 907   0.0000       5.441121       148.0604 
 908   0.0000       5.463799       148.6775 
 909   0.0000       5.472125       148.9041 
 910   0.0000       5.489154       149.3675 
 911   0.0000       5.504149       149.7755 
 912   0.0000       5.512725       150.0089 
 913   0.0000       5.531838       150.5290 
 914   0.0000       5.541822       150.8006 
 915   0.0000       5.549344       151.0053 
 916   0.0000       5.570058       151.5690 
 917   0.0000       5.576547       151.7456 
 918   0.0000       5.597215       152.3080 
 919   0.0000       5.604379       152.5029 
 920   0.0000       5.607838       152.5970 
 921   0.0000       5.620373       152.9381 
 922   0.0000       5.632671       153.2728 
 923   0.0000       5.639589       153.4610 
 924   0.0000       5.652648       153.8164 
 925   0.0000       5.675278       154.4322 
 926   0.0000       5.682823       154.6375 
 927   0.0000       5.688854       154.8016 
 928   0.0000       5.704278       155.2213 
 929   0.0000       5.714824       155.5083 
 930   0.0000       5.726110       155.8154 
 931   0.0000       5.731569       155.9639 
 932   0.0000       5.742119       156.2510 
 933   0.0000       5.755841       156.6244 
 934   0.0000       5.775643       157.1632 
 935   0.0000       5.789871       157.5504 
 936   0.0000       5.801648       157.8709 
 937   0.0000       5.814287       158.2148 
 938   0.0000       5.828652       158.6057 
 939   0.0000       5.833687       158.7427 
 940   0.0000       5.844951       159.0492 
 941   0.0000       5.877677       159.9397 
 942   0.0000       5.905807       160.7052 
 943   0.0000       5.922629       161.1629 
 944   0.0000       5.944222       161.7505 
 945   0.0000       6.002396       163.3335 
 946   0.0000       6.031856       164.1352 
 947   0.0000       6.107758       166.2005 
 948   0.0000       6.112572       166.3315 
 949   0.0000       6.133247       166.8941 
 950   0.0000       6.159989       167.6218 
 951   0.0000       6.169290       167.8749 
 952   0.0000       6.190738       168.4585 
 953   0.0000       6.206747       168.8942 
 954   0.0000       6.219130       169.2311 
 955   0.0000       6.228328       169.4814 
 956   0.0000       6.248980       170.0434 
 957   0.0000       6.262426       170.4093 
 958   0.0000       6.269675       170.6065 
 959   0.0000       6.312485       171.7714 
 960   0.0000       6.324684       172.1034 
 961   0.0000       6.334264       172.3641 
 962   0.0000       6.342919       172.5996 
 963   0.0000       6.368871       173.3058 
 964   0.0000       6.387439       173.8110 
 965   0.0000       6.401043       174.1812 
 966   0.0000       6.438899       175.2113 
 967   0.0000       6.458455       175.7435 
 968   0.0000       6.512706       177.2198 
 969   0.0000       6.544816       178.0935 
 970   0.0000       6.600255       179.6021 
 971   0.0000       6.701136       182.3472 
 972   0.0000       6.836058       186.0186 
 973   0.0000       6.874181       187.0560 
 974   0.0000       6.882719       187.2883 
 975   0.0000       6.908605       187.9927 
 976   0.0000       6.938305       188.8009 
 977   0.0000       6.966712       189.5739 
 978   0.0000       6.970061       189.6650 
 979   0.0000       6.995186       190.3487 
 980   0.0000       7.021816       191.0733 
 981   0.0000       7.041752       191.6158 
 982   0.0000       7.049401       191.8240 
 983   0.0000       7.080117       192.6598 
 984   0.0000       7.162041       194.8890 
 985   0.0000       7.185784       195.5351 
 986   0.0000       7.336760       199.6434 
 987   0.0000       7.370939       200.5734 
 988   0.0000       7.452261       202.7863 
 989   0.0000       7.475971       203.4315 
 990   0.0000       7.553314       205.5361 
 991   0.0000       7.649295       208.1479 
 992   0.0000       7.693103       209.3400 
 993   0.0000       7.735311       210.4885 
 994   0.0000       7.825741       212.9492 
 995   0.0000       7.918550       215.4747 
 996   0.0000       8.010353       217.9728 
 997   0.0000       8.082651       219.9401 
 998   0.0000       8.309961       226.1255 
 999   0.0000       9.425233       256.4736 
 1000   0.0000       9.446357       257.0484 
 1001   0.0000       9.453028       257.2300 
 1002   0.0000       9.464857       257.5519 
 1003   0.0000       9.479895       257.9611 
 1004   0.0000       9.506700       258.6905 
 1005   0.0000       9.714697       264.3503 
 1006   0.0000      10.096432       274.7379 
 1007   0.0000      10.115499       275.2567 
 1008   0.0000      10.129677       275.6425 
 1009   0.0000      10.214031       277.9379 
 1010   0.0000      10.220788       278.1218 
 1011   0.0000      10.252261       278.9782 
 1012   0.0000      10.373005       282.2638 
 1013   0.0000      10.416234       283.4401 
 1014   0.0000      10.522725       286.3379 
 1015   0.0000      15.262031       415.3010 
 1016   0.0000      17.477014       475.5737 
 1017   0.0000      18.198288       495.2006 
 1018   0.0000      18.363285       499.6904 
 1019   0.0000      18.631154       506.9795 
 1020   0.0000      18.823206       512.2055 
 1021   0.0000      18.992966       516.8249 
 1022   0.0000      20.396162       555.0078 
 1023   0.0000      20.865475       567.7785 
 1024   0.0000      21.934138       596.8582 

                 SPIN DOWN ORBITALS
  NO   OCC          E(Eh)            E(eV) 
   0   1.0000    -261.557456     -7117.3402 
   1   1.0000    -104.782261     -2851.2703 
   2   1.0000    -104.778726     -2851.1741 
   3   1.0000    -104.778657     -2851.1722 
   4   1.0000     -32.066796      -872.5819 
   5   1.0000     -27.544769      -749.5313 
   6   1.0000     -27.544689      -749.5291 
   7   1.0000     -27.544372      -749.5205 
   8   1.0000     -20.571624      -559.7823 
   9   1.0000     -11.407265      -310.4075 
  10   1.0000     -11.322649      -308.1049 
  11   1.0000     -11.266097      -306.5661 
  12   1.0000     -11.265496      -306.5497 
  13   1.0000     -11.261664      -306.4455 
  14   1.0000     -11.258793      -306.3673 
  15   1.0000     -11.252020      -306.1830 
  16   1.0000     -11.248692      -306.0925 
  17   1.0000     -10.508805      -285.9591 
  18   1.0000     -10.505245      -285.8622 
  19   1.0000     -10.505146      -285.8596 
  20   1.0000      -7.974685      -217.0022 
  21   1.0000      -7.974109      -216.9865 
  22   1.0000      -7.974041      -216.9847 
  23   1.0000      -7.971149      -216.9060 
  24   1.0000      -7.971128      -216.9054 
  25   1.0000      -7.970485      -216.8879 
  26   1.0000      -7.970396      -216.8855 
  27   1.0000      -7.970360      -216.8845 
  28   1.0000      -7.970272      -216.8821 
  29   1.0000      -4.141753      -112.7028 
  30   1.0000      -2.663416       -72.4752 
  31   1.0000      -2.663413       -72.4751 
  32   1.0000      -2.662698       -72.4557 
  33   1.0000      -1.413109       -38.4527 
  34   1.0000      -1.158442       -31.5228 
  35   1.0000      -1.086702       -29.5707 
  36   1.0000      -1.040733       -28.3198 
  37   1.0000      -1.036158       -28.1953 
  38   1.0000      -1.028647       -27.9909 
  39   1.0000      -1.026242       -27.9255 
  40   1.0000      -0.996930       -27.1278 
  41   1.0000      -0.980898       -26.6916 
  42   1.0000      -0.920045       -25.0357 
  43   1.0000      -0.808279       -21.9944 
  44   1.0000      -0.753318       -20.4988 
  45   1.0000      -0.695849       -18.9350 
  46   1.0000      -0.691443       -18.8151 
  47   1.0000      -0.682429       -18.5698 
  48   1.0000      -0.665810       -18.1176 
  49   1.0000      -0.641623       -17.4595 
  50   1.0000      -0.621320       -16.9070 
  51   1.0000      -0.602862       -16.4047 
  52   1.0000      -0.596096       -16.2206 
  53   1.0000      -0.583263       -15.8714 
  54   1.0000      -0.573546       -15.6070 
  55   1.0000      -0.570478       -15.5235 
  56   1.0000      -0.561493       -15.2790 
  57   1.0000      -0.554303       -15.0833 
  58   1.0000      -0.547977       -14.9112 
  59   1.0000      -0.539419       -14.6783 
  60   1.0000      -0.516689       -14.0598 
  61   1.0000      -0.511547       -13.9199 
  62   1.0000      -0.484738       -13.1904 
  63   1.0000      -0.473471       -12.8838 
  64   1.0000      -0.471978       -12.8432 
  65   1.0000      -0.443957       -12.0807 
  66   1.0000      -0.441031       -12.0011 
  67   1.0000      -0.439033       -11.9467 
  68   1.0000      -0.424500       -11.5512 
  69   1.0000      -0.419511       -11.4155 
  70   1.0000      -0.405262       -11.0277 
  71   1.0000      -0.374457       -10.1895 
  72   0.0000       0.010962         0.2983 
  73   0.0000       0.021258         0.5785 
  74   0.0000       0.022442         0.6107 
  75   0.0000       0.030072         0.8183 
  76   0.0000       0.037456         1.0192 
  77   0.0000       0.039319         1.0699 
  78   0.0000       0.041990         1.1426 
  79   0.0000       0.044345         1.2067 
  80   0.0000       0.045011         1.2248 
  81   0.0000       0.049998         1.3605 
  82   0.0000       0.056478         1.5369 
  83   0.0000       0.059438         1.6174 
  84   0.0000       0.062784         1.7084 
  85   0.0000       0.065942         1.7944 
  86   0.0000       0.066313         1.8045 
  87   0.0000       0.072738         1.9793 
  88   0.0000       0.074810         2.0357 
  89   0.0000       0.078693         2.1413 
  90   0.0000       0.090284         2.4567 
  91   0.0000       0.090840         2.4719 
  92   0.0000       0.093060         2.5323 
  93   0.0000       0.098107         2.6696 
  94   0.0000       0.100633         2.7384 
  95   0.0000       0.101925         2.7735 
  96   0.0000       0.108378         2.9491 
  97   0.0000       0.113907         3.0996 
  98   0.0000       0.115593         3.1454 
  99   0.0000       0.116551         3.1715 
 100   0.0000       0.118622         3.2279 
 101   0.0000       0.121642         3.3100 
 102   0.0000       0.122324         3.3286 
 103   0.0000       0.124003         3.3743 
 104   0.0000       0.124611         3.3908 
 105   0.0000       0.127958         3.4819 
 106   0.0000       0.128597         3.4993 
 107   0.0000       0.132210         3.5976 
 108   0.0000       0.133482         3.6322 
 109   0.0000       0.136176         3.7055 
 110   0.0000       0.138932         3.7805 
 111   0.0000       0.141366         3.8468 
 112   0.0000       0.142555         3.8791 
 113   0.0000       0.147864         4.0236 
 114   0.0000       0.151330         4.1179 
 115   0.0000       0.153533         4.1779 
 116   0.0000       0.158203         4.3049 
 117   0.0000       0.163715         4.4549 
 118   0.0000       0.163973         4.4619 
 119   0.0000       0.166602         4.5335 
 120   0.0000       0.170185         4.6310 
 121   0.0000       0.172280         4.6880 
 122   0.0000       0.177367         4.8264 
 123   0.0000       0.178956         4.8697 
 124   0.0000       0.182951         4.9783 
 125   0.0000       0.189155         5.1472 
 126   0.0000       0.191204         5.2029 
 127   0.0000       0.194610         5.2956 
 128   0.0000       0.199452         5.4274 
 129   0.0000       0.202797         5.5184 
 130   0.0000       0.203613         5.5406 
 131   0.0000       0.204673         5.5694 
 132   0.0000       0.208277         5.6675 
 133   0.0000       0.209721         5.7068 
 134   0.0000       0.217153         5.9090 
 135   0.0000       0.219733         5.9793 
 136   0.0000       0.222672         6.0592 
 137   0.0000       0.226937         6.1753 
 138   0.0000       0.228322         6.2130 
 139   0.0000       0.234397         6.3783 
 140   0.0000       0.238676         6.4947 
 141   0.0000       0.239561         6.5188 
 142   0.0000       0.244868         6.6632 
 143   0.0000       0.247612         6.7379 
 144   0.0000       0.250758         6.8235 
 145   0.0000       0.251917         6.8550 
 146   0.0000       0.255459         6.9514 
 147   0.0000       0.257770         7.0143 
 148   0.0000       0.265298         7.2191 
 149   0.0000       0.268463         7.3053 
 150   0.0000       0.272227         7.4077 
 151   0.0000       0.276361         7.5202 
 152   0.0000       0.280960         7.6453 
 153   0.0000       0.286545         7.7973 
 154   0.0000       0.287292         7.8176 
 155   0.0000       0.290736         7.9113 
 156   0.0000       0.298868         8.1326 
 157   0.0000       0.301868         8.2143 
 158   0.0000       0.303407         8.2561 
 159   0.0000       0.308386         8.3916 
 160   0.0000       0.310424         8.4471 
 161   0.0000       0.318848         8.6763 
 162   0.0000       0.322981         8.7887 
 163   0.0000       0.326246         8.8776 
 164   0.0000       0.331669         9.0252 
 165   0.0000       0.331908         9.0317 
 166   0.0000       0.336124         9.1464 
 167   0.0000       0.342208         9.3119 
 168   0.0000       0.345640         9.4053 
 169   0.0000       0.347654         9.4602 
 170   0.0000       0.350440         9.5359 
 171   0.0000       0.358856         9.7650 
 172   0.0000       0.361500         9.8369 
 173   0.0000       0.362827         9.8730 
 174   0.0000       0.363552         9.8927 
 175   0.0000       0.368177        10.0186 
 176   0.0000       0.369565        10.0564 
 177   0.0000       0.373994        10.1769 
 178   0.0000       0.379386        10.3236 
 179   0.0000       0.382962        10.4209 
 180   0.0000       0.387527        10.5451 
 181   0.0000       0.389111        10.5882 
 182   0.0000       0.392407        10.6779 
 183   0.0000       0.395748        10.7689 
 184   0.0000       0.398585        10.8460 
 185   0.0000       0.400023        10.8852 
 186   0.0000       0.402757        10.9596 
 187   0.0000       0.404257        11.0004 
 188   0.0000       0.407330        11.0840 
 189   0.0000       0.413415        11.2496 
 190   0.0000       0.416378        11.3302 
 191   0.0000       0.419402        11.4125 
 192   0.0000       0.420762        11.4495 
 193   0.0000       0.428580        11.6623 
 194   0.0000       0.434462        11.8223 
 195   0.0000       0.435413        11.8482 
 196   0.0000       0.440130        11.9765 
 197   0.0000       0.446562        12.1516 
 198   0.0000       0.447918        12.1885 
 199   0.0000       0.451218        12.2783 
 200   0.0000       0.455700        12.4002 
 201   0.0000       0.458012        12.4631 
 202   0.0000       0.462956        12.5977 
 203   0.0000       0.469647        12.7798 
 204   0.0000       0.470167        12.7939 
 205   0.0000       0.473839        12.8938 
 206   0.0000       0.476413        12.9639 
 207   0.0000       0.480024        13.0621 
 208   0.0000       0.484623        13.1873 
 209   0.0000       0.486975        13.2513 
 210   0.0000       0.488114        13.2823 
 211   0.0000       0.488487        13.2924 
 212   0.0000       0.493823        13.4376 
 213   0.0000       0.498740        13.5714 
 214   0.0000       0.502869        13.6838 
 215   0.0000       0.504586        13.7305 
 216   0.0000       0.508306        13.8317 
 217   0.0000       0.509812        13.8727 
 218   0.0000       0.513226        13.9656 
 219   0.0000       0.516650        14.0588 
 220   0.0000       0.521202        14.1826 
 221   0.0000       0.522837        14.2271 
 222   0.0000       0.525840        14.3088 
 223   0.0000       0.527105        14.3433 
 224   0.0000       0.533867        14.5273 
 225   0.0000       0.535195        14.5634 
 226   0.0000       0.538753        14.6602 
 227   0.0000       0.542758        14.7692 
 228   0.0000       0.544018        14.8035 
 229   0.0000       0.548215        14.9177 
 230   0.0000       0.555424        15.1139 
 231   0.0000       0.556704        15.1487 
 232   0.0000       0.560927        15.2636 
 233   0.0000       0.564313        15.3557 
 234   0.0000       0.568915        15.4810 
 235   0.0000       0.572068        15.5668 
 236   0.0000       0.573886        15.6162 
 237   0.0000       0.578593        15.7443 
 238   0.0000       0.583150        15.8683 
 239   0.0000       0.585764        15.9395 
 240   0.0000       0.590980        16.0814 
 241   0.0000       0.596383        16.2284 
 242   0.0000       0.603292        16.4164 
 243   0.0000       0.604410        16.4468 
 244   0.0000       0.607181        16.5222 
 245   0.0000       0.608161        16.5489 
 246   0.0000       0.611864        16.6497 
 247   0.0000       0.616630        16.7794 
 248   0.0000       0.618833        16.8393 
 249   0.0000       0.623745        16.9730 
 250   0.0000       0.629452        17.1283 
 251   0.0000       0.635542        17.2940 
 252   0.0000       0.641140        17.4463 
 253   0.0000       0.641582        17.4583 
 254   0.0000       0.644783        17.5454 
 255   0.0000       0.649109        17.6631 
 256   0.0000       0.653632        17.7862 
 257   0.0000       0.654137        17.8000 
 258   0.0000       0.656504        17.8644 
 259   0.0000       0.659560        17.9475 
 260   0.0000       0.664582        18.0842 
 261   0.0000       0.665622        18.1125 
 262   0.0000       0.676283        18.4026 
 263   0.0000       0.679551        18.4915 
 264   0.0000       0.686148        18.6710 
 265   0.0000       0.689343        18.7580 
 266   0.0000       0.690964        18.8021 
 267   0.0000       0.692331        18.8393 
 268   0.0000       0.696923        18.9642 
 269   0.0000       0.703574        19.1452 
 270   0.0000       0.711498        19.3608 
 271   0.0000       0.716037        19.4843 
 272   0.0000       0.721749        19.6398 
 273   0.0000       0.727406        19.7937 
 274   0.0000       0.729297        19.8452 
 275   0.0000       0.731663        19.9096 
 276   0.0000       0.739519        20.1233 
 277   0.0000       0.741077        20.1657 
 278   0.0000       0.746268        20.3070 
[...]
  | sigma^2 in % of trace(Dip) retained ...   1.90e+01
  | sigma^2 in % of trace(Dpq) retained ...   1.33e-01
  | Av. % of trace(Di) retained         ...  99.998506630599
  | Av. % of trace(Dp) retained         ...  99.999999391022
  | sigma^2 in % of trace(Di) retained  ...   7.47e-07
  | sigma^2 in % of trace(Dp) retained  ...   2.21e-13
 Distributions of % trace(Dij) recovered:
  |       >= 99.9  ...   105 ( 20.8 % of all IJ-pairs)
  |   [80.0, 90.0) ...    33 (  6.5 % of all IJ-pairs)
  |   [90.0, 99.0) ...   275 ( 54.3 % of all IJ-pairs)
  |   [99.0, 99.9) ...    93 ( 18.4 % of all IJ-pairs)
 Distributions of % trace(Dip) recovered:
  |   [70.0, 80.0) ...     1 (  0.8 % of all IP-pairs)
  |   [80.0, 90.0) ...    16 ( 13.4 % of all IP-pairs)
  |   [90.0, 99.0) ...    60 ( 50.4 % of all IP-pairs)
  |   [99.0, 99.9) ...    42 ( 35.3 % of all IP-pairs)
 Distributions of % trace(Dpq) recovered:
  |       >= 99.9  ...     5 ( 33.3 % of all PQ-pairs)
  |   [99.0, 99.9) ...    10 ( 66.7 % of all PQ-pairs)
 Distributions of % trace(Di) recovered :
  |       >= 99.9  ...    43 (100.0 % of all I-pairs )
 Distributions of % trace(Dp) recovered :
  |       >= 99.9  ...     5 (100.0 % of all P-pairs )

                       ===========================
                       1113 OF 1710 PAIRS ARE KEPT
                       ===========================

 Initial PAO correlation energy (all pairs)    ...  -2.6957958235 Eh
 Energy constituents in PAO basis (Eh):
  | Vijab(+0) ...  -2.2673737592
  | Viab (-1) ...  -0.1748997370
  | Vab  (-2) ...  -0.0573606811
  | Va   (-1) ...  -0.0000423718
  | Vija (+1) ...  -0.0721749825
  | Vij  (+2) ...  -0.0155019965
  | Via  (+0) ...  -0.1082832493
  | Vi   (+1) ...  -0.0001590460
 Initial PNO correlation energy                ...  -2.6607074252 Eh
 Energy constituents in PNO basis (Eh):
  | Vijab(+0) ...  -2.2482419189 (err=  0.0191318403)
  | Viab (-1) ...  -0.1605986956 (err=  0.0143010414)
  | Vab  (-2) ...  -0.0569101468 (err=  0.0004505343)
  | Va   (-1) ...  -0.0000245791 (err=  0.0000177928)
  | Vija (+1) ...  -0.0711449368 (err=  0.0010300456)
  | Vij  (+2) ...  -0.0154467506 (err=  0.0000552459)
  | Via  (+0) ...  -0.1081817502 (err=  0.0001014990)
  | Vi   (+1) ...  -0.0001586472 (err=  0.0000003988)
 Sum of total truncation errors ...   0.0350883982 Eh
  | Pair screening ...   0.0120293643 Eh
  | PNO truncation ...   0.0230590339 Eh

 UMP2 correlation energy (PAO) ...  -2.6908721153
  | alpha-alpha ...  -0.3871577007 (NP_aa=  925)
  | alpha-beta  ...  -1.9961746609 (NP_ab= 1685)
  | beta -beta  ...  -0.3075397537 (NP_bb=  727)
 UMP2 correlation energy (PNO) ...  -2.6554014461
  | alpha-alpha ...  -0.3749431732 (err=  0.0122145274, NP_aa=  592)
  | alpha-beta  ...  -1.9771094478 (err=  0.0190652131, NP_ab= 1088)
  | beta -beta  ...  -0.3033488251 (err=  0.0041909286, NP_bb=  463)
 Sum of total UMP2 truncation errors ...   0.0354706692 Eh
  | Pair screening ...   0.0120452544 Eh
  | PNO truncation ...   0.0234254147 Eh
 Timing for NEV-PNO construction (sec.)
  | Intermediate construction  ..           47.262
  | Amplitude construction     ..           73.059
  | Total time                 ..          120.322
 Making pair pair interaction lists ...      ok
 Total size for 2-ext PNO integrals ...     11.1 MB
Checking the number of SOMO/SOMO doubles PNOs ... 
 #Truncate: (72, 72)[174] -> [85] .. 
 #Truncate: (73, 73)[176] -> [85] .. 
 #Truncate: (74, 74)[175] -> [85] .. 
 #Truncate: (75, 75)[177] -> [85] .. 
 #Truncate: (76, 76)[176] -> [85] .. 

--------------------------------
LOCAL RI TRANSFORMATION (VABPAO)
--------------------------------

Number of PAOs:    1030
Basis functions:   1025 (343 shells)
Aux. functions:    2424 (644 shells)

Processing maps (0.0 sec)
Average map sizes:
   Aux shells -> PAOs           1030.0
   PAOs       -> AO shells       343.0

Calculating integrals (214.8 sec, 37370.165 MB)
Finished
-----------------------------
LOCAL RI TRANSFORMATION (IJV)
-----------------------------

Orbital window:      29 to 76
Basis functions:   1025 (343 shells)
Aux. functions:    2424 (644 shells)

Processing maps (0.0 sec)
Average map sizes:
   Aux shells -> MOs(i)           46.9
   Aux shells -> MOs(j)           48.0
   MOs        -> AO shells       340.5

Calculating integrals (23.4 sec, 41.731 MB)
Sorting integrals (0.3 sec, 41.704 MB)
Total time for the integral transformation: 23.8 sec


-------------------------------------
Pair Pair Term precalculation with     
RI-(ij|mn) and (im|jn) transformation  
ON THE FLY                             
-------------------------------------

   IBatch   1 (of   2)              ... done ( 1280.000 sec)
   IBatch   2 (of   2)              ... done ( 1494.515 sec)
Total EXT                           ...        2774.516 sec

---------------------
RI-PNO TRANSFORMATION
---------------------

Total Number of PNOs                   ... 34703
Total Number of IJ-PNOs                ... 30515
Total Number of IP-PNOs                ...  3235
Total Number of PQ-PNOs                ...   953
Total Number of IJ-pairs               ...   969
Total Number of PI-pairs               ...   119
Total Number of PQ-pairs               ...    25
Average number of PNOs per pair        ...    31
Maximal number of PNOs per pair        ...    85
>> Statistics for ij-pairs..
   #pairs with  1 -  5 PNOs   :    0
   #pairs with  6 - 10 PNOs   :    0
   #pairs with 11 - 15 PNOs   :   56
   #pairs with 16 - 20 PNOs   :  246
   #pairs with 21 - 25 PNOs   :  150
   #pairs with 26 - 30 PNOs   :  158
   #pairs with 31 - 35 PNOs   :   66
   #pairs with 36 - 40 PNOs   :   42
   #pairs with 41 - 45 PNOs   :   56
   #pairs with 46 - 50 PNOs   :   24
   #pairs with 51 - 55 PNOs   :   33
   #pairs with 56 - 60 PNOs   :   59
   #pairs with 61 - 65 PNOs   :   74
   #pairs with 66 - 70 PNOs   :    2
   #pairs with 76 - 80 PNOs   :    1
   #pairs with 81 - 85 PNOs   :    2
>> Statistics for ip-pairs..
   #pairs with  1 -  5 PNOs   :    0
   #pairs with  6 - 10 PNOs   :    2
   #pairs with 11 - 15 PNOs   :   16
   #pairs with 16 - 20 PNOs   :    4
   #pairs with 21 - 25 PNOs   :   27
   #pairs with 26 - 30 PNOs   :   12
   #pairs with 31 - 35 PNOs   :   45
   #pairs with 36 - 40 PNOs   :   13
   #pairs with 41 - 45 PNOs   :    0
   #pairs with 46 - 50 PNOs   :    0
>> Statistics for pq-pairs..
   #pairs with  1 -  5 PNOs   :    0
   #pairs with  6 - 10 PNOs   :    0
   #pairs with 11 - 15 PNOs   :    0
   #pairs with 16 - 20 PNOs   :    0
   #pairs with 21 - 25 PNOs   :   10
   #pairs with 26 - 30 PNOs   :   10
   #pairs with 31 - 35 PNOs   :    0
   #pairs with 36 - 40 PNOs   :    0
   #pairs with 41 - 45 PNOs   :    0
   #pairs with 46 - 50 PNOs   :    0
   #pairs with 81 - 85 PNOs   :    5

Generation of (ij|ab)[P] integrals            ... on
Generation of (ia|bc)[P],(ja|bc)[P] integrals ... on
Storage of 3 and 4 external integrals         ... on
Generation of ALL (ka|bc)[P] integrals        ... on
Keep RI integrals in memory                   ... off

Ibatch:  1 (of  1)
Starting 2-4 index PNO integral generation ... done

Timings:
Total PNO integral transformation time     ...       2477.865 sec
Size of the 3-external file                ...       290 MB
Size of the 4-external file                ...      1971 MB
Size of the IKJL file                      ...        18 MB
Size of the all 3-external file            ...      6962 MB
Size of the 1-external file                ...        22 MB

Size of the PAO/PNO coefficient matrices   ...     226.4 MB

Making pair/pair overlap matrices          ... done (  404.757 sec)
Size of the pair overlap file              ...    2471.0 MB
Total # unrestricted pairs ...       2143
  # of alpha-alpha pairs   ...        592
  # of alpha-beta pairs    ...       1088
  # of beta-beta pairs     ...        463
Constructing the guess amplitudes          ... done (    0.607 sec)

-------------------------
FINAL STARTUP INFORMATION
-------------------------

E(0)                                       ...  -3028.431464138
E(SL-UMP2 in NEV-PNO space)                ...     -2.691827274
Initial E(tot)                             ...  -3031.123291412
<T|T>                                      ...      0.535749565
Number of unrestricted pairs included      ... 2143
Total number of pairs                      ... 4095
----------------------------------------------------------
                     OPEN-SHELL COUPLED CLUSTER ITERATIONS
----------------------------------------------------------

Number of PNO amplitudes to be optimized        ...          2138274
Number of canonical amplitudes for strong pairs ...       1935567090
Untruncated number of canonical amplitudes      ...       3698645738

Iter       E(tot)           E(Corr)          Delta-E          Residual     Time
  0  -3031.130469535     -2.662579569      0.029247706      0.020997094 1984.83
                           *** Turning on DIIS ***
  1  -3031.242405296     -2.774515330     -0.111935762      0.009584934 2066.78
  2  -3031.306775069     -2.838885103     -0.064369772      0.008367870 1996.37
  3  -3031.327918962     -2.860028996     -0.021143893      0.003027361 2014.99
  4  -3031.335060481     -2.867170515     -0.007141519      0.002693578 1983.41
  5  -3031.338862354     -2.870972388     -0.003801873      0.001671272 2072.65
  6  -3031.340248847     -2.872358881     -0.001386493      0.000827598 2086.24
  7  -3031.340984947     -2.873094980     -0.000736099      0.000469898 2078.76
  8  -3031.341146756     -2.873256790     -0.000161810      0.000210496 2032.84
  9  -3031.341198790     -2.873308824     -0.000052034      0.000183538 1880.86
 10  -3031.341193073     -2.873303107      0.000005717      0.000090203 1705.83
 11  -3031.341204374     -2.873314408     -0.000011301      0.000077117 1707.48
 12  -3031.341210855     -2.873320889     -0.000006481      0.000033141 1721.55
 13  -3031.341213502     -2.873323536     -0.000002647      0.000016321 1716.59
 14  -3031.341214805     -2.873324839     -0.000001303      0.000007417 1728.17
               --- The CCSD iterations have converged ---

E(0)                                       ...  -3028.431464138
E(CORR)(strong-pairs)                      ...     -2.873324839
E(CORR)(weak-pairs)                        ...     -0.036425828
E(CORR)(corrected)                         ...     -2.909750667
E(TOT)                                     ...  -3031.341214805
Singles norm <S|S>**1/2                    ...      0.192220188 ( 0.064848968, 0.127371220)  
T1 diagnostic                              ...      0.020150151                              
<S**2>(linearized)                         ...      8.7507906 (ideal value:      8.7500000)

----------------------
LARGEST PNO AMPLITUDES
----------------------
  71a-> 77a  71b-> 77b       0.059497
  50b-> 76b  -1b-> -1b       0.055529
  71a-> 78a  71b-> 78b       0.054035
  51b-> 76b  -1b-> -1b       0.052337
  48b-> 72b  -1b-> -1b       0.051835
  48b-> 74b  -1b-> -1b       0.046260
  54a-> 77a  54b-> 77b       0.045893
  65a-> 77a  65b-> 77b       0.045844
  48b-> 75b  -1b-> -1b       0.045573
  30a-> 77a  -1a-> -1a       0.044579
  61a-> 77a  61b-> 77b       0.043776
  69a-> 77a  69b-> 77b       0.043650
  39b-> 73b  -1b-> -1b       0.043033
  63a-> 77a  63b-> 77b       0.042742
  59a-> 77a  59b-> 77b       0.042585
  58a-> 77a  58b-> 77b       0.042276

Total # unrestricted pairs ...       1194
  # of alpha-alpha pairs   ...        333
  # of alpha-beta pairs    ...        597
  # of beta-beta pairs     ...        264

-------------------------------------------
DLPNO BASED TRIPLES CORRECTION
-------------------------------------------

Singles multiplier          ...  1.000000
Fragment selection                          .... not used
TCutTNO                     ... 1.000e-09
TCutMP2Pairs                ... 1.000e-05
TCutDOStrong                ... 2.000e-02
TCutMKNStrong               ... 1.000e-02
TCutDOWeak                  ... 4.000e-02
TCutMKNWeak                 ... 1.000e-01
NTCutTNO                    ... 1

Number of Triples that are to be computed         ...     34648

 . . . . . . . . .
10% done  
20% done  
30% done  
40% done  
50% done  
60% done  
70% done  
80% done  
90% done  
          Batch   1   done (  15401.065 sec)

Triples-Correction TCutTNO=   1.000e-09 (NWeakPairs = 0  1  2  3)  -0.117869357971   -0.002021187253    0.000000000000    0.000000000000
Triples-Correction  -0.119890545224

Triples timings:
Total time                      ... 16043.196 sec

Triples List generation         ...     0.000 sec
TNO generation                  ...   641.897 sec
Pair density generation         ...     0.087 sec
Look up tables                  ...     0.114 sec
Generating 3-index integrals    ...  9721.940 sec
Make 4-ind.int. from 3-ind.int  ...     3.564 sec
Projecting amplitudes (D + S)   ...  5416.089 sec
Sorting integrals for spin cases...    53.423 sec
Calculate W0/W1                 ...   168.761 sec
Energy contr. (sum over a,b,c)  ...    37.139 sec

Everything after 3-index        ...  5808.111 sec

Energy contribution AAA         ...    25.315 sec
Energy contribution AAB         ...   114.723 sec
Energy contribution ABB         ...   105.109 sec
Energy contribution BBB         ...    14.218 sec
prep                ...     3.086 sec
makeTTNO            ...  5361.637 sec
copyij              ...     0.125 sec
copyil              ...     4.125 sec
transposeij         ...     0.077 sec
newMatInDoubleProj  ...    49.665 sec
BlasInDoubleProj    ...  2921.598 sec
ProjSingles         ...    44.741 sec
ProjDoubles         ...  5371.347 sec
overall Doubles for projection      ... 3153406
used Doubles for projection         ... 3153406


Number of Triples   (0, 1, 2, 3 weak pairs; overall):  16570   12145       0       0  ( 28715)
Number of Atoms     (0, 1, 2, 3 weak pairs; overall):   20.2    14.4     0.0     0.0  (    29)
Number of PAOs      (0, 1, 2, 3 weak pairs; overall):  779.5   583.0     0.0     0.0  (  1025)
Number of AuxFcns   (0, 1, 2, 3 weak pairs; overall):  934.5   575.4     0.0     0.0  (  2424)
Number of TNOs (0, 1, 2, 3 weak pairs         ):   79.3    56.6     0.0     0.0
Aver. Number of NTNO, Atoms, PAOs, AuxFcns / Triples:  28715    69.7    17.7   696.4   782.6

Triples Correction (T)                     ...     -0.119890545
    alpha-alpha-alpha ... -0.003919012 (  3.3%)
    alpha-alpha-beta  ... -0.056272469 ( 46.9%)
    alpha-beta -beta  ... -0.055551333 ( 46.3%)
    beta -beta -beta  ... -0.004147730 (  3.5%)
Final correlation energy                   ...     -3.029641212
E(CCSD)                                    ...  -3031.341214805
E(CCSD(T))                                 ...  -3031.461105350

----------------------------
STATISTICS FOR PAIR-ENERGIES
----------------------------
Minimum, maximum and average ratios of UMP and CCSD pair-energies ... 0.53, 1.44, 1.02


------------------------------------------------------------------------------- 
                                     TIMINGS                                   
------------------------------------------------------------------------------- 


Total execution time                   ...    54340.306 sec

Localization of occupied MO's          ...        9.453 sec (  0.0%)
Fock Matrix Formation                  ...     1537.350 sec (  2.8%)
Differential overlap integrals         ...        1.922 sec (  0.0%)
Organizing maps                        ...        1.873 sec (  0.0%)
RI 3-index integral generations        ...      310.378 sec (  0.6%)
RI-PNO integral transformation         ...     5757.384 sec ( 10.6%)
Initial Guess                          ...     1981.301 sec (  3.6%)
DIIS Solver                            ...       16.757 sec (  0.0%)
State Vector Update                    ...        0.748 sec (  0.0%)
Sigma-vector construction              ...    28777.356 sec ( 53.0%)
  <0|H|D>                              ...        0.031 sec (  0.0% of sigma)
  <D|H|D>(0-ext)                       ...     5753.755 sec ( 20.0% of sigma)
  <D|H|D>(2-ext Fock)                  ...        1.547 sec (  0.0% of sigma)
  <D|H|D>(2-ext)                       ...     3756.120 sec ( 13.1% of sigma)
  <D|H|D>(4-ext)                       ...      170.548 sec (  0.6% of sigma)
  <D|H|D>(4-ext-corr)                  ...     1049.129 sec (  3.6% of sigma)
  CCSD doubles correction              ...      539.716 sec (  1.9% of sigma)
  <S|H|S>                              ...      758.902 sec (  2.6% of sigma)
  <S|H|D>(1-ext)                       ...      259.636 sec (  0.9% of sigma)
  <D|H|S>(1-ext)                       ...        0.840 sec (  0.0% of sigma)
  <S|H|D>(3-ext)                       ...       22.938 sec (  0.1% of sigma)
  CCSD singles correction              ...        0.004 sec (  0.0% of sigma)
  Fock-dressing                        ...     8132.149 sec ( 28.3% of sigma)
  Singles amplitudes                   ...      105.797 sec (  0.4% of sigma)
  (ik|jl)-dressing                     ...     6694.385 sec ( 23.3% of sigma)
  (ij|ab),(ia|jb)-dressing             ...     1479.829 sec (  5.1% of sigma)
  Pair energies                        ...        0.155 sec (  0.0% of sigma)
Total Time for computing (T)           ...    16320.195 sec ( 30.0% of ALL)


-------------------------   --------------------
FINAL SINGLE POINT ENERGY     -3031.461105350153
-------------------------   --------------------


                            ***************************************
                            *     ORCA property calculations      *
                            ***************************************

                                    ---------------------
                                    Active property flags
                                    ---------------------
   (+) Dipole Moment


------------------------------------------------------------------------------
                       ORCA ELECTRIC PROPERTIES CALCULATION
------------------------------------------------------------------------------

Dipole Moment Calculation                       ... on
Quadrupole Moment Calculation                   ... off
Polarizability Calculation                      ... off
GBWName                                         ... simple-grid-215-245-b3lyp_d3bj-631gd-gas-singlepoint-DLPNO_CCSD_T1-NormalPNO-augtz-gas.gbw
Electron density file                           ... simple-grid-215-245-b3lyp_d3bj-631gd-gas-singlepoint-DLPNO_CCSD_T1-NormalPNO-augtz-gas.scfp.tmp
The origin for moment calculation is the CENTER OF MASS  = ( 0.307212,  0.027494  0.018226)

-------------
DIPOLE MOMENT
-------------
                                X             Y             Z
Electronic contribution:     41.57590       3.57072       2.14648
Nuclear contribution   :    -45.77464      -4.09664      -2.71571
                        -----------------------------------------
Total Dipole Moment    :     -4.19874      -0.52592      -0.56923
                        -----------------------------------------
Magnitude (a.u.)       :      4.26966
Magnitude (Debye)      :     10.85263



--------------------
Rotational spectrum 
--------------------
 
Rotational constants in cm-1:     0.019199     0.011284     0.010594 
Rotational constants in MHz :   575.576012   338.299630   317.597774 

 Dipole components along the rotational axes: 
x,y,z [a.u.] :    -4.194156     0.537668    -0.591614 
x,y,z [Debye]:   -10.660697     1.366642    -1.503764 

 

Timings for individual modules:

Sum of individual times         ...    72478.855 sec (=1207.981 min)
GTO integral calculation        ...       11.942 sec (=   0.199 min)   0.0 %
SCF iterations                  ...    18108.940 sec (= 301.816 min)  25.0 %
MDCI module                     ...    54357.972 sec (= 905.966 min)  75.0 %
                             ****ORCA TERMINATED NORMALLY****
TOTAL RUN TIME: 0 days 20 hours 8 minutes 1 seconds 333 msec
