
                                 *****************
                                 * O   R   C   A *
                                 *****************

           --- An Ab Initio, DFT and Semiempirical electronic structure package ---

                  #######################################################
                  #                        -***-                        #
                  #          Department of theory and spectroscopy      #
                  #               Directorship: Frank Neese             #
                  #        Max Planck Institute fuer Kohlenforschung    #
                  #                Kaiser Wilhelm Platz 1               #
                  #                 D-45470 Muelheim/Ruhr               #
                  #                      Germany                        #
                  #                                                     #
                  #                  All rights reserved                #
                  #                        -***-                        #
                  #######################################################


                         Program Version 4.1.2  - RELEASE  -


 With contributions from (in alphabetic order):
   Daniel Aravena         : Magnetic Properties
   Michael Atanasov       : Ab Initio Ligand Field Theory
   Alexander A. Auer      : GIAO ZORA
   Ute Becker             : Parallelization
   Giovanni Bistoni       : ED, Open-shell LED
   Martin Brehm           : Molecular dynamics
   Dmytro Bykov           : SCF Hessian
   Vijay G. Chilkuri      : MRCI spin determinant printing
   Dipayan Datta          : RHF DLPNO-CCSD density
   Achintya Kumar Dutta   : EOM-CC, STEOM-CC
   Dmitry Ganyushin       : Spin-Orbit,Spin-Spin,Magnetic field MRCI
   Miquel Garcia          : C-PCM Hessian
   Yang Guo               : DLPNO-NEVPT2, CIM, IAO-localization
   Andreas Hansen         : Spin unrestricted coupled pair/coupled cluster methods
   Benjamin Helmich-Paris : CASSCF linear response (MC-RPA)
   Lee Huntington         : MR-EOM, pCC
   Robert Izsak           : Overlap fitted RIJCOSX, COSX-SCS-MP3, EOM
   Christian Kollmar      : KDIIS, OOCD, Brueckner-CCSD(T), CCSD density
   Simone Kossmann        : Meta GGA functionals, TD-DFT gradient, OOMP2, MP2 Hessian
   Martin Krupicka        : AUTO-CI
   Lucas Lang             : DCDCAS
   Dagmar Lenk            : GEPOL surface, SMD
   Dimitrios Liakos       : Extrapolation schemes; parallel MDCI
   Dimitrios Manganas     : ROCIS; embedding schemes
   Dimitrios Pantazis     : SARC Basis sets
   Taras Petrenko         : DFT Hessian,TD-DFT gradient, ASA, ECA, R-Raman, ABS, FL, XAS/XES, NRVS
   Peter Pinski           : DLPNO-MP2, DLPNO-MP2 Gradient
   Christoph Reimann      : Effective Core Potentials
   Marius Retegan         : Local ZFS, SOC
   Christoph Riplinger    : Optimizer, TS searches, QM/MM, DLPNO-CCSD(T), (RO)-DLPNO pert. Triples
   Tobias Risthaus        : Range-separated hybrids, TD-DFT gradient, RPA, STAB
   Michael Roemelt        : Restricted open shell CIS
   Masaaki Saitow         : Open-shell DLPNO
   Barbara Sandhoefer     : DKH picture change effects
   Avijit Sen             : IP-ROCIS
   Kantharuban Sivalingam : CASSCF convergence, NEVPT2, FIC-MRCI
   Bernardo de Souza      : ESD, SOC TD-DFT
   Georgi Stoychev        : AutoAux, RI-MP2 NMR
   Willem Van den Heuvel  : Paramagnetic NMR
   Boris Wezisla          : Elementary symmetry handling
   Frank Wennmohs         : Technical directorship


 We gratefully acknowledge several colleagues who have allowed us to
 interface, adapt or use parts of their codes:
   Stefan Grimme, W. Hujo, H. Kruse,             : VdW corrections, initial TS optimization,
                  C. Bannwarth                     DFT functionals, gCP, sTDA/sTD-DF
   Ed Valeev                                     : LibInt (2-el integral package), F12 methods
   Garnet Chan, S. Sharma, J. Yang, R. Olivares  : DMRG
   Ulf Ekstrom                                   : XCFun DFT Library
   Mihaly Kallay                                 : mrcc  (arbitrary order and MRCC methods)
   Andreas Klamt, Michael Diedenhofen            : otool_cosmo (COSMO solvation model)
   Jiri Pittner, Ondrej Demel                    : Mk-CCSD
   Frank Weinhold                                : gennbo (NPA and NBO analysis)
   Christopher J. Cramer and Donald G. Truhlar   : smd solvation model
   Lars Goerigk                                  : TD-DFT with DH, B97 family of functionals
   V. Asgeirsson, H. Jonsson                     : NEB implementation
   FAccTs GmbH                                   : IRC, NEB, NEB-TS, Multilevel


 Your calculation uses the libint2 library for the computation of 2-el integrals
 For citations please refer to: http://libint.valeyev.net

 This ORCA versions uses:
   CBLAS   interface :  Fast vector & matrix operations
   LAPACKE interface :  Fast linear algebra routines
   SCALAPACK package :  Parallel linear algebra routines


----- Orbital basis set information -----
Your calculation utilizes the basis: aug-cc-pVTZ 
    H, B-Ne : Obtained from the ccRepo (grant-hill.group.shef.ac.uk/ccrepo) Feb. 2017
              R. A. Kendall, T. H. Dunning, Jr., R. J. Harrison, J. Chem. Phys. 96, 6796 (1992)
         He : Obtained from the ccRepo (grant-hill.group.shef.ac.uk/ccrepo) Feb. 2017
              D. E. Woon, T. H. Dunning, Jr., J. Chem. Phys. 100, 2975 (1994)
  Li-Be, Na : Obtained from the ccRepo (grant-hill.group.shef.ac.uk/ccrepo) Feb. 2017
              B. P. Prascher, D. E. Woon, K. A. Peterson, T. H. Dunning, Jr., A. K. Wilson, Theor. Chem. Acc. 128, 69 (2011)
         Mg : Obtained from the Peterson Research Group Website (tyr0.chem.wsu.edu/~kipeters) Feb. 2017
              B. P. Prascher, D. E. Woon, K. A. Peterson, T. H. Dunning, Jr., A. K. Wilson, Theor. Chem. Acc. 128, 69 (2011)
      Al-Ar : Obtained from the ccRepo (grant-hill.group.shef.ac.uk/ccrepo) Feb. 2017
              D. E. Woon, T. H. Dunning, Jr., J. Chem. Phys. 98, 1358 (1993)
      Sc-Zn : Obtained from the ccRepo (grant-hill.group.shef.ac.uk/ccrepo) Feb. 2017
              N. B. Balabanov, K. A. Peterson, J. Chem. Phys. 123, 064107 (2005)
              N. B. Balabanov, K. A. Peterson, J. Chem. Phys. 125, 074110 (2006)
      Ga-Kr : Obtained from the ccRepo (grant-hill.group.shef.ac.uk/ccrepo) Feb. 2017
              A. K. Wilson, D. E. Woon, K. A. Peterson, T. H. Dunning, Jr., J. Chem. Phys. 110, 7667 (1999)
     Ag, Au : Obtained from the Peterson Research Group Website (tyr0.chem.wsu.edu/~kipeters) Feb. 2017
              K. A. Peterson, C. Puzzarini, Theor. Chem. Acc. 114, 283 (2005)

----- AuxJ basis set information -----
Your calculation utilizes the AutoAux generation procedure.
  G. L. Stoychev, A. A. Auer, F. Neese, J. Chem. Theory Comput. 13, 554 (2017)

----- AuxC basis set information -----
Your calculation utilizes the auxiliary basis: aug-cc-pVTZ/C 
  H-He, B-F, Al-Ar, Ga-Kr : Obtained from the EMSL Basis Set Exchange (bse.pnl.gov) Feb. 2017
                            F. Weigend, A. Kohn, C. Hattig, J. Chem. Phys. 116, 3175 (2002)
                   Be, Mg : Obtained from the TURBOMOLE 7.0 basis set library
                            C. Haettig, Phys. Chem. Chem. Phys. 7, 59 (2005)
                       Ne : Obtained from the EMSL Basis Set Exchange (bse.pnl.gov) Feb. 2017
                            C. Haettig, Phys. Chem. Chem. Phys. 7, 59 (2005)
                            F. Weigend, A. Kohn, C. Hattig, J. Chem. Phys. 116, 3175 (2002)
                    Sc-Zn : Obtained from the EMSL Basis Set Exchange (bse.pnl.gov) Feb. 2017
                            J. G. Hill, J. A. Platts, J. Chem. Phys. 128, 044104 (2008)

----- AuxJK basis set information -----
Your calculation utilizes the AutoAux generation procedure.
  G. L. Stoychev, A. A. Auer, F. Neese, J. Chem. Theory Comput. 13, 554 (2017)

================================================================================
                                        WARNINGS
                       Please study these warnings very carefully!
================================================================================


WARNING: your system is open-shell and RHF/RKS was chosen
  ===> : WILL SWITCH to UHF/UKS


WARNING: MDCI localization with Augmented Hessian Foster-Boys
  ===> : Switching off randomization!

WARNING: Post HF methods need fully converged wavefunctions
  ===> : Setting SCFConvForced true
         You can overwrite this default with %scf ConvForced false 


INFO   : the flag for use of LIBINT has been found!

================================================================================
                                       INPUT FILE
================================================================================
NAME = simple-grid-240-300-b3lyp_d3bj-631gd-gas-singlepoint-DLPNO_CCSD_T1-NormalPNO-augtz-gas.inp
|  1> ! aug-cc-pVTZ aug-cc-pVTZ/C DLPNO-CCSD(T1) TightSCF NormalPNO UNO MiniPrint AutoAux
|  2> %pal nproc 10 end
|  3> %maxcore 20000
|  4> %mdci
|  5>      density none
|  6> end
|  7> 
|  8> * xyz 0 6
|  9>  O      0.19441600      0.34420500     -0.79564800
| 10>  C      1.05003900      1.25723000     -0.59912500
| 11>  C      2.85727300      0.30580700      0.66131500
| 12>  C      2.85065200     -0.84334900     -0.06480200
| 13>  C      3.64322300     -0.98665100     -1.33095600
| 14> Fe     -1.51520400     -0.18017300     -0.03362800
| 15> Cl     -1.99710500     -2.03642700     -1.07061900
| 16>  C      1.98316400     -2.01287000      0.28364800
| 17> Cl     -2.76924600      1.55066900     -0.50582900
| 18> Cl     -1.23911200     -0.45388000      2.12931400
| 19>  H      3.54384600      1.08658500      0.33592300
| 20>  H      2.52428100     -2.95739900      0.15533700
| 21>  H      1.57901000     -1.97064600      1.29544100
| 22>  H      1.13208700     -2.04248800     -0.41423000
| 23>  H      4.36420900     -1.80721700     -1.21890500
| 24>  H      2.99643900     -1.26110300     -2.17531400
| 25>  H      4.20028400     -0.08133200     -1.58452000
| 26>  C      2.39923400      0.40181400      2.09938100
| 27>  H      3.08772100     -0.16207400      2.74161300
| 28>  H      2.41123400      1.43542800      2.45211500
| 29>  H      1.39685500      0.00137600      2.26305600
| 30>  C      0.78025200      2.29646900      0.45362900
| 31>  H      1.65896400      2.89900300      0.68678200
| 32>  H      0.01252000      2.95251300      0.01775300
| 33>  H      0.35732900      1.86295900      1.35951200
| 34>  C      1.86524100      1.67390100     -1.79473600
| 35>  H      1.23100900      2.37235300     -2.35887900
| 36>  H      2.78265900      2.19694100     -1.52201500
| 37>  H      2.07993500      0.82570300     -2.44301500
| 38> *
| 39> 
| 40> 
| 41>                          ****END OF INPUT****
================================================================================

                       ****************************
                       * Single Point Calculation *
                       ****************************

---------------------------------
CARTESIAN COORDINATES (ANGSTROEM)
---------------------------------
  O      0.194416    0.344205   -0.795648
  C      1.050039    1.257230   -0.599125
  C      2.857273    0.305807    0.661315
  C      2.850652   -0.843349   -0.064802
  C      3.643223   -0.986651   -1.330956
  Fe    -1.515204   -0.180173   -0.033628
  Cl    -1.997105   -2.036427   -1.070619
  C      1.983164   -2.012870    0.283648
  Cl    -2.769246    1.550669   -0.505829
  Cl    -1.239112   -0.453880    2.129314
  H      3.543846    1.086585    0.335923
  H      2.524281   -2.957399    0.155337
  H      1.579010   -1.970646    1.295441
  H      1.132087   -2.042488   -0.414230
  H      4.364209   -1.807217   -1.218905
  H      2.996439   -1.261103   -2.175314
  H      4.200284   -0.081332   -1.584520
  C      2.399234    0.401814    2.099381
  H      3.087721   -0.162074    2.741613
  H      2.411234    1.435428    2.452115
  H      1.396855    0.001376    2.263056
  C      0.780252    2.296469    0.453629
  H      1.658964    2.899003    0.686782
  H      0.012520    2.952513    0.017753
  H      0.357329    1.862959    1.359512
  C      1.865241    1.673901   -1.794736
  H      1.231009    2.372353   -2.358879
  H      2.782659    2.196941   -1.522015
  H      2.079935    0.825703   -2.443015

----------------------------
CARTESIAN COORDINATES (A.U.)
----------------------------
  NO LB      ZA    FRAG     MASS         X           Y           Z
   0 O     8.0000    0    15.999    0.367393    0.650453   -1.503557
   1 C     6.0000    0    12.011    1.984286    2.375820   -1.132182
   2 C     6.0000    0    12.011    5.399463    0.577891    1.249704
   3 C     6.0000    0    12.011    5.386952   -1.593699   -0.122458
   4 C     6.0000    0    12.011    6.884694   -1.864500   -2.515142
   5 Fe   26.0000    0    55.850   -2.863321   -0.340478   -0.063548
   6 Cl   17.0000    0    35.453   -3.773982   -3.848289   -2.023177
   7 C     6.0000    0    12.011    3.747637   -3.803773    0.536017
   8 Cl   17.0000    0    35.453   -5.233117    2.930340   -0.955878
   9 Cl   17.0000    0    35.453   -2.341582   -0.857709    4.023820
  10 H     1.0000    0     1.008    6.696898    2.053348    0.634802
  11 H     1.0000    0     1.008    4.770200   -5.588674    0.293544
  12 H     1.0000    0     1.008    2.983896   -3.723981    2.448029
  13 H     1.0000    0     1.008    2.139334   -3.859743   -0.782781
  14 H     1.0000    0     1.008    8.247160   -3.415145   -2.303397
  15 H     1.0000    0     1.008    5.662449   -2.383139   -4.110748
  16 H     1.0000    0     1.008    7.937386   -0.153695   -2.994309
  17 C     6.0000    0    12.011    4.533895    0.759318    3.967255
  18 H     1.0000    0     1.008    5.834947   -0.306275    5.180898
  19 H     1.0000    0     1.008    4.556572    2.712566    4.633826
  20 H     1.0000    0     1.008    2.639673    0.002600    4.276556
  21 C     6.0000    0    12.011    1.474463    4.339697    0.857235
  22 H     1.0000    0     1.008    3.134988    5.478322    1.297830
  23 H     1.0000    0     1.008    0.023659    5.579441    0.033548
  24 H     1.0000    0     1.008    0.675254    3.520482    2.569105
  25 C     6.0000    0    12.011    3.524795    3.163214   -3.391560
  26 H     1.0000    0     1.008    2.326270    4.483097   -4.457635
  27 H     1.0000    0     1.008    5.258463    4.151617   -2.876192
  28 H     1.0000    0     1.008    3.930508    1.560353   -4.616629



           ************************************************************
           *        Program running with 10 parallel MPI-processes    *
           *              working on a common directory               *
           ************************************************************


           ************************************************************
           *        Program running with 10 parallel MPI-processes    *
           *              working on a common directory               *
           ************************************************************

Diagonalization of the overlap matrix:
Smallest eigenvalue                        ... 9.569e-07
Time for diagonalization                   ...    0.332 sec
Threshold for overlap eigenvalues          ... 1.000e-08
Number of eigenvalues below threshold      ... 0
Time for construction of square roots      ...    0.277 sec
Total time needed                          ...    0.614 sec

-------------------
DFT GRID GENERATION
-------------------

General Integration Accuracy     IntAcc      ...  4.340
Radial Grid Type                 RadialGrid  ... Gauss-Chebyshev
Angular Grid (max. acc.)         AngularGrid ... Lebedev-110
Angular grid pruning method      GridPruning ... 3 (G Style)
Weight generation scheme         WeightScheme... Becke
Basis function cutoff            BFCut       ...    1.0000e-11
Integration weight cutoff        WCut        ...    1.0000e-14
Grids for H and He will be reduced by one unit

# of grid points (after initial pruning)     ...  36112 (   0.0 sec)
# of grid points (after weights+screening)   ...  32418 (   0.1 sec)
nearest neighbour list constructed           ...    0.0 sec
Grid point re-assignment to atoms done       ...    0.0 sec
Grid point division into batches done        ...    0.0 sec
Reduced shell lists constructed in    0.2 sec

Total number of grid points                  ...    32418
Total number of batches                      ...      523
Average number of points per batch           ...       61
Average number of grid points per atom       ...     1118
Average number of shells per batch           ...   287.24 (83.74%)
Average number of basis functions per batch  ...   851.61 (83.08%)
Average number of large shells per batch     ...   232.80 (81.05%)
Average number of large basis fcns per batch ...   691.54 (81.20%)
Maximum spatial batch extension              ...   5.16,  6.23,  7.79 au
Average spatial batch extension              ...   0.18,  0.19,  0.19 au

Time for grid setup =    0.351 sec

Loading Hartree-Fock densities                     ... done
Calculating cut-offs                               ... done
Setting up the integral package                    ... done
Initializing the effective Hamiltonian             ... done
Starting the Coulomb interaction                   ... done (   1.1 sec)
Reading the grid                                   ... done
Mapping shells                                     ... done
Starting the XC term evaluation                    ... done (   0.9 sec)
Transforming the Hamiltonian                       ... done (   0.2 sec)
Diagonalizing the Hamiltonian                      ... done (   0.4 sec)
Back transforming the eigenvectors                 ... done (   0.1 sec)
Now organizing SCF variables                       ... done
--------------
SCF ITERATIONS
--------------
ITER       Energy         Delta-E        Max-DP      RMS-DP      [F,P]     Damp
               ***  Starting incremental Fock matrix formation  ***
  0  -3027.5882490728   0.000000000000 0.19920475  0.00100007  0.2528645 0.7000
  1  -3027.8396543466  -0.251405273796 0.14794057  0.00078279  0.1534408 0.7000
                               ***Turning on DIIS***
  2  -3028.0082957143  -0.168641367637 0.10410988  0.00057656  0.1095310 0.7000
  3  -3029.5968025373  -1.588506823026 0.24452161  0.00144732  0.0819021 0.0000
  4  -3028.3068560638   1.289946473449 0.04324917  0.00021288  0.0201462 0.0000
  5  -3028.4248128135  -0.117956749697 0.03975258  0.00017196  0.0112727 0.0000
  6  -3028.4725571216  -0.047744308094 0.01982732  0.00007056  0.0053183 0.0000
  7  -3028.4856981429  -0.013141021276 0.00861557  0.00003272  0.0033016 0.0000
  8  -3028.4737498202   0.011948322734 0.00631865  0.00001881  0.0015667 0.0000
  9  -3028.4701446227   0.003605197418 0.00233155  0.00001109  0.0007116 0.0000
 10  -3028.4579914077   0.012153215001 0.00090204  0.00000318  0.0003904 0.0000
 11  -3028.4631645959  -0.005173188179 0.00026260  0.00000168  0.0000794 0.0000
 12  -3028.4612371147   0.001927481230 0.00022520  0.00000108  0.0000223 0.0000
 13  -3028.4612673410  -0.000030226270 0.00041436  0.00000111  0.0000090 0.0000
 14  -3028.4612906900  -0.000023349038 0.00025875  0.00000154  0.0000055 0.0000
 15  -3028.4612359327   0.000054757274 0.00065640  0.00000177  0.0000030 0.0000
 16  -3028.4612476079  -0.000011675123 0.00041459  0.00000215  0.0000026 0.0000
 17  -3028.4612623975  -0.000014789650 0.00062253  0.00000176  0.0000017 0.0000
 18  -3028.4612465296   0.000015867931 0.00070528  0.00000286  0.0000013 0.0000
                            ***DIIS convergence achieved***

               *****************************************************
               *                     SUCCESS                       *
               *           SCF CONVERGED AFTER  19 CYCLES          *
               *****************************************************

Total Energy       :        -3028.46125189 Eh          -82408.62024 eV
  Last Energy change         ...   -5.3569e-06  Tolerance :   1.0000e-08
  Last MAX-Density change    ...    5.8951e-04  Tolerance :   1.0000e-07
             **** THE GBW FILE WAS UPDATED (simple-grid-240-300-b3lyp_d3bj-631gd-gas-singlepoint-DLPNO_CCSD_T1-NormalPNO-augtz-gas.gbw) ****
             **** DENSITY FILE WAS UPDATED (simple-grid-240-300-b3lyp_d3bj-631gd-gas-singlepoint-DLPNO_CCSD_T1-NormalPNO-augtz-gas.scfp.tmp) ****
             **** ENERGY FILE WAS UPDATED (simple-grid-240-300-b3lyp_d3bj-631gd-gas-singlepoint-DLPNO_CCSD_T1-NormalPNO-augtz-gas.en.tmp) ****
----------------------
UHF SPIN CONTAMINATION
----------------------

Expectation value of <S**2>     :     8.764851
Ideal value S*(S+1) for S=2.5   :     8.750000
Deviation                       :     0.014851

----------------
ORBITAL ENERGIES
----------------
                 SPIN UP ORBITALS
  NO   OCC          E(Eh)            E(eV) 
   0   1.0000    -261.569538     -7117.6690 
   1   1.0000    -104.790079     -2851.4830 
   2   1.0000    -104.786475     -2851.3850 
   3   1.0000    -104.783856     -2851.3137 
   4   1.0000     -32.237315      -877.2219 
   5   1.0000     -27.713713      -754.1285 
   6   1.0000     -27.712714      -754.1013 
   7   1.0000     -27.712510      -754.0957 
   8   1.0000     -20.609085      -560.8017 
   9   1.0000     -11.418492      -310.7130 
  10   1.0000     -11.286385      -307.1182 
  11   1.0000     -11.274201      -306.7866 
  12   1.0000     -11.270344      -306.6817 
  13   1.0000     -11.254195      -306.2422 
  14   1.0000     -11.252393      -306.1932 
  15   1.0000     -11.238888      -305.8257 
  16   1.0000     -11.237436      -305.7862 
  17   1.0000     -10.516794      -286.1765 
  18   1.0000     -10.513149      -286.0773 
  19   1.0000     -10.510481      -286.0047 
  20   1.0000      -7.983631      -217.2457 
  21   1.0000      -7.982858      -217.2246 
  22   1.0000      -7.982830      -217.2238 
  23   1.0000      -7.980005      -217.1470 
  24   1.0000      -7.979252      -217.1265 
  25   1.0000      -7.979198      -217.1250 
  26   1.0000      -7.977290      -217.0731 
  27   1.0000      -7.976613      -217.0547 
  28   1.0000      -7.976542      -217.0527 
  29   1.0000      -4.592365      -124.9646 
  30   1.0000      -3.205522       -87.2267 
  31   1.0000      -3.203846       -87.1811 
  32   1.0000      -3.203652       -87.1758 
  33   1.0000      -1.451170       -39.4883 
  34   1.0000      -1.138352       -30.9761 
  35   1.0000      -1.095525       -29.8107 
  36   1.0000      -1.062474       -28.9114 
  37   1.0000      -1.056594       -28.7514 
  38   1.0000      -1.053052       -28.6550 
  39   1.0000      -1.025712       -27.9110 
  40   1.0000      -1.006043       -27.3758 
  41   1.0000      -0.969032       -26.3687 
  42   1.0000      -0.938331       -25.5333 
  43   1.0000      -0.921475       -25.0746 
  44   1.0000      -0.921287       -25.0695 
  45   1.0000      -0.911041       -24.7907 
  46   1.0000      -0.910246       -24.7691 
  47   1.0000      -0.902652       -24.5624 
  48   1.0000      -0.808582       -22.0026 
  49   1.0000      -0.740440       -20.1484 
  50   1.0000      -0.704409       -19.1679 
  51   1.0000      -0.694762       -18.9054 
  52   1.0000      -0.681930       -18.5563 
  53   1.0000      -0.662700       -18.0330 
  54   1.0000      -0.629467       -17.1287 
  55   1.0000      -0.621574       -16.9139 
  56   1.0000      -0.606315       -16.4987 
  57   1.0000      -0.597425       -16.2568 
  58   1.0000      -0.584006       -15.8916 
  59   1.0000      -0.575810       -15.6686 
  60   1.0000      -0.562054       -15.2943 
  61   1.0000      -0.560951       -15.2643 
  62   1.0000      -0.548643       -14.9293 
  63   1.0000      -0.545076       -14.8323 
  64   1.0000      -0.534006       -14.5310 
  65   1.0000      -0.529761       -14.4155 
  66   1.0000      -0.503366       -13.6973 
  67   1.0000      -0.497062       -13.5258 
  68   1.0000      -0.473730       -12.8908 
  69   1.0000      -0.470871       -12.8131 
  70   1.0000      -0.442510       -12.0413 
  71   1.0000      -0.436852       -11.8874 
  72   1.0000      -0.434422       -11.8212 
  73   1.0000      -0.426410       -11.6032 
  74   1.0000      -0.424942       -11.5633 
  75   1.0000      -0.423422       -11.5219 
  76   1.0000      -0.365821        -9.9545 
  77   0.0000       0.011895         0.3237 
  78   0.0000       0.022307         0.6070 
  79   0.0000       0.023520         0.6400 
  80   0.0000       0.029753         0.8096 
  81   0.0000       0.038636         1.0513 
  82   0.0000       0.040406         1.0995 
  83   0.0000       0.042014         1.1433 
  84   0.0000       0.043909         1.1948 
  85   0.0000       0.044437         1.2092 
  86   0.0000       0.053215         1.4481 
  87   0.0000       0.057124         1.5544 
  88   0.0000       0.061137         1.6636 
  89   0.0000       0.061621         1.6768 
  90   0.0000       0.063133         1.7179 
  91   0.0000       0.065124         1.7721 
  92   0.0000       0.071233         1.9384 
  93   0.0000       0.077073         2.0973 
  94   0.0000       0.083243         2.2652 
  95   0.0000       0.088988         2.4215 
  96   0.0000       0.090574         2.4647 
  97   0.0000       0.093357         2.5404 
  98   0.0000       0.099496         2.7074 
  99   0.0000       0.101214         2.7542 
 100   0.0000       0.104657         2.8479 
 101   0.0000       0.107096         2.9142 
 102   0.0000       0.116629         3.1736 
 103   0.0000       0.120100         3.2681 
 104   0.0000       0.121787         3.3140 
 105   0.0000       0.123033         3.3479 
 106   0.0000       0.125755         3.4220 
 107   0.0000       0.127895         3.4802 
 108   0.0000       0.130636         3.5548 
 109   0.0000       0.132336         3.6011 
 110   0.0000       0.134045         3.6475 
 111   0.0000       0.138062         3.7568 
 112   0.0000       0.145338         3.9548 
 113   0.0000       0.145946         3.9714 
 114   0.0000       0.150989         4.1086 
 115   0.0000       0.152124         4.1395 
 116   0.0000       0.157240         4.2787 
 117   0.0000       0.159727         4.3464 
 118   0.0000       0.160751         4.3743 
 119   0.0000       0.165777         4.5110 
 120   0.0000       0.168958         4.5976 
 121   0.0000       0.171128         4.6566 
 122   0.0000       0.172934         4.7058 
 123   0.0000       0.175426         4.7736 
 124   0.0000       0.181992         4.9523 
 125   0.0000       0.183273         4.9871 
 126   0.0000       0.185385         5.0446 
 127   0.0000       0.188710         5.1350 
 128   0.0000       0.191648         5.2150 
 129   0.0000       0.198908         5.4126 
 130   0.0000       0.199414         5.4263 
 131   0.0000       0.199756         5.4356 
 132   0.0000       0.205122         5.5817 
 133   0.0000       0.206850         5.6287 
 134   0.0000       0.212664         5.7869 
 135   0.0000       0.217773         5.9259 
 136   0.0000       0.220242         5.9931 
 137   0.0000       0.222072         6.0429 
 138   0.0000       0.227495         6.1905 
 139   0.0000       0.230178         6.2635 
 140   0.0000       0.231520         6.3000 
 141   0.0000       0.234156         6.3717 
 142   0.0000       0.236687         6.4406 
 143   0.0000       0.239108         6.5065 
 144   0.0000       0.241405         6.5690 
 145   0.0000       0.245479         6.6798 
 146   0.0000       0.252693         6.8761 
 147   0.0000       0.255820         6.9612 
 148   0.0000       0.257895         7.0177 
 149   0.0000       0.260872         7.0987 
 150   0.0000       0.267093         7.2680 
 151   0.0000       0.271412         7.3855 
 152   0.0000       0.276225         7.5165 
 153   0.0000       0.279810         7.6140 
 154   0.0000       0.283000         7.7008 
 155   0.0000       0.285647         7.7729 
 156   0.0000       0.289828         7.8866 
 157   0.0000       0.290123         7.8946 
 158   0.0000       0.296087         8.0569 
 159   0.0000       0.303228         8.2513 
 160   0.0000       0.306736         8.3467 
 161   0.0000       0.311644         8.4803 
 162   0.0000       0.319564         8.6958 
 163   0.0000       0.320233         8.7140 
 164   0.0000       0.323960         8.8154 
 165   0.0000       0.324095         8.8191 
 166   0.0000       0.331831         9.0296 
 167   0.0000       0.333798         9.0831 
 168   0.0000       0.340178         9.2567 
 169   0.0000       0.340921         9.2769 
 170   0.0000       0.343517         9.3476 
 171   0.0000       0.348375         9.4798 
 172   0.0000       0.352367         9.5884 
 173   0.0000       0.356786         9.7087 
 174   0.0000       0.358859         9.7650 
 175   0.0000       0.366667         9.9775 
 176   0.0000       0.368852        10.0370 
 177   0.0000       0.371038        10.0965 
 178   0.0000       0.373637        10.1672 
 179   0.0000       0.374643        10.1945 
 180   0.0000       0.380209        10.3460 
 181   0.0000       0.382379        10.4051 
 182   0.0000       0.382757        10.4154 
 183   0.0000       0.384751        10.4696 
 184   0.0000       0.385905        10.5010 
 185   0.0000       0.387735        10.5508 
 186   0.0000       0.391931        10.6650 
 187   0.0000       0.395798        10.7702 
 188   0.0000       0.402183        10.9439 
 189   0.0000       0.404896        11.0178 
 190   0.0000       0.413488        11.2516 
 191   0.0000       0.414241        11.2721 
 192   0.0000       0.419881        11.4255 
 193   0.0000       0.421771        11.4770 
 194   0.0000       0.426884        11.6161 
 195   0.0000       0.429833        11.6964 
 196   0.0000       0.436560        11.8794 
 197   0.0000       0.438152        11.9227 
 198   0.0000       0.441919        12.0252 
 199   0.0000       0.446236        12.1427 
 200   0.0000       0.448240        12.1972 
 201   0.0000       0.452048        12.3009 
 202   0.0000       0.453161        12.3311 
 203   0.0000       0.457434        12.4474 
 204   0.0000       0.460529        12.5316 
 205   0.0000       0.463965        12.6251 
 206   0.0000       0.467854        12.7310 
 207   0.0000       0.469935        12.7876 
 208   0.0000       0.477292        12.9878 
 209   0.0000       0.479651        13.0520 
 210   0.0000       0.480846        13.0845 
 211   0.0000       0.486170        13.2294 
 212   0.0000       0.487558        13.2671 
 213   0.0000       0.489931        13.3317 
 214   0.0000       0.495829        13.4922 
 215   0.0000       0.501217        13.6388 
 216   0.0000       0.502762        13.6808 
 217   0.0000       0.508016        13.8238 
 218   0.0000       0.510253        13.8847 
 219   0.0000       0.511678        13.9235 
 220   0.0000       0.513110        13.9624 
 221   0.0000       0.516801        14.0629 
 222   0.0000       0.520180        14.1548 
 223   0.0000       0.522854        14.2276 
 224   0.0000       0.525615        14.3027 
 225   0.0000       0.529390        14.4054 
 226   0.0000       0.530925        14.4472 
 227   0.0000       0.532770        14.4974 
 228   0.0000       0.537104        14.6153 
 229   0.0000       0.540701        14.7132 
 230   0.0000       0.543657        14.7937 
 231   0.0000       0.549238        14.9455 
 232   0.0000       0.549982        14.9658 
 233   0.0000       0.556420        15.1410 
 234   0.0000       0.562034        15.2937 
 235   0.0000       0.563367        15.3300 
 236   0.0000       0.568380        15.4664 
 237   0.0000       0.572090        15.5674 
 238   0.0000       0.575641        15.6640 
 239   0.0000       0.581276        15.8173 
 240   0.0000       0.582510        15.8509 
 241   0.0000       0.585220        15.9246 
 242   0.0000       0.590081        16.0569 
 243   0.0000       0.592560        16.1244 
 244   0.0000       0.596315        16.2265 
 245   0.0000       0.598091        16.2749 
 246   0.0000       0.603328        16.4174 
 247   0.0000       0.604076        16.4377 
 248   0.0000       0.611513        16.6401 
 249   0.0000       0.614134        16.7114 
 250   0.0000       0.620210        16.8768 
 251   0.0000       0.623704        16.9719 
 252   0.0000       0.625592        17.0232 
 253   0.0000       0.630079        17.1453 
 254   0.0000       0.633689        17.2435 
 255   0.0000       0.637997        17.3608 
 256   0.0000       0.639589        17.4041 
 257   0.0000       0.651356        17.7243 
 258   0.0000       0.652715        17.7613 
 259   0.0000       0.653922        17.7941 
 260   0.0000       0.658795        17.9267 
 261   0.0000       0.662733        18.0339 
 262   0.0000       0.666747        18.1431 
 263   0.0000       0.669119        18.2076 
 264   0.0000       0.670180        18.2365 
 265   0.0000       0.677479        18.4351 
 266   0.0000       0.683289        18.5933 
 267   0.0000       0.685673        18.6581 
 268   0.0000       0.693406        18.8685 
 269   0.0000       0.699162        19.0252 
 270   0.0000       0.701977        19.1018 
 271   0.0000       0.709959        19.3190 
 272   0.0000       0.714675        19.4473 
 273   0.0000       0.716922        19.5084 
 274   0.0000       0.717362        19.5204 
 275   0.0000       0.723139        19.6776 
 276   0.0000       0.727739        19.8028 
 277   0.0000       0.730326        19.8732 
 278   0.0000       0.734506        19.9869 
 279   0.0000       0.737233        20.0611 
 280   0.0000       0.740716        20.1559 
 281   0.0000       0.742735        20.2109 
 282   0.0000       0.751534        20.4503 
 283   0.0000       0.762468        20.7478 
 284   0.0000       0.768700        20.9174 
 285   0.0000       0.773179        21.0393 
 286   0.0000       0.780228        21.2311 
 287   0.0000       0.783817        21.3287 
 288   0.0000       0.791701        21.5433 
 289   0.0000       0.794032        21.6067 
 290   0.0000       0.806918        21.9574 
 291   0.0000       0.814140        22.1539 
 292   0.0000       0.817725        22.2514 
 293   0.0000       0.821161        22.3449 
 294   0.0000       0.830847        22.6085 
 295   0.0000       0.833383        22.6775 
 296   0.0000       0.840401        22.8685 
 297   0.0000       0.842743        22.9322 
 298   0.0000       0.848594        23.0914 
 299   0.0000       0.852227        23.1903 
 300   0.0000       0.865487        23.5511 
 301   0.0000       0.868050        23.6208 
 302   0.0000       0.869495        23.6602 
 303   0.0000       0.871897        23.7255 
 304   0.0000       0.875665        23.8281 
 305   0.0000       0.881333        23.9823 
 306   0.0000       0.886946        24.1350 
 307   0.0000       0.892367        24.2826 
 308   0.0000       0.897075        24.4106 
 309   0.0000       0.901637        24.5348 
 310   0.0000       0.908304        24.7162 
 311   0.0000       0.914204        24.8768 
 312   0.0000       0.915133        24.9020 
 313   0.0000       0.918215        24.9859 
 314   0.0000       0.922347        25.0983 
 315   0.0000       0.927162        25.2294 
 316   0.0000       0.928696        25.2711 
 317   0.0000       0.931897        25.3582 
 318   0.0000       0.938241        25.5308 
 319   0.0000       0.940018        25.5792 
 320   0.0000       0.941469        25.6187 
 321   0.0000       0.946876        25.7658 
 322   0.0000       0.949725        25.8433 
 323   0.0000       0.955238        25.9933 
 324   0.0000       0.957432        26.0531 
 325   0.0000       0.963616        26.2213 
 326   0.0000       0.965603        26.2754 
 327   0.0000       0.971603        26.4387 
 328   0.0000       0.976726        26.5781 
 329   0.0000       0.977718        26.6051 
 330   0.0000       0.981077        26.6965 
 331   0.0000       0.983396        26.7596 
 332   0.0000       0.988594        26.9010 
 333   0.0000       0.993750        27.0413 
 334   0.0000       0.995216        27.0812 
 335   0.0000       1.000868        27.2350 
 336   0.0000       1.002345        27.2752 
 337   0.0000       1.006940        27.4002 
 338   0.0000       1.008700        27.4481 
 339   0.0000       1.013700        27.5842 
 340   0.0000       1.017066        27.6758 
 341   0.0000       1.018640        27.7186 
 342   0.0000       1.020098        27.7583 
 343   0.0000       1.026554        27.9340 
 344   0.0000       1.029911        28.0253 
 345   0.0000       1.031842        28.0778 
 346   0.0000       1.036105        28.1939 
 347   0.0000       1.043897        28.4059 
 348   0.0000       1.045478        28.4489 
 349   0.0000       1.049133        28.5484 
 350   0.0000       1.050034        28.5729 
 351   0.0000       1.056063        28.7369 
 352   0.0000       1.057288        28.7703 
 353   0.0000       1.060125        28.8475 
 354   0.0000       1.069961        29.1151 
 355   0.0000       1.071861        29.1668 
 356   0.0000       1.074809        29.2470 
 357   0.0000       1.080939        29.4139 
 358   0.0000       1.081368        29.4255 
 359   0.0000       1.084427        29.5088 
 360   0.0000       1.088041        29.6071 
 361   0.0000       1.091295        29.6956 
 362   0.0000       1.092711        29.7342 
 363   0.0000       1.098324        29.8869 
 364   0.0000       1.108398        30.1610 
 365   0.0000       1.113470        30.2991 
 366   0.0000       1.117200        30.4006 
 367   0.0000       1.120059        30.4784 
 368   0.0000       1.123355        30.5681 
 369   0.0000       1.124102        30.5884 
 370   0.0000       1.131745        30.7963 
 371   0.0000       1.135082        30.8871 
 372   0.0000       1.138465        30.9792 
 373   0.0000       1.142620        31.0923 
 374   0.0000       1.145737        31.1771 
 375   0.0000       1.149773        31.2869 
 376   0.0000       1.160926        31.5904 
 377   0.0000       1.164429        31.6857 
 378   0.0000       1.170924        31.8625 
 379   0.0000       1.175200        31.9788 
 380   0.0000       1.177828        32.0503 
 381   0.0000       1.179327        32.0911 
 382   0.0000       1.185326        32.2544 
 383   0.0000       1.189280        32.3620 
 384   0.0000       1.194115        32.4935 
 385   0.0000       1.197377        32.5823 
 386   0.0000       1.200939        32.6792 
 387   0.0000       1.208025        32.8720 
 388   0.0000       1.213635        33.0247 
 389   0.0000       1.219032        33.1715 
 390   0.0000       1.223464        33.2921 
 391   0.0000       1.224482        33.3199 
 392   0.0000       1.232585        33.5403 
 393   0.0000       1.235998        33.6332 
 394   0.0000       1.240878        33.7660 
 395   0.0000       1.243543        33.8385 
 396   0.0000       1.249840        34.0099 
 397   0.0000       1.256967        34.2038 
 398   0.0000       1.262146        34.3448 
 399   0.0000       1.265283        34.4301 
 400   0.0000       1.271757        34.6063 
 401   0.0000       1.272055        34.6144 
 402   0.0000       1.277292        34.7569 
 403   0.0000       1.285051        34.9680 
 404   0.0000       1.286672        35.0121 
 405   0.0000       1.290731        35.1226 
 406   0.0000       1.298440        35.3324 
 407   0.0000       1.304754        35.5042 
 408   0.0000       1.312424        35.7129 
 409   0.0000       1.314623        35.7727 
 410   0.0000       1.320220        35.9250 
 411   0.0000       1.322945        35.9992 
 412   0.0000       1.326900        36.1068 
 413   0.0000       1.332214        36.2514 
 414   0.0000       1.334745        36.3203 
 415   0.0000       1.341715        36.5099 
 416   0.0000       1.346032        36.6274 
 417   0.0000       1.352957        36.8158 
 418   0.0000       1.356844        36.9216 
 419   0.0000       1.361401        37.0456 
 420   0.0000       1.370224        37.2857 
 421   0.0000       1.373546        37.3761 
 422   0.0000       1.380234        37.5581 
 423   0.0000       1.390143        37.8277 
 424   0.0000       1.392678        37.8967 
 425   0.0000       1.397373        38.0245 
 426   0.0000       1.402961        38.1765 
 427   0.0000       1.405244        38.2386 
 428   0.0000       1.410214        38.3739 
 429   0.0000       1.417455        38.5709 
 430   0.0000       1.421597        38.6836 
 431   0.0000       1.425583        38.7921 
 432   0.0000       1.427137        38.8344 
 433   0.0000       1.435365        39.0583 
 434   0.0000       1.440549        39.1993 
 435   0.0000       1.446037        39.3487 
 436   0.0000       1.452241        39.5175 
 437   0.0000       1.456978        39.6464 
 438   0.0000       1.462305        39.7914 
 439   0.0000       1.466110        39.8949 
 440   0.0000       1.474461        40.1221 
 441   0.0000       1.478258        40.2254 
 442   0.0000       1.489347        40.5272 
 443   0.0000       1.495334        40.6901 
 444   0.0000       1.496676        40.7266 
 445   0.0000       1.502970        40.8979 
 446   0.0000       1.503899        40.9232 
 447   0.0000       1.506559        40.9955 
 448   0.0000       1.510692        41.1080 
 449   0.0000       1.516088        41.2548 
 450   0.0000       1.521733        41.4085 
 451   0.0000       1.528933        41.6044 
 452   0.0000       1.531524        41.6749 
 453   0.0000       1.540284        41.9133 
 454   0.0000       1.543072        41.9891 
 455   0.0000       1.546023        42.0694 
 456   0.0000       1.555933        42.3391 
 457   0.0000       1.562427        42.5158 
 458   0.0000       1.566306        42.6213 
 459   0.0000       1.573450        42.8157 
 460   0.0000       1.578861        42.9630 
 461   0.0000       1.585834        43.1527 
 462   0.0000       1.590505        43.2798 
 463   0.0000       1.593417        43.3591 
 464   0.0000       1.599894        43.5353 
 465   0.0000       1.600627        43.5553 
 466   0.0000       1.610031        43.8112 
 467   0.0000       1.611018        43.8380 
 468   0.0000       1.616864        43.9971 
 469   0.0000       1.623894        44.1884 
 470   0.0000       1.625843        44.2414 
 471   0.0000       1.631301        44.3900 
 472   0.0000       1.639476        44.6124 
 473   0.0000       1.648619        44.8612 
 474   0.0000       1.655377        45.0451 
 475   0.0000       1.658892        45.1407 
 476   0.0000       1.662629        45.2424 
 477   0.0000       1.671377        45.4805 
 478   0.0000       1.672483        45.5106 
 479   0.0000       1.678152        45.6648 
 480   0.0000       1.683243        45.8034 
 481   0.0000       1.687767        45.9265 
 482   0.0000       1.693685        46.0875 
 483   0.0000       1.698941        46.2305 
 484   0.0000       1.705554        46.4105 
 485   0.0000       1.711420        46.5701 
 486   0.0000       1.719100        46.7791 
 487   0.0000       1.722731        46.8779 
 488   0.0000       1.730544        47.0905 
 489   0.0000       1.734624        47.2015 
 490   0.0000       1.738981        47.3201 
 491   0.0000       1.745823        47.5063 
 492   0.0000       1.750180        47.6248 
 493   0.0000       1.755393        47.7667 
 494   0.0000       1.758500        47.8512 
 495   0.0000       1.760023        47.8927 
 496   0.0000       1.770345        48.1735 
 497   0.0000       1.773521        48.2599 
 498   0.0000       1.779012        48.4094 
 499   0.0000       1.782280        48.4983 
 500   0.0000       1.790157        48.7127 
 501   0.0000       1.798259        48.9331 
 502   0.0000       1.803949        49.0879 
 503   0.0000       1.805556        49.1317 
 504   0.0000       1.811322        49.2886 
 505   0.0000       1.816287        49.4237 
 506   0.0000       1.821821        49.5743 
 507   0.0000       1.828751        49.7628 
 508   0.0000       1.834517        49.9198 
 509   0.0000       1.838145        50.0185 
 510   0.0000       1.842103        50.1262 
 511   0.0000       1.849054        50.3153 
 512   0.0000       1.858152        50.5629 
 513   0.0000       1.859474        50.5988 
 514   0.0000       1.864659        50.7399 
 515   0.0000       1.869848        50.8812 
 516   0.0000       1.872100        50.9424 
 517   0.0000       1.878910        51.1277 
 518   0.0000       1.882582        51.2277 
 519   0.0000       1.888899        51.3996 
 520   0.0000       1.897477        51.6330 
 521   0.0000       1.899694        51.6933 
 522   0.0000       1.904050        51.8118 
 523   0.0000       1.907493        51.9055 
 524   0.0000       1.909865        51.9701 
 525   0.0000       1.914312        52.0911 
 526   0.0000       1.922541        52.3150 
 527   0.0000       1.927369        52.4464 
 528   0.0000       1.931097        52.5478 
 529   0.0000       1.935557        52.6692 
 530   0.0000       1.940781        52.8113 
 531   0.0000       1.945318        52.9348 
 532   0.0000       1.952771        53.1376 
 533   0.0000       1.957053        53.2541 
 534   0.0000       1.961923        53.3866 
 535   0.0000       1.970430        53.6181 
 536   0.0000       1.977981        53.8236 
 537   0.0000       1.983552        53.9752 
 538   0.0000       1.988129        54.0997 
 539   0.0000       1.999288        54.4034 
 540   0.0000       2.007054        54.6147 
 541   0.0000       2.008892        54.6647 
 542   0.0000       2.012007        54.7495 
 543   0.0000       2.027581        55.1733 
 544   0.0000       2.031618        55.2831 
 545   0.0000       2.036292        55.4103 
 546   0.0000       2.039131        55.4876 
 547   0.0000       2.047646        55.7193 
 548   0.0000       2.053360        55.8748 
 549   0.0000       2.057075        55.9758 
 550   0.0000       2.064319        56.1730 
 551   0.0000       2.076161        56.4952 
 552   0.0000       2.082340        56.6634 
 553   0.0000       2.096123        57.0384 
 554   0.0000       2.101357        57.1808 
 555   0.0000       2.104882        57.2768 
 556   0.0000       2.112460        57.4830 
 557   0.0000       2.117386        57.6170 
 558   0.0000       2.121914        57.7402 
 559   0.0000       2.129286        57.9408 
 560   0.0000       2.130764        57.9810 
 561   0.0000       2.139534        58.2197 
 562   0.0000       2.149728        58.4971 
 563   0.0000       2.160542        58.7913 
 564   0.0000       2.164230        58.8917 
 565   0.0000       2.177633        59.2564 
 566   0.0000       2.188011        59.5388 
 567   0.0000       2.190235        59.5993 
 568   0.0000       2.200382        59.8754 
 569   0.0000       2.202335        59.9286 
 570   0.0000       2.216473        60.3133 
 571   0.0000       2.224266        60.5254 
 572   0.0000       2.227095        60.6023 
 573   0.0000       2.231582        60.7244 
 574   0.0000       2.237230        60.8781 
 575   0.0000       2.240272        60.9609 
 576   0.0000       2.252391        61.2907 
 577   0.0000       2.257893        61.4404 
 578   0.0000       2.264878        61.6305 
 579   0.0000       2.268331        61.7244 
 580   0.0000       2.278990        62.0145 
 581   0.0000       2.284044        62.1520 
 582   0.0000       2.289032        62.2877 
 583   0.0000       2.298132        62.5354 
 584   0.0000       2.308228        62.8101 
 585   0.0000       2.311720        62.9051 
 586   0.0000       2.324175        63.2440 
 587   0.0000       2.335196        63.5439 
 588   0.0000       2.344571        63.7990 
 589   0.0000       2.352140        64.0050 
 590   0.0000       2.356827        64.1325 
 591   0.0000       2.364270        64.3351 
 592   0.0000       2.372795        64.5670 
 593   0.0000       2.377320        64.6902 
 594   0.0000       2.383847        64.8678 
 595   0.0000       2.388253        64.9877 
 596   0.0000       2.399258        65.2871 
 597   0.0000       2.410182        65.5844 
 598   0.0000       2.410583        65.5953 
 599   0.0000       2.420527        65.8659 
 600   0.0000       2.424355        65.9700 
 601   0.0000       2.439708        66.3878 
 602   0.0000       2.450235        66.6743 
 603   0.0000       2.459653        66.9306 
 604   0.0000       2.463806        67.0436 
 605   0.0000       2.465389        67.0866 
 606   0.0000       2.479171        67.4617 
 607   0.0000       2.493590        67.8540 
 608   0.0000       2.506988        68.2186 
 609   0.0000       2.517611        68.5077 
 610   0.0000       2.523499        68.6679 
 611   0.0000       2.544764        69.2465 
 612   0.0000       2.553347        69.4801 
 613   0.0000       2.573869        70.0385 
 614   0.0000       2.582899        70.2843 
 615   0.0000       2.596390        70.6514 
 616   0.0000       2.606133        70.9165 
 617   0.0000       2.623343        71.3848 
 618   0.0000       2.627171        71.4890 
 619   0.0000       2.636754        71.7497 
 620   0.0000       2.648953        72.0817 
 621   0.0000       2.656257        72.2804 
 622   0.0000       2.664926        72.5163 
 623   0.0000       2.672273        72.7163 
 624   0.0000       2.675971        72.8169 
 625   0.0000       2.678611        72.8887 
 626   0.0000       2.684812        73.0574 
 627   0.0000       2.702416        73.5365 
 628   0.0000       2.708676        73.7068 
 629   0.0000       2.713938        73.8500 
 630   0.0000       2.722898        74.0938 
 631   0.0000       2.735273        74.4306 
 632   0.0000       2.751489        74.8718 
 633   0.0000       2.757430        75.0335 
 634   0.0000       2.764899        75.2367 
 635   0.0000       2.783275        75.7368 
 636   0.0000       2.792266        75.9814 
 637   0.0000       2.796072        76.0850 
 638   0.0000       2.797473        76.1231 
 639   0.0000       2.802516        76.2603 
 640   0.0000       2.817056        76.6560 
 641   0.0000       2.837229        77.2049 
 642   0.0000       2.843982        77.3887 
 643   0.0000       2.863027        77.9069 
 644   0.0000       2.877670        78.3054 
 645   0.0000       2.884427        78.4893 
 646   0.0000       2.899808        78.9078 
 647   0.0000       2.919381        79.4404 
 648   0.0000       2.931576        79.7722 
 649   0.0000       2.942372        80.0660 
 650   0.0000       2.957288        80.4719 
 651   0.0000       2.959750        80.5389 
 652   0.0000       2.973556        80.9146 
 653   0.0000       2.977055        81.0098 
 654   0.0000       3.012316        81.9693 
 655   0.0000       3.030106        82.4534 
 656   0.0000       3.031943        82.5034 
 657   0.0000       3.053968        83.1027 
 658   0.0000       3.062333        83.3303 
 659   0.0000       3.073090        83.6230 
 660   0.0000       3.100446        84.3674 
 661   0.0000       3.116768        84.8116 
 662   0.0000       3.134903        85.3050 
 663   0.0000       3.148051        85.6628 
 664   0.0000       3.158729        85.9534 
 665   0.0000       3.178267        86.4850 
 666   0.0000       3.186351        86.7050 
 667   0.0000       3.202693        87.1497 
 668   0.0000       3.203881        87.1820 
 669   0.0000       3.207583        87.2828 
 670   0.0000       3.218748        87.5866 
 671   0.0000       3.220094        87.6232 
 672   0.0000       3.236940        88.0816 
 673   0.0000       3.245192        88.3062 
 674   0.0000       3.250099        88.4397 
 675   0.0000       3.265571        88.8607 
 676   0.0000       3.271434        89.0202 
 677   0.0000       3.285680        89.4079 
 678   0.0000       3.294466        89.6470 
 679   0.0000       3.299589        89.7864 
 680   0.0000       3.306301        89.9690 
 681   0.0000       3.315990        90.2327 
 682   0.0000       3.323529        90.4378 
 683   0.0000       3.325522        90.4920 
 684   0.0000       3.332538        90.6830 
 685   0.0000       3.348021        91.1043 
 686   0.0000       3.352981        91.2392 
 687   0.0000       3.373542        91.7987 
 688   0.0000       3.388234        92.1985 
 689   0.0000       3.395640        92.4001 
 690   0.0000       3.398837        92.4871 
 691   0.0000       3.414418        92.9110 
 692   0.0000       3.428706        93.2998 
 693   0.0000       3.437211        93.5313 
 694   0.0000       3.452673        93.9520 
 695   0.0000       3.454292        93.9961 
 696   0.0000       3.457271        94.0771 
 697   0.0000       3.468885        94.3931 
 698   0.0000       3.480498        94.7092 
 699   0.0000       3.489966        94.9668 
 700   0.0000       3.494647        95.0942 
 701   0.0000       3.502590        95.3103 
 702   0.0000       3.508594        95.4737 
 703   0.0000       3.519721        95.7765 
 704   0.0000       3.529415        96.0403 
 705   0.0000       3.538982        96.3006 
 706   0.0000       3.540051        96.3297 
 707   0.0000       3.553637        96.6994 
 708   0.0000       3.557373        96.8010 
 709   0.0000       3.566503        97.0495 
 710   0.0000       3.572316        97.2077 
 711   0.0000       3.576878        97.3318 
 712   0.0000       3.592073        97.7453 
 713   0.0000       3.596060        97.8538 
 714   0.0000       3.614104        98.3448 
 715   0.0000       3.618410        98.4619 
 716   0.0000       3.626726        98.6882 
 717   0.0000       3.631052        98.8060 
 718   0.0000       3.639578        99.0379 
 719   0.0000       3.652540        99.3907 
 720   0.0000       3.658269        99.5466 
 721   0.0000       3.667674        99.8025 
 722   0.0000       3.677615       100.0730 
 723   0.0000       3.679493       100.1241 
 724   0.0000       3.690957       100.4361 
 725   0.0000       3.704130       100.7945 
 726   0.0000       3.713611       101.0525 
 727   0.0000       3.728760       101.4647 
 728   0.0000       3.729516       101.4853 
 729   0.0000       3.732608       101.5694 
 730   0.0000       3.740500       101.7842 
 731   0.0000       3.749424       102.0270 
 732   0.0000       3.756504       102.2197 
 733   0.0000       3.759965       102.3139 
 734   0.0000       3.763333       102.4055 
 735   0.0000       3.771206       102.6197 
 736   0.0000       3.780642       102.8765 
 737   0.0000       3.785392       103.0058 
 738   0.0000       3.787612       103.0662 
 739   0.0000       3.793618       103.2296 
 740   0.0000       3.806775       103.5876 
 741   0.0000       3.810950       103.7012 
 742   0.0000       3.819980       103.9470 
 743   0.0000       3.829399       104.2032 
 744   0.0000       3.842331       104.5551 
 745   0.0000       3.845121       104.6311 
 746   0.0000       3.845692       104.6466 
 747   0.0000       3.853641       104.8629 
 748   0.0000       3.856787       104.9485 
 749   0.0000       3.872916       105.3874 
 750   0.0000       3.877390       105.5092 
 751   0.0000       3.888139       105.8016 
 752   0.0000       3.899071       106.0991 
 753   0.0000       3.904145       106.2372 
 754   0.0000       3.915010       106.5328 
 755   0.0000       3.918430       106.6259 
 756   0.0000       3.926304       106.8402 
 757   0.0000       3.934849       107.0727 
 758   0.0000       3.935344       107.0862 
 759   0.0000       3.940156       107.2171 
 760   0.0000       3.947822       107.4257 
 761   0.0000       3.961584       107.8002 
 762   0.0000       3.963698       107.8577 
 763   0.0000       3.965122       107.8965 
 764   0.0000       3.985432       108.4491 
 765   0.0000       3.994032       108.6831 
 766   0.0000       3.998790       108.8126 
 767   0.0000       4.005773       109.0026 
 768   0.0000       4.010491       109.1310 
 769   0.0000       4.013039       109.2004 
 770   0.0000       4.022423       109.4557 
 771   0.0000       4.032173       109.7210 
 772   0.0000       4.044724       110.0625 
 773   0.0000       4.049724       110.1986 
 774   0.0000       4.053482       110.3009 
 775   0.0000       4.061902       110.5300 
 776   0.0000       4.065769       110.6352 
 777   0.0000       4.074793       110.8808 
 778   0.0000       4.076981       110.9403 
 779   0.0000       4.085459       111.1710 
 780   0.0000       4.092287       111.3568 
 781   0.0000       4.098255       111.5192 
 782   0.0000       4.110461       111.8513 
 783   0.0000       4.127262       112.3085 
 784   0.0000       4.131346       112.4196 
 785   0.0000       4.136337       112.5555 
 786   0.0000       4.139304       112.6362 
 787   0.0000       4.149799       112.9218 
 788   0.0000       4.151871       112.9781 
 789   0.0000       4.168933       113.4424 
 790   0.0000       4.176031       113.6356 
 791   0.0000       4.182730       113.8179 
 792   0.0000       4.195985       114.1786 
 793   0.0000       4.209464       114.5453 
 794   0.0000       4.214722       114.6884 
 795   0.0000       4.222270       114.8938 
 796   0.0000       4.232081       115.1608 
 797   0.0000       4.246256       115.5465 
 798   0.0000       4.254848       115.7803 
 799   0.0000       4.259519       115.9074 
 800   0.0000       4.275581       116.3445 
 801   0.0000       4.284972       116.6000 
 802   0.0000       4.289862       116.7331 
 803   0.0000       4.295226       116.8790 
 804   0.0000       4.303946       117.1163 
 805   0.0000       4.312472       117.3483 
 806   0.0000       4.325186       117.6943 
 807   0.0000       4.330986       117.8521 
 808   0.0000       4.339387       118.0807 
 809   0.0000       4.347554       118.3030 
 810   0.0000       4.360489       118.6549 
 811   0.0000       4.367498       118.8457 
 812   0.0000       4.375216       119.0557 
 813   0.0000       4.386381       119.3595 
 814   0.0000       4.387059       119.3780 
 815   0.0000       4.403364       119.8216 
 816   0.0000       4.410246       120.0089 
 817   0.0000       4.415738       120.1583 
 818   0.0000       4.431131       120.5772 
 819   0.0000       4.446117       120.9850 
 820   0.0000       4.451959       121.1440 
 821   0.0000       4.467930       121.5786 
 822   0.0000       4.472357       121.6990 
 823   0.0000       4.481091       121.9367 
 824   0.0000       4.490885       122.2032 
 825   0.0000       4.504460       122.5726 
 826   0.0000       4.513578       122.8207 
 827   0.0000       4.520896       123.0198 
 828   0.0000       4.529088       123.2427 
 829   0.0000       4.536898       123.4553 
 830   0.0000       4.548320       123.7661 
 831   0.0000       4.557101       124.0050 
 832   0.0000       4.562055       124.1398 
 833   0.0000       4.570270       124.3634 
 834   0.0000       4.583367       124.7198 
 835   0.0000       4.587917       124.8436 
 836   0.0000       4.596655       125.0813 
 837   0.0000       4.625459       125.8651 
 838   0.0000       4.629028       125.9623 
 839   0.0000       4.634647       126.1151 
 840   0.0000       4.650424       126.5445 
 841   0.0000       4.657064       126.7251 
 842   0.0000       4.671371       127.1145 
 843   0.0000       4.681161       127.3809 
 844   0.0000       4.691557       127.6638 
 845   0.0000       4.703384       127.9856 
 846   0.0000       4.716452       128.3412 
 847   0.0000       4.725739       128.5939 
 848   0.0000       4.735694       128.8648 
 849   0.0000       4.745638       129.1354 
 850   0.0000       4.749817       129.2491 
 851   0.0000       4.760526       129.5405 
 852   0.0000       4.785631       130.2236 
 853   0.0000       4.800656       130.6325 
 854   0.0000       4.811167       130.9185 
 855   0.0000       4.811294       130.9220 
 856   0.0000       4.828800       131.3983 
 857   0.0000       4.831449       131.4704 
 858   0.0000       4.836874       131.6180 
 859   0.0000       4.868025       132.4657 
 860   0.0000       4.868541       132.4797 
 861   0.0000       4.884068       132.9022 
 862   0.0000       4.905879       133.4958 
 863   0.0000       4.920577       133.8957 
 864   0.0000       4.928795       134.1193 
 865   0.0000       4.946000       134.5875 
 866   0.0000       4.959396       134.9520 
 867   0.0000       4.962541       135.0376 
 868   0.0000       4.968324       135.1950 
 869   0.0000       4.976669       135.4220 
 870   0.0000       4.984596       135.6378 
 871   0.0000       4.989524       135.7719 
 872   0.0000       5.002019       136.1119 
 873   0.0000       5.009312       136.3103 
 874   0.0000       5.018966       136.5730 
 875   0.0000       5.043971       137.2534 
 876   0.0000       5.053009       137.4994 
 877   0.0000       5.062501       137.7577 
 878   0.0000       5.072877       138.0400 
 879   0.0000       5.084576       138.3583 
 880   0.0000       5.095490       138.6553 
 881   0.0000       5.113764       139.1526 
 882   0.0000       5.114652       139.1768 
 883   0.0000       5.131295       139.6296 
 884   0.0000       5.149040       140.1125 
 885   0.0000       5.150902       140.1632 
 886   0.0000       5.173395       140.7752 
 887   0.0000       5.174762       140.8124 
 888   0.0000       5.192223       141.2876 
 889   0.0000       5.208254       141.7238 
 890   0.0000       5.211213       141.8043 
 891   0.0000       5.216574       141.9502 
 892   0.0000       5.241842       142.6378 
 893   0.0000       5.258129       143.0810 
 894   0.0000       5.267985       143.3492 
 895   0.0000       5.277063       143.5962 
 896   0.0000       5.286947       143.8651 
 897   0.0000       5.306820       144.4059 
 898   0.0000       5.323064       144.8479 
 899   0.0000       5.328884       145.0063 
 900   0.0000       5.343393       145.4011 
 901   0.0000       5.359885       145.8499 
 902   0.0000       5.371414       146.1636 
 903   0.0000       5.386207       146.5662 
 904   0.0000       5.403061       147.0248 
 905   0.0000       5.416360       147.3866 
 906   0.0000       5.423385       147.5778 
 907   0.0000       5.428904       147.7280 
 908   0.0000       5.445645       148.1835 
 909   0.0000       5.450182       148.3070 
 910   0.0000       5.459786       148.5683 
 911   0.0000       5.468305       148.8002 
 912   0.0000       5.485766       149.2753 
 913   0.0000       5.509287       149.9153 
 914   0.0000       5.516751       150.1184 
 915   0.0000       5.531366       150.5161 
 916   0.0000       5.542002       150.8056 
 917   0.0000       5.556094       151.1890 
 918   0.0000       5.563342       151.3862 
 919   0.0000       5.579329       151.8212 
 920   0.0000       5.583878       151.9451 
 921   0.0000       5.587410       152.0412 
 922   0.0000       5.606652       152.5647 
 923   0.0000       5.609751       152.6491 
 924   0.0000       5.626351       153.1008 
 925   0.0000       5.636090       153.3658 
 926   0.0000       5.640720       153.4918 
 927   0.0000       5.657646       153.9524 
 928   0.0000       5.664337       154.1345 
 929   0.0000       5.683430       154.6540 
 930   0.0000       5.690106       154.8357 
 931   0.0000       5.700604       155.1213 
 932   0.0000       5.713303       155.4669 
 933   0.0000       5.722906       155.7282 
 934   0.0000       5.732026       155.9764 
 935   0.0000       5.748498       156.4246 
 936   0.0000       5.760842       156.7605 
 937   0.0000       5.788679       157.5180 
 938   0.0000       5.798774       157.7927 
 939   0.0000       5.826571       158.5490 
 940   0.0000       5.834243       158.7578 
 941   0.0000       5.841016       158.9421 
 942   0.0000       5.867223       159.6553 
 943   0.0000       5.883490       160.0979 
 944   0.0000       5.918483       161.0501 
 945   0.0000       6.018420       163.7695 
 946   0.0000       6.038390       164.3129 
 947   0.0000       6.063435       164.9945 
 948   0.0000       6.092833       165.7944 
 949   0.0000       6.110993       166.2886 
 950   0.0000       6.146896       167.2655 
 951   0.0000       6.161653       167.6671 
 952   0.0000       6.167198       167.8180 
 953   0.0000       6.188724       168.4038 
 954   0.0000       6.209547       168.9704 
 955   0.0000       6.219298       169.2357 
 956   0.0000       6.230200       169.5324 
 957   0.0000       6.247157       169.9938 
 958   0.0000       6.276363       170.7885 
 959   0.0000       6.287056       171.0795 
 960   0.0000       6.301118       171.4621 
 961   0.0000       6.306997       171.6221 
 962   0.0000       6.318232       171.9278 
 963   0.0000       6.333349       172.3392 
 964   0.0000       6.343024       172.6025 
 965   0.0000       6.356716       172.9750 
 966   0.0000       6.368939       173.3076 
 967   0.0000       6.391131       173.9115 
 968   0.0000       6.437260       175.1668 
 969   0.0000       6.525916       177.5792 
 970   0.0000       6.550547       178.2494 
 971   0.0000       6.621807       180.1885 
 972   0.0000       6.814194       185.4237 
 973   0.0000       6.840314       186.1344 
 974   0.0000       6.870535       186.9568 
 975   0.0000       6.894281       187.6029 
 976   0.0000       6.900775       187.7796 
 977   0.0000       6.915783       188.1880 
 978   0.0000       6.927365       188.5032 
 979   0.0000       6.988207       190.1588 
 980   0.0000       7.005808       190.6377 
 981   0.0000       7.010842       190.7747 
 982   0.0000       7.023792       191.1271 
 983   0.0000       7.029815       191.2910 
 984   0.0000       7.065090       192.2509 
 985   0.0000       7.118081       193.6928 
 986   0.0000       7.229637       196.7284 
 987   0.0000       7.304240       198.7585 
 988   0.0000       7.333607       199.5576 
 989   0.0000       7.381664       200.8653 
 990   0.0000       7.491876       203.8643 
 991   0.0000       7.564118       205.8301 
 992   0.0000       7.628033       207.5693 
 993   0.0000       7.690389       209.2661 
 994   0.0000       7.757090       211.0811 
 995   0.0000       7.876433       214.3286 
 996   0.0000       7.928939       215.7574 
 997   0.0000       8.019343       218.2174 
 998   0.0000       8.269080       225.0131 
 999   0.0000       9.407100       255.9802 
 1000   0.0000       9.421319       256.3671 
 1001   0.0000       9.430191       256.6085 
 1002   0.0000       9.439448       256.8604 
 1003   0.0000       9.456895       257.3352 
 1004   0.0000       9.480084       257.9662 
 1005   0.0000       9.688122       263.6272 
 1006   0.0000      10.087610       274.4978 
 1007   0.0000      10.092634       274.6345 
 1008   0.0000      10.109729       275.0997 
 1009   0.0000      10.206540       277.7341 
 1010   0.0000      10.211083       277.8577 
 1011   0.0000      10.239394       278.6281 
 1012   0.0000      10.346455       281.5414 
 1013   0.0000      10.388349       282.6813 
 1014   0.0000      10.485752       285.3318 
 1015   0.0000      12.351484       336.1010 
 1016   0.0000      16.868477       459.0146 
 1017   0.0000      17.615114       479.3316 
 1018   0.0000      18.259302       496.8609 
 1019   0.0000      18.381043       500.1736 
 1020   0.0000      18.649675       507.4834 
 1021   0.0000      18.850446       512.9467 
 1022   0.0000      20.240577       550.7741 
 1023   0.0000      20.955109       570.2175 
 1024   0.0000      21.554324       586.5230 

                 SPIN DOWN ORBITALS
  NO   OCC          E(Eh)            E(eV) 
   0   1.0000    -261.565960     -7117.5716 
   1   1.0000    -104.788602     -2851.4428 
   2   1.0000    -104.784940     -2851.3432 
   3   1.0000    -104.782317     -2851.2718 
   4   1.0000     -32.075288      -872.8130 
   5   1.0000     -27.553205      -749.7608 
   6   1.0000     -27.553145      -749.7592 
   7   1.0000     -27.552996      -749.7551 
   8   1.0000     -20.605319      -560.6992 
   9   1.0000     -11.418374      -310.7098 
  10   1.0000     -11.286266      -307.1149 
  11   1.0000     -11.274093      -306.7837 
  12   1.0000     -11.270329      -306.6813 
  13   1.0000     -11.254212      -306.2427 
  14   1.0000     -11.252456      -306.1949 
  15   1.0000     -11.238912      -305.8263 
  16   1.0000     -11.237427      -305.7859 
  17   1.0000     -10.515214      -286.1335 
  18   1.0000     -10.511509      -286.0327 
  19   1.0000     -10.508843      -285.9602 
  20   1.0000      -7.981117      -217.1772 
  21   1.0000      -7.980421      -217.1583 
  22   1.0000      -7.980374      -217.1570 
  23   1.0000      -7.977417      -217.0766 
  24   1.0000      -7.976704      -217.0571 
  25   1.0000      -7.976617      -217.0548 
  26   1.0000      -7.974817      -217.0058 
  27   1.0000      -7.973984      -216.9831 
  28   1.0000      -7.973892      -216.9806 
  29   1.0000      -4.150186      -112.9323 
  30   1.0000      -2.671801       -72.7034 
  31   1.0000      -2.671725       -72.7013 
  32   1.0000      -2.671266       -72.6888 
  33   1.0000      -1.441796       -39.2333 
  34   1.0000      -1.137946       -30.9651 
  35   1.0000      -1.092848       -29.7379 
  36   1.0000      -1.046914       -28.4880 
  37   1.0000      -1.034624       -28.1535 
  38   1.0000      -1.030751       -28.0481 
  39   1.0000      -1.025098       -27.8943 
  40   1.0000      -1.005443       -27.3595 
  41   1.0000      -0.968973       -26.3671 
  42   1.0000      -0.902881       -24.5686 
  43   1.0000      -0.823284       -22.4027 
  44   1.0000      -0.740532       -20.1509 
  45   1.0000      -0.706907       -19.2359 
  46   1.0000      -0.693688       -18.8762 
  47   1.0000      -0.681342       -18.5402 
  48   1.0000      -0.662619       -18.0308 
  49   1.0000      -0.629446       -17.1281 
  50   1.0000      -0.621111       -16.9013 
  51   1.0000      -0.605923       -16.4880 
  52   1.0000      -0.597265       -16.2524 
  53   1.0000      -0.583666       -15.8824 
  54   1.0000      -0.574076       -15.6214 
  55   1.0000      -0.561896       -15.2900 
  56   1.0000      -0.560833       -15.2610 
  57   1.0000      -0.548514       -14.9258 
  58   1.0000      -0.543502       -14.7894 
  59   1.0000      -0.531710       -14.4686 
  60   1.0000      -0.519986       -14.1495 
  61   1.0000      -0.503351       -13.6969 
  62   1.0000      -0.498386       -13.5618 
  63   1.0000      -0.480975       -13.0880 
  64   1.0000      -0.477783       -13.0011 
  65   1.0000      -0.450763       -12.2659 
  66   1.0000      -0.446529       -12.1507 
  67   1.0000      -0.444028       -12.0826 
  68   1.0000      -0.428438       -11.6584 
  69   1.0000      -0.424111       -11.5407 
  70   1.0000      -0.409461       -11.1420 
  71   1.0000      -0.364864        -9.9285 
  72   0.0000       0.011879         0.3232 
  73   0.0000       0.022281         0.6063 
  74   0.0000       0.023479         0.6389 
  75   0.0000       0.029568         0.8046 
  76   0.0000       0.038274         1.0415 
  77   0.0000       0.040099         1.0912 
  78   0.0000       0.041837         1.1384 
  79   0.0000       0.043951         1.1960 
  80   0.0000       0.044352         1.2069 
  81   0.0000       0.049844         1.3563 
  82   0.0000       0.057047         1.5523 
  83   0.0000       0.060843         1.6556 
  84   0.0000       0.061271         1.6673 
  85   0.0000       0.062641         1.7045 
  86   0.0000       0.064850         1.7646 
  87   0.0000       0.070230         1.9111 
  88   0.0000       0.076648         2.0857 
  89   0.0000       0.083158         2.2628 
  90   0.0000       0.088718         2.4142 
  91   0.0000       0.090517         2.4631 
  92   0.0000       0.092659         2.5214 
  93   0.0000       0.099491         2.7073 
  94   0.0000       0.101068         2.7502 
  95   0.0000       0.102832         2.7982 
  96   0.0000       0.105415         2.8685 
  97   0.0000       0.109364         2.9759 
  98   0.0000       0.110452         3.0055 
  99   0.0000       0.112686         3.0664 
 100   0.0000       0.114067         3.1039 
 101   0.0000       0.116186         3.1616 
 102   0.0000       0.118977         3.2375 
 103   0.0000       0.122484         3.3330 
 104   0.0000       0.123431         3.3587 
 105   0.0000       0.124692         3.3930 
 106   0.0000       0.126398         3.4395 
 107   0.0000       0.130125         3.5409 
 108   0.0000       0.132975         3.6184 
 109   0.0000       0.134949         3.6722 
 110   0.0000       0.135597         3.6898 
 111   0.0000       0.139200         3.7878 
 112   0.0000       0.145919         3.9707 
 113   0.0000       0.148138         4.0310 
 114   0.0000       0.153130         4.1669 
 115   0.0000       0.153505         4.1771 
 116   0.0000       0.158172         4.3041 
 117   0.0000       0.160736         4.3738 
 118   0.0000       0.160973         4.3803 
 119   0.0000       0.169301         4.6069 
 120   0.0000       0.170663         4.6440 
 121   0.0000       0.172345         4.6897 
 122   0.0000       0.173893         4.7319 
 123   0.0000       0.178939         4.8692 
 124   0.0000       0.182362         4.9623 
 125   0.0000       0.183909         5.0044 
 126   0.0000       0.187126         5.0920 
 127   0.0000       0.189637         5.1603 
 128   0.0000       0.193542         5.2665 
 129   0.0000       0.200351         5.4518 
 130   0.0000       0.200879         5.4662 
 131   0.0000       0.203035         5.5249 
 132   0.0000       0.207334         5.6418 
 133   0.0000       0.210314         5.7229 
 134   0.0000       0.216236         5.8841 
 135   0.0000       0.219918         5.9843 
 136   0.0000       0.222950         6.0668 
 137   0.0000       0.229612         6.2481 
 138   0.0000       0.229786         6.2528 
 139   0.0000       0.233881         6.3642 
 140   0.0000       0.234588         6.3835 
 141   0.0000       0.237215         6.4549 
 142   0.0000       0.241260         6.5650 
 143   0.0000       0.243675         6.6307 
 144   0.0000       0.247375         6.7314 
 145   0.0000       0.251958         6.8561 
 146   0.0000       0.255194         6.9442 
 147   0.0000       0.261003         7.1023 
 148   0.0000       0.266763         7.2590 
 149   0.0000       0.269229         7.3261 
 150   0.0000       0.270553         7.3621 
 151   0.0000       0.275860         7.5065 
 152   0.0000       0.280380         7.6295 
 153   0.0000       0.284961         7.7542 
 154   0.0000       0.287576         7.8253 
 155   0.0000       0.290899         7.9158 
 156   0.0000       0.293312         7.9814 
 157   0.0000       0.296939         8.0801 
 158   0.0000       0.299911         8.1610 
 159   0.0000       0.304944         8.2979 
 160   0.0000       0.310053         8.4370 
 161   0.0000       0.313174         8.5219 
 162   0.0000       0.321787         8.7563 
 163   0.0000       0.325291         8.8516 
 164   0.0000       0.326041         8.8720 
 165   0.0000       0.333817         9.0836 
 166   0.0000       0.334745         9.1089 
 167   0.0000       0.337805         9.1921 
 168   0.0000       0.344314         9.3693 
 169   0.0000       0.345291         9.3958 
 170   0.0000       0.349591         9.5129 
 171   0.0000       0.350379         9.5343 
 172   0.0000       0.355762         9.6808 
 173   0.0000       0.360523         9.8103 
 174   0.0000       0.363555         9.8928 
 175   0.0000       0.368495        10.0273 
 176   0.0000       0.370517        10.0823 
 177   0.0000       0.375084        10.2066 
 178   0.0000       0.376975        10.2580 
 179   0.0000       0.379286        10.3209 
 180   0.0000       0.381665        10.3856 
 181   0.0000       0.384533        10.4637 
 182   0.0000       0.385391        10.4870 
 183   0.0000       0.391841        10.6625 
 184   0.0000       0.392030        10.6677 
 185   0.0000       0.393845        10.7171 
 186   0.0000       0.396481        10.7888 
 187   0.0000       0.400081        10.8868 
 188   0.0000       0.405663        11.0387 
 189   0.0000       0.408539        11.1169 
 190   0.0000       0.416001        11.3200 
 191   0.0000       0.419547        11.4164 
 192   0.0000       0.422062        11.4849 
 193   0.0000       0.425430        11.5765 
 194   0.0000       0.430218        11.7068 
 195   0.0000       0.432285        11.7631 
 196   0.0000       0.439463        11.9584 
 197   0.0000       0.443167        12.0592 
 198   0.0000       0.447794        12.1851 
 199   0.0000       0.449257        12.2249 
 200   0.0000       0.453154        12.3309 
 201   0.0000       0.454771        12.3750 
 202   0.0000       0.455340        12.3904 
 203   0.0000       0.462345        12.5811 
 204   0.0000       0.464817        12.6483 
 205   0.0000       0.469735        12.7821 
 206   0.0000       0.473180        12.8759 
 207   0.0000       0.476275        12.9601 
 208   0.0000       0.480772        13.0825 
 209   0.0000       0.481510        13.1026 
 210   0.0000       0.486997        13.2519 
 211   0.0000       0.487778        13.2731 
 212   0.0000       0.490577        13.3493 
 213   0.0000       0.497966        13.5503 
 214   0.0000       0.500908        13.6304 
 215   0.0000       0.504506        13.7283 
 216   0.0000       0.505800        13.7635 
 217   0.0000       0.510952        13.9037 
 218   0.0000       0.512024        13.9329 
 219   0.0000       0.515739        14.0340 
 220   0.0000       0.517327        14.0772 
 221   0.0000       0.518556        14.1106 
 222   0.0000       0.524038        14.2598 
 223   0.0000       0.526201        14.3187 
 224   0.0000       0.526741        14.3333 
 225   0.0000       0.533199        14.5091 
 226   0.0000       0.535143        14.5620 
 227   0.0000       0.537273        14.6199 
 228   0.0000       0.538985        14.6665 
 229   0.0000       0.543753        14.7963 
 230   0.0000       0.548066        14.9136 
 231   0.0000       0.550123        14.9696 
 232   0.0000       0.552182        15.0256 
 233   0.0000       0.559282        15.2188 
 234   0.0000       0.563279        15.3276 
 235   0.0000       0.565094        15.3770 
 236   0.0000       0.569482        15.4964 
 237   0.0000       0.573453        15.6044 
 238   0.0000       0.576566        15.6892 
 239   0.0000       0.583774        15.8853 
 240   0.0000       0.584784        15.9128 
 241   0.0000       0.587551        15.9881 
 242   0.0000       0.592388        16.1197 
 243   0.0000       0.595206        16.1964 
 244   0.0000       0.597649        16.2628 
 245   0.0000       0.599581        16.3154 
 246   0.0000       0.605443        16.4750 
 247   0.0000       0.606506        16.5039 
 248   0.0000       0.612735        16.6734 
 249   0.0000       0.616867        16.7858 
 250   0.0000       0.621930        16.9236 
 251   0.0000       0.625353        17.0167 
 252   0.0000       0.628456        17.1011 
 253   0.0000       0.633733        17.2447 
 254   0.0000       0.638021        17.3614 
 255   0.0000       0.640740        17.4354 
 256   0.0000       0.642652        17.4875 
 257   0.0000       0.654279        17.8038 
 258   0.0000       0.655008        17.8237 
 259   0.0000       0.656453        17.8630 
 260   0.0000       0.661558        18.0019 
 261   0.0000       0.665256        18.1025 
 262   0.0000       0.669174        18.2092 
 263   0.0000       0.671577        18.2745 
 264   0.0000       0.673354        18.3229 
 265   0.0000       0.681525        18.5452 
 266   0.0000       0.686512        18.6809 
 267   0.0000       0.688880        18.7454 
 268   0.0000       0.697439        18.9783 
 269   0.0000       0.701923        19.1003 
 270   0.0000       0.706447        19.2234 
 271   0.0000       0.712704        19.3937 
 272   0.0000       0.717400        19.5214 
 273   0.0000       0.720008        19.5924 
 274   0.0000       0.721207        19.6250 
 275   0.0000       0.724928        19.7263 
 276   0.0000       0.728799        19.8316 
 277   0.0000       0.736498        20.0411 
 278   0.0000       0.737977        20.0814 
 279   0.0000       0.741240        20.1702 
 280   0.0000       0.745000        20.2725 
 281   0.0000       0.748250        20.3609 
 282   0.0000       0.756712        20.5912 
 283   0.0000       0.764227        20.7957 
[...]
  | sigma^2 in % of trace(Dij) retained ...   9.32e+00
  | sigma^2 in % of trace(Dip) retained ...   1.52e+01
  | sigma^2 in % of trace(Dpq) retained ...   1.36e-01
  | Av. % of trace(Di) retained         ...  99.998560937373
  | Av. % of trace(Dp) retained         ...  99.999999575857
  | sigma^2 in % of trace(Di) retained  ...   6.73e-07
  | sigma^2 in % of trace(Dp) retained  ...   2.72e-13
 Distributions of % trace(Dij) recovered:
  |       >= 99.9  ...   105 ( 22.2 % of all IJ-pairs)
  |   [80.0, 90.0) ...    25 (  5.3 % of all IJ-pairs)
  |   [90.0, 99.0) ...   251 ( 53.0 % of all IJ-pairs)
  |   [99.0, 99.9) ...    93 ( 19.6 % of all IJ-pairs)
 Distributions of % trace(Dip) recovered:
  |   [80.0, 90.0) ...    13 ( 11.5 % of all IP-pairs)
  |   [90.0, 99.0) ...    56 ( 49.6 % of all IP-pairs)
  |   [99.0, 99.9) ...    44 ( 38.9 % of all IP-pairs)
 Distributions of % trace(Dpq) recovered:
  |       >= 99.9  ...     5 ( 33.3 % of all PQ-pairs)
  |   [99.0, 99.9) ...    10 ( 66.7 % of all PQ-pairs)
 Distributions of % trace(Di) recovered :
  |       >= 99.9  ...    43 (100.0 % of all I-pairs )
 Distributions of % trace(Dp) recovered :
  |       >= 99.9  ...     5 (100.0 % of all P-pairs )

                       ===========================
                       1043 OF 1650 PAIRS ARE KEPT
                       ===========================

 Initial PAO correlation energy (all pairs)    ...  -2.6867814225 Eh
 Energy constituents in PAO basis (Eh):
  | Vijab(+0) ...  -2.2595184391
  | Viab (-1) ...  -0.1741579171
  | Vab  (-2) ...  -0.0573384427
  | Va   (-1) ...  -0.0000447179
  | Vija (+1) ...  -0.0715362146
  | Vij  (+2) ...  -0.0155289032
  | Via  (+0) ...  -0.1084939158
  | Vi   (+1) ...  -0.0001628719
 Initial PNO correlation energy                ...  -2.6521395628 Eh
 Energy constituents in PNO basis (Eh):
  | Vijab(+0) ...  -2.2404463878 (err=  0.0190720513)
  | Viab (-1) ...  -0.1601916309 (err=  0.0139662862)
  | Vab  (-2) ...  -0.0568838059 (err=  0.0004546368)
  | Va   (-1) ...  -0.0000259054 (err=  0.0000188125)
  | Vija (+1) ...  -0.0705822060 (err=  0.0009540087)
  | Vij  (+2) ...  -0.0154713936 (err=  0.0000575097)
  | Via  (+0) ...  -0.1083759506 (err=  0.0001179652)
  | Vi   (+1) ...  -0.0001622826 (err=  0.0000005893)
 Sum of total truncation errors ...   0.0346418596 Eh
  | Pair screening ...   0.0122479530 Eh
  | PNO truncation ...   0.0223939066 Eh

 UMP2 correlation energy (PAO) ...  -2.6817635999
  | alpha-alpha ...  -0.3848387788 (NP_aa=  885)
  | alpha-beta  ...  -1.9916512444 (NP_ab= 1625)
  | beta -beta  ...  -0.3052735766 (NP_bb=  707)
 UMP2 correlation energy (PNO) ...  -2.6467522064
  | alpha-alpha ...  -0.3727417673 (err=  0.0120970115, NP_aa=  554)
  | alpha-beta  ...  -1.9729291633 (err=  0.0187220812, NP_ab= 1018)
  | beta -beta  ...  -0.3010812758 (err=  0.0041923008, NP_bb=  431)
 Sum of total UMP2 truncation errors ...   0.0350113935 Eh
  | Pair screening ...   0.0122550398 Eh
  | PNO truncation ...   0.0227563537 Eh
 Timing for NEV-PNO construction (sec.)
  | Intermediate construction  ..           42.662
  | Amplitude construction     ..           61.847
  | Total time                 ..          104.509
 Making pair pair interaction lists ...      ok
 Total size for 2-ext PNO integrals ...     10.7 MB
Checking the number of SOMO/SOMO doubles PNOs ... 
 #Truncate: (72, 72)[171] -> [87] .. 
 #Truncate: (73, 73)[172] -> [87] .. 
 #Truncate: (74, 74)[171] -> [87] .. 
 #Truncate: (75, 75)[171] -> [87] .. 
 #Truncate: (76, 76)[172] -> [87] .. 

--------------------------------
LOCAL RI TRANSFORMATION (VABPAO)
--------------------------------

Number of PAOs:    1030
Basis functions:   1025 (343 shells)
Aux. functions:    2424 (644 shells)

Processing maps (0.0 sec)
Average map sizes:
   Aux shells -> PAOs           1030.0
   PAOs       -> AO shells       343.0

Calculating integrals (192.9 sec, 37370.165 MB)
Finished
-----------------------------
LOCAL RI TRANSFORMATION (IJV)
-----------------------------

Orbital window:      29 to 76
Basis functions:   1025 (343 shells)
Aux. functions:    2424 (644 shells)

Processing maps (0.0 sec)
Average map sizes:
   Aux shells -> MOs(i)           46.1
   Aux shells -> MOs(j)           48.0
   MOs        -> AO shells       340.1

Calculating integrals (23.1 sec, 41.038 MB)
Sorting integrals (0.3 sec, 41.010 MB)
Total time for the integral transformation: 23.5 sec


-------------------------------------
Pair Pair Term precalculation with     
RI-(ij|mn) and (im|jn) transformation  
ON THE FLY                             
-------------------------------------

   IBatch   1 (of   2)              ... done ( 1183.392 sec)
   IBatch   2 (of   2)              ... done (  758.181 sec)
Total EXT                           ...        1941.573 sec

---------------------
RI-PNO TRANSFORMATION
---------------------

Total Number of PNOs                   ... 33085
Total Number of IJ-PNOs                ... 28984
Total Number of IP-PNOs                ...  3138
Total Number of PQ-PNOs                ...   963
Total Number of IJ-pairs               ...   905
Total Number of PI-pairs               ...   113
Total Number of PQ-pairs               ...    25
Average number of PNOs per pair        ...    31
Maximal number of PNOs per pair        ...    87
>> Statistics for ij-pairs..
   #pairs with  1 -  5 PNOs   :    0
   #pairs with  6 - 10 PNOs   :    0
   #pairs with 11 - 15 PNOs   :   62
   #pairs with 16 - 20 PNOs   :  196
   #pairs with 21 - 25 PNOs   :  156
   #pairs with 26 - 30 PNOs   :  136
   #pairs with 31 - 35 PNOs   :   58
   #pairs with 36 - 40 PNOs   :   62
   #pairs with 41 - 45 PNOs   :   42
   #pairs with 46 - 50 PNOs   :   26
   #pairs with 51 - 55 PNOs   :   31
   #pairs with 56 - 60 PNOs   :   60
   #pairs with 61 - 65 PNOs   :   71
   #pairs with 66 - 70 PNOs   :    2
   #pairs with 71 - 75 PNOs   :    1
   #pairs with 81 - 85 PNOs   :    2
>> Statistics for ip-pairs..
   #pairs with  1 -  5 PNOs   :    0
   #pairs with  6 - 10 PNOs   :    1
   #pairs with 11 - 15 PNOs   :   12
   #pairs with 16 - 20 PNOs   :    8
   #pairs with 21 - 25 PNOs   :   24
   #pairs with 26 - 30 PNOs   :    8
   #pairs with 31 - 35 PNOs   :   46
   #pairs with 36 - 40 PNOs   :   13
   #pairs with 41 - 45 PNOs   :    1
   #pairs with 46 - 50 PNOs   :    0
>> Statistics for pq-pairs..
   #pairs with  1 -  5 PNOs   :    0
   #pairs with  6 - 10 PNOs   :    0
   #pairs with 11 - 15 PNOs   :    0
   #pairs with 16 - 20 PNOs   :    0
   #pairs with 21 - 25 PNOs   :   10
   #pairs with 26 - 30 PNOs   :   10
   #pairs with 31 - 35 PNOs   :    0
   #pairs with 36 - 40 PNOs   :    0
   #pairs with 41 - 45 PNOs   :    0
   #pairs with 46 - 50 PNOs   :    0
   #pairs with 86 - 90 PNOs   :    5

Generation of (ij|ab)[P] integrals            ... on
Generation of (ia|bc)[P],(ja|bc)[P] integrals ... on
Storage of 3 and 4 external integrals         ... on
Generation of ALL (ka|bc)[P] integrals        ... on
Keep RI integrals in memory                   ... off

Ibatch:  1 (of  1)
Starting 2-4 index PNO integral generation ... done

Timings:
Total PNO integral transformation time     ...       1961.958 sec
Size of the 3-external file                ...       284 MB
Size of the 4-external file                ...      1944 MB
Size of the IKJL file                      ...        16 MB
Size of the all 3-external file            ...      6815 MB
Size of the 1-external file                ...        21 MB

Size of the PAO/PNO coefficient matrices   ...     208.2 MB

Making pair/pair overlap matrices          ... done (  343.204 sec)
Size of the pair overlap file              ...    2298.0 MB
Total # unrestricted pairs ...       2003
  # of alpha-alpha pairs   ...        554
  # of alpha-beta pairs    ...       1018
  # of beta-beta pairs     ...        431
Constructing the guess amplitudes          ... done (    0.606 sec)

-------------------------
FINAL STARTUP INFORMATION
-------------------------

E(0)                                       ...  -3028.453192384
E(SL-UMP2 in NEV-PNO space)                ...     -2.682764668
Initial E(tot)                             ...  -3031.135957052
<T|T>                                      ...      0.534300856
Number of unrestricted pairs included      ... 2003
Total number of pairs                      ... 4095
----------------------------------------------------------
                     OPEN-SHELL COUPLED CLUSTER ITERATIONS
----------------------------------------------------------

Number of PNO amplitudes to be optimized        ...          2058123
Number of canonical amplitudes for strong pairs ...       1809112570
Untruncated number of canonical amplitudes      ...       3698645738

Iter       E(tot)           E(Corr)          Delta-E          Residual     Time
  0  -3031.143159558     -2.653954712      0.028809956      0.020819561 1676.73
                           *** Turning on DIIS ***
  1  -3031.257567770     -2.768362925     -0.114408212      0.009948681 1670.76
  2  -3031.322451211     -2.833246365     -0.064883440      0.008322035 1667.81
  3  -3031.344242956     -2.855038111     -0.021791745      0.003252445 1670.30
  4  -3031.351791222     -2.862586376     -0.007548266      0.002644394 1680.09
  5  -3031.355915746     -2.866710901     -0.004124525      0.001526379 1695.80
  6  -3031.357430485     -2.868225640     -0.001514739      0.000808221 1698.83
  7  -3031.358085885     -2.868881039     -0.000655400      0.000503747 1687.46
  8  -3031.358228920     -2.869024075     -0.000143035      0.000260049 1698.94
  9  -3031.358288901     -2.869084055     -0.000059981      0.000162482 1693.34
 10  -3031.358288773     -2.869083928      0.000000128      0.000099461 1691.60
 11  -3031.358301843     -2.869096998     -0.000013070      0.000059457 1692.37
 12  -3031.358306570     -2.869101725     -0.000004727      0.000026742 1695.00
 13  -3031.358308970     -2.869104125     -0.000002400      0.000019195 1694.16
 14  -3031.358310611     -2.869105766     -0.000001641      0.000007109 1431.03
               --- The CCSD iterations have converged ---

E(0)                                       ...  -3028.453192384
E(CORR)(strong-pairs)                      ...     -2.869105766
E(CORR)(weak-pairs)                        ...     -0.036012462
E(CORR)(corrected)                         ...     -2.905118228
E(TOT)                                     ...  -3031.358310611
Singles norm <S|S>**1/2                    ...      0.194822600 ( 0.065050609, 0.129771991)  
T1 diagnostic                              ...      0.020422958                              
<S**2>(linearized)                         ...      8.7508348 (ideal value:      8.7500000)

----------------------
LARGEST PNO AMPLITUDES
----------------------
  49b-> 72b  -1b-> -1b       0.054385
  51b-> 76b  -1b-> -1b       0.053825
  52b-> 76b  -1b-> -1b       0.053683
  47a-> 78a  47b-> 78b       0.053074
  49b-> 75b  -1b-> -1b       0.047514
  49b-> 74b  -1b-> -1b       0.046012
  43a-> 77a  43b-> 77b       0.044846
  63a-> 77a  63b-> 77b       0.044751
  47a-> 77a  47b-> 77b       0.044634
  67a-> 77a  67b-> 77b       0.044075
  71a-> 77a  71b-> 77b       0.043904
  55a-> 77a  55b-> 77b       0.043733
  56a-> 78a  56b-> 78b       0.043418
  65a-> 77a  65b-> 77b       0.043023
  37b-> 73b  -1b-> -1b       0.042857
  35b-> 72b  -1b-> -1b       0.042816

Total # unrestricted pairs ...       1214
  # of alpha-alpha pairs   ...        331
  # of alpha-beta pairs    ...        607
  # of beta-beta pairs     ...        276

-------------------------------------------
DLPNO BASED TRIPLES CORRECTION
-------------------------------------------

Singles multiplier          ...  1.000000
Fragment selection                          .... not used
TCutTNO                     ... 1.000e-09
TCutMP2Pairs                ... 1.000e-05
TCutDOStrong                ... 2.000e-02
TCutMKNStrong               ... 1.000e-02
TCutDOWeak                  ... 4.000e-02
TCutMKNWeak                 ... 1.000e-01
NTCutTNO                    ... 1

Number of Triples that are to be computed         ...     30290

 . . . . . . . . .
10% done  
20% done  
30% done  
40% done  
50% done  
60% done  
70% done  
80% done  
90% done  
          Batch   1   done (  11694.242 sec)

Triples-Correction TCutTNO=   1.000e-09 (NWeakPairs = 0  1  2  3)  -0.116825959294   -0.001863477045    0.000000000000    0.000000000000
Triples-Correction  -0.118689436339

Triples timings:
Total time                      ... 12192.403 sec

Triples List generation         ...     0.000 sec
TNO generation                  ...   497.926 sec
Pair density generation         ...     0.082 sec
Look up tables                  ...     0.099 sec
Generating 3-index integrals    ...  6886.353 sec
Make 4-ind.int. from 3-ind.int  ...     2.885 sec
Projecting amplitudes (D + S)   ...  4574.580 sec
Sorting integrals for spin cases...    47.614 sec
Calculate W0/W1                 ...   147.118 sec
Energy contr. (sum over a,b,c)  ...    35.574 sec

Everything after 3-index        ...  4915.212 sec

Energy contribution AAA         ...    22.633 sec
Energy contribution AAB         ...   102.255 sec
Energy contribution ABB         ...    93.057 sec
Energy contribution BBB         ...    12.394 sec
prep                ...     2.805 sec
makeTTNO            ...  4526.488 sec
copyij              ...     0.113 sec
copyil              ...     3.581 sec
transposeij         ...     0.070 sec
newMatInDoubleProj  ...    46.040 sec
BlasInDoubleProj    ...  2461.589 sec
ProjSingles         ...    39.433 sec
ProjDoubles         ...  4535.146 sec
overall Doubles for projection      ... 2654246
used Doubles for projection         ... 2654246


Number of Triples   (0, 1, 2, 3 weak pairs; overall):  14498   10530       0       0  ( 25028)
Number of Atoms     (0, 1, 2, 3 weak pairs; overall):   18.5    14.0     0.0     0.0  (    29)
Number of PAOs      (0, 1, 2, 3 weak pairs; overall):  730.7   561.4     0.0     0.0  (  1025)
Number of AuxFcns   (0, 1, 2, 3 weak pairs; overall):  835.9   568.4     0.0     0.0  (  2424)
Number of TNOs (0, 1, 2, 3 weak pairs         ):   79.7    57.5     0.0     0.0
Aver. Number of NTNO, Atoms, PAOs, AuxFcns / Triples:  25028    70.4    16.6   659.5   723.4

Triples Correction (T)                     ...     -0.118689436
    alpha-alpha-alpha ... -0.003806734 (  3.2%)
    alpha-alpha-beta  ... -0.055754756 ( 47.0%)
    alpha-beta -beta  ... -0.055071984 ( 46.4%)
    beta -beta -beta  ... -0.004055963 (  3.4%)
Final correlation energy                   ...     -3.023807664
E(CCSD)                                    ...  -3031.358310611
E(CCSD(T))                                 ...  -3031.477000048

----------------------------
STATISTICS FOR PAIR-ENERGIES
----------------------------
Minimum, maximum and average ratios of UMP and CCSD pair-energies ... 0.45, 1.44, 1.02


------------------------------------------------------------------------------- 
                                     TIMINGS                                   
------------------------------------------------------------------------------- 


Total execution time                   ...    45059.652 sec

Localization of occupied MO's          ...       10.126 sec (  0.0%)
Fock Matrix Formation                  ...     1390.223 sec (  3.1%)
Differential overlap integrals         ...        1.472 sec (  0.0%)
Organizing maps                        ...        1.647 sec (  0.0%)
RI 3-index integral generations        ...      279.559 sec (  0.6%)
RI-PNO integral transformation         ...     4331.005 sec (  9.6%)
Initial Guess                          ...     1746.984 sec (  3.9%)
DIIS Solver                            ...       16.030 sec (  0.0%)
State Vector Update                    ...        0.700 sec (  0.0%)
Sigma-vector construction              ...    25044.202 sec ( 55.6%)
  <0|H|D>                              ...        0.028 sec (  0.0% of sigma)
  <D|H|D>(0-ext)                       ...     4620.540 sec ( 18.4% of sigma)
  <D|H|D>(2-ext Fock)                  ...        1.440 sec (  0.0% of sigma)
  <D|H|D>(2-ext)                       ...     3325.873 sec ( 13.3% of sigma)
  <D|H|D>(4-ext)                       ...      168.238 sec (  0.7% of sigma)
  <D|H|D>(4-ext-corr)                  ...     1038.953 sec (  4.1% of sigma)
  CCSD doubles correction              ...      437.919 sec (  1.7% of sigma)
  <S|H|S>                              ...      655.835 sec (  2.6% of sigma)
  <S|H|D>(1-ext)                       ...      249.326 sec (  1.0% of sigma)
  <D|H|S>(1-ext)                       ...        0.818 sec (  0.0% of sigma)
  <S|H|D>(3-ext)                       ...       21.433 sec (  0.1% of sigma)
  CCSD singles correction              ...        0.005 sec (  0.0% of sigma)
  Fock-dressing                        ...     7438.180 sec ( 29.7% of sigma)
  Singles amplitudes                   ...      109.811 sec (  0.4% of sigma)
  (ik|jl)-dressing                     ...     5520.407 sec ( 22.0% of sigma)
  (ij|ab),(ia|jb)-dressing             ...     1168.773 sec (  4.7% of sigma)
  Pair energies                        ...        0.113 sec (  0.0% of sigma)
Total Time for computing (T)           ...    12567.454 sec ( 27.9% of ALL)


-------------------------   --------------------
FINAL SINGLE POINT ENERGY     -3031.477000047822
-------------------------   --------------------


                            ***************************************
                            *     ORCA property calculations      *
                            ***************************************

                                    ---------------------
                                    Active property flags
                                    ---------------------
   (+) Dipole Moment


------------------------------------------------------------------------------
                       ORCA ELECTRIC PROPERTIES CALCULATION
------------------------------------------------------------------------------

Dipole Moment Calculation                       ... on
Quadrupole Moment Calculation                   ... off
Polarizability Calculation                      ... off
GBWName                                         ... simple-grid-240-300-b3lyp_d3bj-631gd-gas-singlepoint-DLPNO_CCSD_T1-NormalPNO-augtz-gas.gbw
Electron density file                           ... simple-grid-240-300-b3lyp_d3bj-631gd-gas-singlepoint-DLPNO_CCSD_T1-NormalPNO-augtz-gas.scfp.tmp
The origin for moment calculation is the CENTER OF MASS  = (-0.321718, -0.047786  0.007011)

-------------
DIPOLE MOMENT
-------------
                                X             Y             Z
Electronic contribution:    -44.17024      -5.83269       0.53376
Nuclear contribution   :     47.93597       7.12017      -1.04465
                        -----------------------------------------
Total Dipole Moment    :      3.76573       1.28748      -0.51089
                        -----------------------------------------
Magnitude (a.u.)       :      4.01240
Magnitude (Debye)      :     10.19871



--------------------
Rotational spectrum 
--------------------
 
Rotational constants in cm-1:     0.019145     0.010423     0.009840 
Rotational constants in MHz :   573.951780   312.468001   294.996939 

 Dipole components along the rotational axes: 
x,y,z [a.u.] :     3.762945    -1.272945    -0.564985 
x,y,z [Debye]:     9.564647    -3.235570    -1.436077 

 

Timings for individual modules:

Sum of individual times         ...    61058.066 sec (=1017.634 min)
GTO integral calculation        ...       12.050 sec (=   0.201 min)   0.0 %
SCF iterations                  ...    15968.915 sec (= 266.149 min)  26.2 %
MDCI module                     ...    45077.101 sec (= 751.285 min)  73.8 %
                             ****ORCA TERMINATED NORMALLY****
TOTAL RUN TIME: 0 days 16 hours 57 minutes 40 seconds 616 msec
