
                                 *****************
                                 * O   R   C   A *
                                 *****************

           --- An Ab Initio, DFT and Semiempirical electronic structure package ---

                  #######################################################
                  #                        -***-                        #
                  #          Department of theory and spectroscopy      #
                  #               Directorship: Frank Neese             #
                  #        Max Planck Institute fuer Kohlenforschung    #
                  #                Kaiser Wilhelm Platz 1               #
                  #                 D-45470 Muelheim/Ruhr               #
                  #                      Germany                        #
                  #                                                     #
                  #                  All rights reserved                #
                  #                        -***-                        #
                  #######################################################


                         Program Version 4.1.2  - RELEASE  -


 With contributions from (in alphabetic order):
   Daniel Aravena         : Magnetic Properties
   Michael Atanasov       : Ab Initio Ligand Field Theory
   Alexander A. Auer      : GIAO ZORA
   Ute Becker             : Parallelization
   Giovanni Bistoni       : ED, Open-shell LED
   Martin Brehm           : Molecular dynamics
   Dmytro Bykov           : SCF Hessian
   Vijay G. Chilkuri      : MRCI spin determinant printing
   Dipayan Datta          : RHF DLPNO-CCSD density
   Achintya Kumar Dutta   : EOM-CC, STEOM-CC
   Dmitry Ganyushin       : Spin-Orbit,Spin-Spin,Magnetic field MRCI
   Miquel Garcia          : C-PCM Hessian
   Yang Guo               : DLPNO-NEVPT2, CIM, IAO-localization
   Andreas Hansen         : Spin unrestricted coupled pair/coupled cluster methods
   Benjamin Helmich-Paris : CASSCF linear response (MC-RPA)
   Lee Huntington         : MR-EOM, pCC
   Robert Izsak           : Overlap fitted RIJCOSX, COSX-SCS-MP3, EOM
   Christian Kollmar      : KDIIS, OOCD, Brueckner-CCSD(T), CCSD density
   Simone Kossmann        : Meta GGA functionals, TD-DFT gradient, OOMP2, MP2 Hessian
   Martin Krupicka        : AUTO-CI
   Lucas Lang             : DCDCAS
   Dagmar Lenk            : GEPOL surface, SMD
   Dimitrios Liakos       : Extrapolation schemes; parallel MDCI
   Dimitrios Manganas     : ROCIS; embedding schemes
   Dimitrios Pantazis     : SARC Basis sets
   Taras Petrenko         : DFT Hessian,TD-DFT gradient, ASA, ECA, R-Raman, ABS, FL, XAS/XES, NRVS
   Peter Pinski           : DLPNO-MP2, DLPNO-MP2 Gradient
   Christoph Reimann      : Effective Core Potentials
   Marius Retegan         : Local ZFS, SOC
   Christoph Riplinger    : Optimizer, TS searches, QM/MM, DLPNO-CCSD(T), (RO)-DLPNO pert. Triples
   Tobias Risthaus        : Range-separated hybrids, TD-DFT gradient, RPA, STAB
   Michael Roemelt        : Restricted open shell CIS
   Masaaki Saitow         : Open-shell DLPNO
   Barbara Sandhoefer     : DKH picture change effects
   Avijit Sen             : IP-ROCIS
   Kantharuban Sivalingam : CASSCF convergence, NEVPT2, FIC-MRCI
   Bernardo de Souza      : ESD, SOC TD-DFT
   Georgi Stoychev        : AutoAux, RI-MP2 NMR
   Willem Van den Heuvel  : Paramagnetic NMR
   Boris Wezisla          : Elementary symmetry handling
   Frank Wennmohs         : Technical directorship


 We gratefully acknowledge several colleagues who have allowed us to
 interface, adapt or use parts of their codes:
   Stefan Grimme, W. Hujo, H. Kruse,             : VdW corrections, initial TS optimization,
                  C. Bannwarth                     DFT functionals, gCP, sTDA/sTD-DF
   Ed Valeev                                     : LibInt (2-el integral package), F12 methods
   Garnet Chan, S. Sharma, J. Yang, R. Olivares  : DMRG
   Ulf Ekstrom                                   : XCFun DFT Library
   Mihaly Kallay                                 : mrcc  (arbitrary order and MRCC methods)
   Andreas Klamt, Michael Diedenhofen            : otool_cosmo (COSMO solvation model)
   Jiri Pittner, Ondrej Demel                    : Mk-CCSD
   Frank Weinhold                                : gennbo (NPA and NBO analysis)
   Christopher J. Cramer and Donald G. Truhlar   : smd solvation model
   Lars Goerigk                                  : TD-DFT with DH, B97 family of functionals
   V. Asgeirsson, H. Jonsson                     : NEB implementation
   FAccTs GmbH                                   : IRC, NEB, NEB-TS, Multilevel


 Your calculation uses the libint2 library for the computation of 2-el integrals
 For citations please refer to: http://libint.valeyev.net

 This ORCA versions uses:
   CBLAS   interface :  Fast vector & matrix operations
   LAPACKE interface :  Fast linear algebra routines
   SCALAPACK package :  Parallel linear algebra routines


----- Orbital basis set information -----
Your calculation utilizes the basis: aug-cc-pVTZ 
    H, B-Ne : Obtained from the ccRepo (grant-hill.group.shef.ac.uk/ccrepo) Feb. 2017
              R. A. Kendall, T. H. Dunning, Jr., R. J. Harrison, J. Chem. Phys. 96, 6796 (1992)
         He : Obtained from the ccRepo (grant-hill.group.shef.ac.uk/ccrepo) Feb. 2017
              D. E. Woon, T. H. Dunning, Jr., J. Chem. Phys. 100, 2975 (1994)
  Li-Be, Na : Obtained from the ccRepo (grant-hill.group.shef.ac.uk/ccrepo) Feb. 2017
              B. P. Prascher, D. E. Woon, K. A. Peterson, T. H. Dunning, Jr., A. K. Wilson, Theor. Chem. Acc. 128, 69 (2011)
         Mg : Obtained from the Peterson Research Group Website (tyr0.chem.wsu.edu/~kipeters) Feb. 2017
              B. P. Prascher, D. E. Woon, K. A. Peterson, T. H. Dunning, Jr., A. K. Wilson, Theor. Chem. Acc. 128, 69 (2011)
      Al-Ar : Obtained from the ccRepo (grant-hill.group.shef.ac.uk/ccrepo) Feb. 2017
              D. E. Woon, T. H. Dunning, Jr., J. Chem. Phys. 98, 1358 (1993)
      Sc-Zn : Obtained from the ccRepo (grant-hill.group.shef.ac.uk/ccrepo) Feb. 2017
              N. B. Balabanov, K. A. Peterson, J. Chem. Phys. 123, 064107 (2005)
              N. B. Balabanov, K. A. Peterson, J. Chem. Phys. 125, 074110 (2006)
      Ga-Kr : Obtained from the ccRepo (grant-hill.group.shef.ac.uk/ccrepo) Feb. 2017
              A. K. Wilson, D. E. Woon, K. A. Peterson, T. H. Dunning, Jr., J. Chem. Phys. 110, 7667 (1999)
     Ag, Au : Obtained from the Peterson Research Group Website (tyr0.chem.wsu.edu/~kipeters) Feb. 2017
              K. A. Peterson, C. Puzzarini, Theor. Chem. Acc. 114, 283 (2005)

----- AuxJ basis set information -----
Your calculation utilizes the AutoAux generation procedure.
  G. L. Stoychev, A. A. Auer, F. Neese, J. Chem. Theory Comput. 13, 554 (2017)

----- AuxC basis set information -----
Your calculation utilizes the auxiliary basis: aug-cc-pVTZ/C 
  H-He, B-F, Al-Ar, Ga-Kr : Obtained from the EMSL Basis Set Exchange (bse.pnl.gov) Feb. 2017
                            F. Weigend, A. Kohn, C. Hattig, J. Chem. Phys. 116, 3175 (2002)
                   Be, Mg : Obtained from the TURBOMOLE 7.0 basis set library
                            C. Haettig, Phys. Chem. Chem. Phys. 7, 59 (2005)
                       Ne : Obtained from the EMSL Basis Set Exchange (bse.pnl.gov) Feb. 2017
                            C. Haettig, Phys. Chem. Chem. Phys. 7, 59 (2005)
                            F. Weigend, A. Kohn, C. Hattig, J. Chem. Phys. 116, 3175 (2002)
                    Sc-Zn : Obtained from the EMSL Basis Set Exchange (bse.pnl.gov) Feb. 2017
                            J. G. Hill, J. A. Platts, J. Chem. Phys. 128, 044104 (2008)

----- AuxJK basis set information -----
Your calculation utilizes the AutoAux generation procedure.
  G. L. Stoychev, A. A. Auer, F. Neese, J. Chem. Theory Comput. 13, 554 (2017)

================================================================================
                                        WARNINGS
                       Please study these warnings very carefully!
================================================================================


WARNING: your system is open-shell and RHF/RKS was chosen
  ===> : WILL SWITCH to UHF/UKS


WARNING: MDCI localization with Augmented Hessian Foster-Boys
  ===> : Switching off randomization!

WARNING: Post HF methods need fully converged wavefunctions
  ===> : Setting SCFConvForced true
         You can overwrite this default with %scf ConvForced false 


INFO   : the flag for use of LIBINT has been found!

================================================================================
                                       INPUT FILE
================================================================================
NAME = simple-grid-250-260-b3lyp_d3bj-631gd-gas-singlepoint-DLPNO_CCSD_T1-NormalPNO-augtz-gas.inp
|  1> ! aug-cc-pVTZ aug-cc-pVTZ/C DLPNO-CCSD(T1) TightSCF NormalPNO UNO MiniPrint AutoAux
|  2> %pal nproc 10 end
|  3> %maxcore 20000
|  4> %mdci
|  5>      density none
|  6> end
|  7> 
|  8> * xyz 0 6
|  9>  O     -0.27570400     -0.23978500     -0.78282700
| 10>  C     -1.09770800     -1.18819300     -0.64238500
| 11>  C     -3.10831400     -0.06193000      0.32663100
| 12>  C     -2.47545400      1.01452800     -0.19305800
| 13>  C     -2.68767100      1.44669800     -1.61502900
| 14> Fe      1.46066500      0.11498700      0.03804800
| 15> Cl      2.10190700      1.99410900     -0.86013500
| 16>  C     -1.58616700      1.92302200      0.60055600
| 17> Cl      2.57870400     -1.67032600     -0.56829200
| 18> Cl      1.20087500      0.20791200      2.21952900
| 19>  H     -3.80741400     -0.58948300     -0.32091000
| 20>  H     -2.13664500      2.84569700      0.83184200
| 21>  H     -1.24163600      1.49427100      1.54112300
| 22>  H     -0.71214300      2.22415000      0.01309900
| 23>  H     -3.03494700      2.48762700     -1.63300700
| 24>  H     -1.73923100      1.42675700     -2.16674500
| 25>  H     -3.42841600      0.83559400     -2.13758200
| 26>  C     -3.18423600     -0.42516800      1.78592400
| 27>  H     -4.05387200      0.06435500      2.24496700
| 28>  H     -3.31845900     -1.50163300      1.92934200
| 29>  H     -2.30183000     -0.11478600      2.35098400
| 30>  C     -0.96712300     -2.13604000      0.51070700
| 31>  H     -1.85295800     -2.75847900      0.63849500
| 32>  H     -0.11705600     -2.78879400      0.26041900
| 33>  H     -0.71574100     -1.62082900      1.43769600
| 34>  C     -1.80547200     -1.67914900     -1.87271200
| 35>  H     -1.10966900     -2.38842300     -2.34493400
| 36>  H     -2.72709000     -2.21454600     -1.64117900
| 37>  H     -1.98693400     -0.87428200     -2.58276900
| 38> *
| 39> 
| 40> 
| 41>                          ****END OF INPUT****
================================================================================

                       ****************************
                       * Single Point Calculation *
                       ****************************

---------------------------------
CARTESIAN COORDINATES (ANGSTROEM)
---------------------------------
  O     -0.275704   -0.239785   -0.782827
  C     -1.097708   -1.188193   -0.642385
  C     -3.108314   -0.061930    0.326631
  C     -2.475454    1.014528   -0.193058
  C     -2.687671    1.446698   -1.615029
  Fe     1.460665    0.114987    0.038048
  Cl     2.101907    1.994109   -0.860135
  C     -1.586167    1.923022    0.600556
  Cl     2.578704   -1.670326   -0.568292
  Cl     1.200875    0.207912    2.219529
  H     -3.807414   -0.589483   -0.320910
  H     -2.136645    2.845697    0.831842
  H     -1.241636    1.494271    1.541123
  H     -0.712143    2.224150    0.013099
  H     -3.034947    2.487627   -1.633007
  H     -1.739231    1.426757   -2.166745
  H     -3.428416    0.835594   -2.137582
  C     -3.184236   -0.425168    1.785924
  H     -4.053872    0.064355    2.244967
  H     -3.318459   -1.501633    1.929342
  H     -2.301830   -0.114786    2.350984
  C     -0.967123   -2.136040    0.510707
  H     -1.852958   -2.758479    0.638495
  H     -0.117056   -2.788794    0.260419
  H     -0.715741   -1.620829    1.437696
  C     -1.805472   -1.679149   -1.872712
  H     -1.109669   -2.388423   -2.344934
  H     -2.727090   -2.214546   -1.641179
  H     -1.986934   -0.874282   -2.582769

----------------------------
CARTESIAN COORDINATES (A.U.)
----------------------------
  NO LB      ZA    FRAG     MASS         X           Y           Z
   0 O     8.0000    0    15.999   -0.521005   -0.453128   -1.479329
   1 C     6.0000    0    12.011   -2.074367   -2.245359   -1.213932
   2 C     6.0000    0    12.011   -5.873862   -0.117031    0.617243
   3 C     6.0000    0    12.011   -4.677930    1.917180   -0.364827
   4 C     6.0000    0    12.011   -5.078962    2.733863   -3.051963
   5 Fe   26.0000    0    55.850    2.760257    0.217294    0.071900
   6 Cl   17.0000    0    35.453    3.972029    3.768320   -1.625420
   7 C     6.0000    0    12.011   -2.997421    3.633985    1.134886
   8 Cl   17.0000    0    35.453    4.873044   -3.156459   -1.073916
   9 Cl   17.0000    0    35.453    2.269325    0.392897    4.194302
  10 H     1.0000    0     1.008   -7.194970   -1.113961   -0.606432
  11 H     1.0000    0     1.008   -4.037674    5.377588    1.571954
  12 H     1.0000    0     1.008   -2.346352    2.823763    2.912300
  13 H     1.0000    0     1.008   -1.345755    4.203034    0.024754
  14 H     1.0000    0     1.008   -5.735219    4.700934   -3.085936
  15 H     1.0000    0     1.008   -3.286670    2.696180   -4.094555
  16 H     1.0000    0     1.008   -6.478767    1.579044   -4.039445
  17 C     6.0000    0    12.011   -6.017334   -0.803451    3.374907
  18 H     1.0000    0     1.008   -7.660708    0.121613    4.242373
  19 H     1.0000    0     1.008   -6.270979   -2.837675    3.645928
  20 H     1.0000    0     1.008   -4.349828   -0.216914    4.442716
  21 C     6.0000    0    12.011   -1.827598   -4.036531    0.965096
  22 H     1.0000    0     1.008   -3.501583   -5.212770    1.206581
  23 H     1.0000    0     1.008   -0.221204   -5.270057    0.492121
  24 H     1.0000    0     1.008   -1.352554   -3.062923    2.716852
  25 C     6.0000    0    12.011   -3.411848   -3.173132   -3.538913
  26 H     1.0000    0     1.008   -2.096971   -4.513465   -4.431283
  27 H     1.0000    0     1.008   -5.153453   -4.184885   -3.101379
  28 H     1.0000    0     1.008   -3.754761   -1.652154   -4.880726



           ************************************************************
           *        Program running with 10 parallel MPI-processes    *
           *              working on a common directory               *
           ************************************************************


           ************************************************************
           *        Program running with 10 parallel MPI-processes    *
           *              working on a common directory               *
           ************************************************************

Diagonalization of the overlap matrix:
Smallest eigenvalue                        ... 7.442e-07
Time for diagonalization                   ...    0.327 sec
Threshold for overlap eigenvalues          ... 1.000e-08
Number of eigenvalues below threshold      ... 0
Time for construction of square roots      ...    0.266 sec
Total time needed                          ...    0.599 sec

-------------------
DFT GRID GENERATION
-------------------

General Integration Accuracy     IntAcc      ...  4.340
Radial Grid Type                 RadialGrid  ... Gauss-Chebyshev
Angular Grid (max. acc.)         AngularGrid ... Lebedev-110
Angular grid pruning method      GridPruning ... 3 (G Style)
Weight generation scheme         WeightScheme... Becke
Basis function cutoff            BFCut       ...    1.0000e-11
Integration weight cutoff        WCut        ...    1.0000e-14
Grids for H and He will be reduced by one unit

# of grid points (after initial pruning)     ...  36112 (   0.0 sec)
# of grid points (after weights+screening)   ...  32391 (   0.1 sec)
nearest neighbour list constructed           ...    0.0 sec
Grid point re-assignment to atoms done       ...    0.0 sec
Grid point division into batches done        ...    0.0 sec
Reduced shell lists constructed in    0.2 sec

Total number of grid points                  ...    32391
Total number of batches                      ...      522
Average number of points per batch           ...       62
Average number of grid points per atom       ...     1117
Average number of shells per batch           ...   290.07 (84.57%)
Average number of basis functions per batch  ...   861.33 (84.03%)
Average number of large shells per batch     ...   236.56 (81.55%)
Average number of large basis fcns per batch ...   702.59 (81.57%)
Maximum spatial batch extension              ...   3.15,  4.05,  4.96 au
Average spatial batch extension              ...   0.18,  0.19,  0.18 au

Time for grid setup =    0.438 sec

Loading Hartree-Fock densities                     ... done
Calculating cut-offs                               ... done
Setting up the integral package                    ... done
Initializing the effective Hamiltonian             ... done
Starting the Coulomb interaction                   ... done (   1.1 sec)
Reading the grid                                   ... done
Mapping shells                                     ... done
Starting the XC term evaluation                    ... done (   0.8 sec)
Transforming the Hamiltonian                       ... done (   0.2 sec)
Diagonalizing the Hamiltonian                      ... done (   0.3 sec)
Back transforming the eigenvectors                 ... done (   0.1 sec)
Now organizing SCF variables                       ... done
--------------
SCF ITERATIONS
--------------
ITER       Energy         Delta-E        Max-DP      RMS-DP      [F,P]     Damp
               ***  Starting incremental Fock matrix formation  ***
  0  -3027.5854711759   0.000000000000 0.19408271  0.00103634  0.2495869 0.7000
  1  -3027.8381547288  -0.252683552871 0.14828244  0.00081620  0.1530405 0.7000
                               ***Turning on DIIS***
  2  -3028.0073985148  -0.169243785976 0.10609877  0.00060303  0.1093454 0.7000
  3  -3029.6134207615  -1.606022246702 0.24620206  0.00151595  0.0817111 0.0000
  4  -3028.3043674224   1.309053339117 0.04495230  0.00022219  0.0200821 0.0000
  5  -3028.4261475012  -0.121780078878 0.03910577  0.00017315  0.0115871 0.0000
  6  -3028.4700549171  -0.043907415909 0.02034773  0.00007148  0.0052893 0.0000
  7  -3028.4846457251  -0.014590807976 0.00887338  0.00003282  0.0034638 0.0000
  8  -3028.4750265867   0.009619138438 0.00598604  0.00001887  0.0015266 0.0000
  9  -3028.4696104022   0.005416184526 0.00232297  0.00001084  0.0007541 0.0000
 10  -3028.4573310830   0.012279319149 0.00097871  0.00000332  0.0004210 0.0000
 11  -3028.4633354348  -0.006004351781 0.00028871  0.00000176  0.0000753 0.0000
 12  -3028.4612724997   0.002062935100 0.00027989  0.00000139  0.0000248 0.0000
 13  -3028.4612478563   0.000024643372 0.00053009  0.00000203  0.0000087 0.0000
 14  -3028.4612644264  -0.000016570069 0.00067825  0.00000220  0.0000051 0.0000
 15  -3028.4612192985   0.000045127830 0.00043516  0.00000161  0.0000031 0.0000
 16  -3028.4612243708  -0.000005072210 0.00097612  0.00000268  0.0000026 0.0000
 17  -3028.4612410342  -0.000016663460 0.00060176  0.00000176  0.0000017 0.0000
 18  -3028.4612242815   0.000016752732 0.00138729  0.00000361  0.0000013 0.0000
                            ***DIIS convergence achieved***

               *****************************************************
               *                     SUCCESS                       *
               *           SCF CONVERGED AFTER  19 CYCLES          *
               *****************************************************

Total Energy       :        -3028.46123089 Eh          -82408.61967 eV
  Last Energy change         ...   -6.6069e-06  Tolerance :   1.0000e-08
  Last MAX-Density change    ...    3.9172e-04  Tolerance :   1.0000e-07
             **** THE GBW FILE WAS UPDATED (simple-grid-250-260-b3lyp_d3bj-631gd-gas-singlepoint-DLPNO_CCSD_T1-NormalPNO-augtz-gas.gbw) ****
             **** DENSITY FILE WAS UPDATED (simple-grid-250-260-b3lyp_d3bj-631gd-gas-singlepoint-DLPNO_CCSD_T1-NormalPNO-augtz-gas.scfp.tmp) ****
             **** ENERGY FILE WAS UPDATED (simple-grid-250-260-b3lyp_d3bj-631gd-gas-singlepoint-DLPNO_CCSD_T1-NormalPNO-augtz-gas.en.tmp) ****
----------------------
UHF SPIN CONTAMINATION
----------------------

Expectation value of <S**2>     :     8.764823
Ideal value S*(S+1) for S=2.5   :     8.750000
Deviation                       :     0.014823

----------------
ORBITAL ENERGIES
----------------
                 SPIN UP ORBITALS
  NO   OCC          E(Eh)            E(eV) 
   0   1.0000    -261.573071     -7117.7651 
   1   1.0000    -104.791437     -2851.5200 
   2   1.0000    -104.788684     -2851.4451 
   3   1.0000    -104.787330     -2851.4082 
   4   1.0000     -32.240797      -877.3167 
   5   1.0000     -27.717210      -754.2236 
   6   1.0000     -27.716176      -754.1955 
   7   1.0000     -27.716009      -754.1910 
   8   1.0000     -20.608692      -560.7910 
   9   1.0000     -11.421132      -310.7848 
  10   1.0000     -11.278039      -306.8910 
  11   1.0000     -11.275817      -306.8306 
  12   1.0000     -11.269764      -306.6659 
  13   1.0000     -11.247901      -306.0710 
  14   1.0000     -11.244929      -305.9901 
  15   1.0000     -11.242908      -305.9351 
  16   1.0000     -11.233530      -305.6799 
  17   1.0000     -10.518138      -286.2131 
  18   1.0000     -10.515351      -286.1372 
  19   1.0000     -10.513947      -286.0990 
  20   1.0000      -7.984977      -217.2823 
  21   1.0000      -7.984211      -217.2614 
  22   1.0000      -7.984163      -217.2601 
  23   1.0000      -7.982237      -217.2077 
  24   1.0000      -7.981444      -217.1861 
  25   1.0000      -7.981376      -217.1843 
  26   1.0000      -7.980737      -217.1669 
  27   1.0000      -7.980069      -217.1487 
  28   1.0000      -7.980018      -217.1473 
  29   1.0000      -4.595739      -125.0564 
  30   1.0000      -3.208825       -87.3166 
  31   1.0000      -3.207212       -87.2727 
  32   1.0000      -3.207040       -87.2680 
  33   1.0000      -1.456616       -39.6365 
  34   1.0000      -1.133862       -30.8540 
  35   1.0000      -1.099205       -29.9109 
  36   1.0000      -1.064413       -28.9642 
  37   1.0000      -1.058815       -28.8118 
  38   1.0000      -1.056347       -28.7447 
  39   1.0000      -1.024577       -27.8801 
  40   1.0000      -1.009314       -27.4648 
  41   1.0000      -0.963293       -26.2125 
  42   1.0000      -0.940338       -25.5879 
  43   1.0000      -0.924744       -25.1636 
  44   1.0000      -0.924636       -25.1606 
  45   1.0000      -0.914070       -24.8731 
  46   1.0000      -0.913656       -24.8618 
  47   1.0000      -0.902232       -24.5510 
  48   1.0000      -0.809805       -22.0359 
  49   1.0000      -0.734753       -19.9937 
  50   1.0000      -0.708041       -19.2668 
  51   1.0000      -0.699343       -19.0301 
  52   1.0000      -0.687658       -18.7121 
  53   1.0000      -0.659902       -17.9568 
  54   1.0000      -0.626313       -17.0428 
  55   1.0000      -0.621240       -16.9048 
  56   1.0000      -0.603776       -16.4296 
  57   1.0000      -0.599993       -16.3266 
  58   1.0000      -0.584981       -15.9181 
  59   1.0000      -0.578110       -15.7312 
  60   1.0000      -0.561003       -15.2657 
  61   1.0000      -0.555252       -15.1092 
  62   1.0000      -0.551929       -15.0188 
  63   1.0000      -0.543053       -14.7772 
  64   1.0000      -0.534203       -14.5364 
  65   1.0000      -0.528920       -14.3926 
  66   1.0000      -0.500067       -13.6075 
  67   1.0000      -0.498102       -13.5541 
  68   1.0000      -0.475529       -12.9398 
  69   1.0000      -0.473312       -12.8795 
  70   1.0000      -0.444527       -12.0962 
  71   1.0000      -0.438670       -11.9368 
  72   1.0000      -0.437136       -11.8951 
  73   1.0000      -0.428465       -11.6591 
  74   1.0000      -0.427190       -11.6244 
  75   1.0000      -0.426461       -11.6046 
  76   1.0000      -0.362460        -9.8630 
  77   0.0000       0.012629         0.3437 
  78   0.0000       0.023380         0.6362 
  79   0.0000       0.023883         0.6499 
  80   0.0000       0.030503         0.8300 
  81   0.0000       0.039255         1.0682 
  82   0.0000       0.041080         1.1178 
  83   0.0000       0.042784         1.1642 
  84   0.0000       0.043411         1.1813 
  85   0.0000       0.044192         1.2025 
  86   0.0000       0.056370         1.5339 
  87   0.0000       0.056901         1.5484 
  88   0.0000       0.060616         1.6494 
  89   0.0000       0.064092         1.7440 
  90   0.0000       0.066149         1.8000 
  91   0.0000       0.069631         1.8947 
  92   0.0000       0.073512         2.0004 
  93   0.0000       0.075908         2.0655 
  94   0.0000       0.080392         2.1876 
  95   0.0000       0.091783         2.4975 
  96   0.0000       0.092686         2.5221 
  97   0.0000       0.093293         2.5386 
  98   0.0000       0.098716         2.6862 
  99   0.0000       0.102344         2.7849 
 100   0.0000       0.104307         2.8384 
 101   0.0000       0.107408         2.9227 
 102   0.0000       0.116246         3.1632 
 103   0.0000       0.122187         3.3249 
 104   0.0000       0.122886         3.3439 
 105   0.0000       0.124801         3.3960 
 106   0.0000       0.127428         3.4675 
 107   0.0000       0.127626         3.4729 
 108   0.0000       0.130378         3.5478 
 109   0.0000       0.133729         3.6389 
 110   0.0000       0.136422         3.7122 
 111   0.0000       0.138944         3.7808 
 112   0.0000       0.143012         3.8916 
 113   0.0000       0.143625         3.9082 
 114   0.0000       0.150582         4.0975 
 115   0.0000       0.151459         4.1214 
 116   0.0000       0.154298         4.1987 
 117   0.0000       0.160066         4.3556 
 118   0.0000       0.163224         4.4416 
 119   0.0000       0.165385         4.5003 
 120   0.0000       0.167965         4.5706 
 121   0.0000       0.170279         4.6335 
 122   0.0000       0.174012         4.7351 
 123   0.0000       0.177863         4.8399 
 124   0.0000       0.181893         4.9496 
 125   0.0000       0.185946         5.0598 
 126   0.0000       0.188621         5.1326 
 127   0.0000       0.190797         5.1918 
 128   0.0000       0.195021         5.3068 
 129   0.0000       0.197941         5.3862 
 130   0.0000       0.200510         5.4562 
 131   0.0000       0.202089         5.4991 
 132   0.0000       0.204652         5.5689 
 133   0.0000       0.206503         5.6192 
 134   0.0000       0.209820         5.7095 
 135   0.0000       0.213719         5.8156 
 136   0.0000       0.219105         5.9621 
 137   0.0000       0.222839         6.0637 
 138   0.0000       0.225818         6.1448 
 139   0.0000       0.231095         6.2884 
 140   0.0000       0.234270         6.3748 
 141   0.0000       0.235470         6.4075 
 142   0.0000       0.240173         6.5354 
 143   0.0000       0.241879         6.5819 
 144   0.0000       0.247251         6.7280 
 145   0.0000       0.247809         6.7432 
 146   0.0000       0.250599         6.8192 
 147   0.0000       0.251695         6.8490 
 148   0.0000       0.258407         7.0316 
 149   0.0000       0.260677         7.0934 
 150   0.0000       0.263437         7.1685 
 151   0.0000       0.271821         7.3966 
 152   0.0000       0.273291         7.4366 
 153   0.0000       0.276480         7.5234 
 154   0.0000       0.281949         7.6722 
 155   0.0000       0.285555         7.7704 
 156   0.0000       0.291856         7.9418 
 157   0.0000       0.294047         8.0014 
 158   0.0000       0.298481         8.1221 
 159   0.0000       0.303523         8.2593 
 160   0.0000       0.309405         8.4193 
 161   0.0000       0.312081         8.4922 
 162   0.0000       0.317933         8.6514 
 163   0.0000       0.318416         8.6645 
 164   0.0000       0.327389         8.9087 
 165   0.0000       0.330400         8.9906 
 166   0.0000       0.331821         9.0293 
 167   0.0000       0.337534         9.1848 
 168   0.0000       0.341613         9.2958 
 169   0.0000       0.344010         9.3610 
 170   0.0000       0.349350         9.5063 
 171   0.0000       0.349826         9.5192 
 172   0.0000       0.355880         9.6840 
 173   0.0000       0.359371         9.7790 
 174   0.0000       0.361889         9.8475 
 175   0.0000       0.364007         9.9051 
 176   0.0000       0.366260         9.9664 
 177   0.0000       0.372746        10.1429 
 178   0.0000       0.377184        10.2637 
 179   0.0000       0.377645        10.2762 
 180   0.0000       0.378907        10.3106 
 181   0.0000       0.380837        10.3631 
 182   0.0000       0.383788        10.4434 
 183   0.0000       0.385887        10.5005 
 184   0.0000       0.392369        10.6769 
 185   0.0000       0.394304        10.7296 
 186   0.0000       0.400248        10.8913 
 187   0.0000       0.404442        11.0054 
 188   0.0000       0.406285        11.0556 
 189   0.0000       0.406761        11.0685 
 190   0.0000       0.408367        11.1122 
 191   0.0000       0.413677        11.2567 
 192   0.0000       0.415560        11.3080 
 193   0.0000       0.424106        11.5405 
 194   0.0000       0.429176        11.6785 
 195   0.0000       0.431584        11.7440 
 196   0.0000       0.434916        11.8347 
 197   0.0000       0.440572        11.9886 
 198   0.0000       0.443777        12.0758 
 199   0.0000       0.447398        12.1743 
 200   0.0000       0.452885        12.3236 
 201   0.0000       0.454240        12.3605 
 202   0.0000       0.456466        12.4211 
 203   0.0000       0.457515        12.4496 
 204   0.0000       0.461664        12.5625 
 205   0.0000       0.469639        12.7795 
 206   0.0000       0.471937        12.8421 
 207   0.0000       0.472758        12.8644 
 208   0.0000       0.474988        12.9251 
 209   0.0000       0.479005        13.0344 
 210   0.0000       0.484817        13.1925 
 211   0.0000       0.488877        13.3030 
 212   0.0000       0.491152        13.3649 
 213   0.0000       0.493984        13.4420 
 214   0.0000       0.496805        13.5187 
 215   0.0000       0.502073        13.6621 
 216   0.0000       0.503224        13.6934 
 217   0.0000       0.507750        13.8166 
 218   0.0000       0.508783        13.8447 
 219   0.0000       0.513074        13.9614 
 220   0.0000       0.515952        14.0398 
 221   0.0000       0.518590        14.1115 
 222   0.0000       0.520632        14.1671 
 223   0.0000       0.525594        14.3021 
 224   0.0000       0.529290        14.4027 
 225   0.0000       0.532087        14.4788 
 226   0.0000       0.535110        14.5611 
 227   0.0000       0.539048        14.6682 
 228   0.0000       0.541127        14.7248 
 229   0.0000       0.544946        14.8287 
 230   0.0000       0.548091        14.9143 
 231   0.0000       0.550089        14.9687 
 232   0.0000       0.558773        15.2050 
 233   0.0000       0.560334        15.2475 
 234   0.0000       0.566226        15.4078 
 235   0.0000       0.568903        15.4806 
 236   0.0000       0.572101        15.5677 
 237   0.0000       0.574563        15.6347 
 238   0.0000       0.578303        15.7364 
 239   0.0000       0.580362        15.7925 
 240   0.0000       0.584286        15.8992 
 241   0.0000       0.591393        16.0926 
 242   0.0000       0.594519        16.1777 
 243   0.0000       0.599217        16.3055 
 244   0.0000       0.602008        16.3815 
 245   0.0000       0.605571        16.4784 
 246   0.0000       0.610476        16.6119 
 247   0.0000       0.612518        16.6675 
 248   0.0000       0.618188        16.8218 
 249   0.0000       0.620612        16.8877 
 250   0.0000       0.623509        16.9665 
 251   0.0000       0.626849        17.0574 
 252   0.0000       0.637748        17.3540 
 253   0.0000       0.637966        17.3599 
 254   0.0000       0.639772        17.4091 
 255   0.0000       0.644648        17.5418 
 256   0.0000       0.647193        17.6110 
 257   0.0000       0.652436        17.7537 
 258   0.0000       0.653669        17.7872 
 259   0.0000       0.653691        17.7878 
 260   0.0000       0.659431        17.9440 
 261   0.0000       0.662904        18.0385 
 262   0.0000       0.666540        18.1375 
 263   0.0000       0.672797        18.3077 
 264   0.0000       0.674581        18.3563 
 265   0.0000       0.678507        18.4631 
 266   0.0000       0.685292        18.6478 
 267   0.0000       0.687348        18.7037 
 268   0.0000       0.690084        18.7781 
 269   0.0000       0.700406        19.0590 
 270   0.0000       0.704128        19.1603 
 271   0.0000       0.711444        19.3594 
 272   0.0000       0.714627        19.4460 
 273   0.0000       0.715343        19.4655 
 274   0.0000       0.720063        19.5939 
 275   0.0000       0.724384        19.7115 
 276   0.0000       0.729451        19.8494 
 277   0.0000       0.733222        19.9520 
 278   0.0000       0.737705        20.0740 
 279   0.0000       0.741154        20.1678 
 280   0.0000       0.747263        20.3341 
 281   0.0000       0.753498        20.5037 
 282   0.0000       0.756601        20.5882 
 283   0.0000       0.758744        20.6465 
 284   0.0000       0.763222        20.7683 
 285   0.0000       0.773985        21.0612 
 286   0.0000       0.777189        21.1484 
 287   0.0000       0.784318        21.3424 
 288   0.0000       0.794083        21.6081 
 289   0.0000       0.809766        22.0349 
 290   0.0000       0.812979        22.1223 
 291   0.0000       0.816482        22.2176 
 292   0.0000       0.818612        22.2756 
 293   0.0000       0.830712        22.6048 
 294   0.0000       0.832320        22.6486 
 295   0.0000       0.838747        22.8235 
 296   0.0000       0.841569        22.9003 
 297   0.0000       0.845194        22.9989 
 298   0.0000       0.854280        23.2461 
 299   0.0000       0.858725        23.3671 
 300   0.0000       0.859524        23.3888 
 301   0.0000       0.866141        23.5689 
 302   0.0000       0.870306        23.6822 
 303   0.0000       0.873732        23.7755 
 304   0.0000       0.883586        24.0436 
 305   0.0000       0.886369        24.1193 
 306   0.0000       0.888956        24.1897 
 307   0.0000       0.895254        24.3611 
 308   0.0000       0.901748        24.5378 
 309   0.0000       0.906984        24.6803 
 310   0.0000       0.911378        24.7999 
 311   0.0000       0.912751        24.8372 
 312   0.0000       0.914230        24.8775 
 313   0.0000       0.919802        25.0291 
 314   0.0000       0.923799        25.1379 
 315   0.0000       0.927413        25.2362 
 316   0.0000       0.932275        25.3685 
 317   0.0000       0.933335        25.3973 
 318   0.0000       0.940509        25.5925 
 319   0.0000       0.941894        25.6302 
 320   0.0000       0.951916        25.9029 
 321   0.0000       0.952947        25.9310 
 322   0.0000       0.954761        25.9804 
 323   0.0000       0.958671        26.0868 
 324   0.0000       0.958959        26.0946 
 325   0.0000       0.962519        26.1915 
 326   0.0000       0.966046        26.2875 
 327   0.0000       0.970649        26.4127 
 328   0.0000       0.973644        26.4942 
 329   0.0000       0.976032        26.5592 
 330   0.0000       0.979630        26.6571 
 331   0.0000       0.983576        26.7645 
 332   0.0000       0.988450        26.8971 
 333   0.0000       0.990983        26.9660 
 334   0.0000       0.996412        27.1137 
 335   0.0000       1.002200        27.2712 
 336   0.0000       1.005279        27.3550 
 337   0.0000       1.007133        27.4055 
 338   0.0000       1.008942        27.4547 
 339   0.0000       1.014087        27.5947 
 340   0.0000       1.017337        27.6832 
 341   0.0000       1.020971        27.7820 
 342   0.0000       1.026627        27.9359 
 343   0.0000       1.027799        27.9678 
 344   0.0000       1.029277        28.0081 
 345   0.0000       1.034617        28.1534 
 346   0.0000       1.038488        28.2587 
 347   0.0000       1.042924        28.3794 
 348   0.0000       1.047362        28.5002 
 349   0.0000       1.049111        28.5478 
 350   0.0000       1.053591        28.6697 
 351   0.0000       1.055496        28.7215 
 352   0.0000       1.060435        28.8559 
 353   0.0000       1.066202        29.0128 
 354   0.0000       1.069524        29.1032 
 355   0.0000       1.071736        29.1634 
 356   0.0000       1.076437        29.2913 
 357   0.0000       1.079281        29.3687 
 358   0.0000       1.081085        29.4178 
 359   0.0000       1.086820        29.5739 
 360   0.0000       1.088103        29.6088 
 361   0.0000       1.093919        29.7670 
 362   0.0000       1.095253        29.8034 
 363   0.0000       1.102748        30.0073 
 364   0.0000       1.106235        30.1022 
 365   0.0000       1.108878        30.1741 
 366   0.0000       1.117194        30.4004 
 367   0.0000       1.124899        30.6101 
 368   0.0000       1.127384        30.6777 
 369   0.0000       1.130708        30.7681 
 370   0.0000       1.136397        30.9229 
 371   0.0000       1.140544        31.0358 
 372   0.0000       1.145231        31.1633 
 373   0.0000       1.148841        31.2615 
 374   0.0000       1.153529        31.3891 
 375   0.0000       1.156472        31.4692 
 376   0.0000       1.164413        31.6853 
 377   0.0000       1.166024        31.7291 
 378   0.0000       1.175808        31.9954 
 379   0.0000       1.176747        32.0209 
 380   0.0000       1.179787        32.1036 
 381   0.0000       1.181895        32.1610 
 382   0.0000       1.186644        32.2902 
 383   0.0000       1.188850        32.3503 
 384   0.0000       1.197440        32.5840 
 385   0.0000       1.198322        32.6080 
 386   0.0000       1.204801        32.7843 
 387   0.0000       1.211145        32.9569 
 388   0.0000       1.221112        33.2281 
 389   0.0000       1.224092        33.3092 
 390   0.0000       1.227882        33.4124 
 391   0.0000       1.231689        33.5160 
 392   0.0000       1.235358        33.6158 
 393   0.0000       1.239548        33.7298 
 394   0.0000       1.244892        33.8752 
 395   0.0000       1.253050        34.0972 
 396   0.0000       1.255187        34.1554 
 397   0.0000       1.262425        34.3523 
 398   0.0000       1.266903        34.4742 
 399   0.0000       1.272627        34.6299 
 400   0.0000       1.274623        34.6843 
 401   0.0000       1.277236        34.7553 
 402   0.0000       1.279654        34.8211 
 403   0.0000       1.282064        34.8867 
 404   0.0000       1.289614        35.0922 
 405   0.0000       1.297201        35.2986 
 406   0.0000       1.300094        35.3773 
 407   0.0000       1.303729        35.4763 
 408   0.0000       1.313066        35.7303 
 409   0.0000       1.316877        35.8341 
 410   0.0000       1.320496        35.9325 
 411   0.0000       1.326179        36.0872 
 412   0.0000       1.328369        36.1468 
 413   0.0000       1.335043        36.3284 
 414   0.0000       1.337800        36.4034 
 415   0.0000       1.340969        36.4896 
 416   0.0000       1.351666        36.7807 
 417   0.0000       1.358937        36.9786 
 418   0.0000       1.362493        37.0753 
 419   0.0000       1.367472        37.2108 
 420   0.0000       1.368749        37.2455 
 421   0.0000       1.373796        37.3829 
 422   0.0000       1.381744        37.5992 
 423   0.0000       1.387954        37.7682 
 424   0.0000       1.399206        38.0743 
 425   0.0000       1.401811        38.1452 
 426   0.0000       1.408124        38.3170 
 427   0.0000       1.412781        38.4437 
 428   0.0000       1.419488        38.6262 
 429   0.0000       1.425271        38.7836 
 430   0.0000       1.428701        38.8769 
 431   0.0000       1.434502        39.0348 
 432   0.0000       1.443060        39.2677 
 433   0.0000       1.444797        39.3149 
 434   0.0000       1.450887        39.4806 
 435   0.0000       1.456355        39.6294 
 436   0.0000       1.461071        39.7578 
 437   0.0000       1.470718        40.0203 
 438   0.0000       1.476063        40.1657 
 439   0.0000       1.477049        40.1925 
 440   0.0000       1.486821        40.4585 
 441   0.0000       1.489461        40.5303 
 442   0.0000       1.491002        40.5722 
 443   0.0000       1.499065        40.7916 
 444   0.0000       1.501716        40.8638 
 445   0.0000       1.502867        40.8951 
 446   0.0000       1.510323        41.0980 
 447   0.0000       1.513598        41.1871 
 448   0.0000       1.522165        41.4202 
 449   0.0000       1.524823        41.4925 
 450   0.0000       1.527148        41.5558 
 451   0.0000       1.532459        41.7003 
 452   0.0000       1.537832        41.8465 
 453   0.0000       1.546195        42.0741 
 454   0.0000       1.550332        42.1867 
 455   0.0000       1.558837        42.4181 
 456   0.0000       1.559687        42.4413 
 457   0.0000       1.569256        42.7016 
 458   0.0000       1.572765        42.7971 
 459   0.0000       1.580504        43.0077 
 460   0.0000       1.585665        43.1481 
 461   0.0000       1.589271        43.2463 
 462   0.0000       1.593531        43.3622 
 463   0.0000       1.598102        43.4866 
 464   0.0000       1.603259        43.6269 
 465   0.0000       1.610688        43.8291 
 466   0.0000       1.617663        44.0189 
 467   0.0000       1.627419        44.2843 
 468   0.0000       1.632850        44.4321 
 469   0.0000       1.635935        44.5161 
 470   0.0000       1.643984        44.7351 
 471   0.0000       1.647767        44.8380 
 472   0.0000       1.652401        44.9641 
 473   0.0000       1.658492        45.1299 
 474   0.0000       1.662626        45.2424 
 475   0.0000       1.667498        45.3749 
 476   0.0000       1.669362        45.4256 
 477   0.0000       1.672720        45.5170 
 478   0.0000       1.680147        45.7191 
 479   0.0000       1.685471        45.8640 
 480   0.0000       1.691806        46.0364 
 481   0.0000       1.696694        46.1694 
 482   0.0000       1.708327        46.4859 
 483   0.0000       1.712745        46.6062 
 484   0.0000       1.715263        46.6747 
 485   0.0000       1.719378        46.7867 
 486   0.0000       1.722672        46.8763 
 487   0.0000       1.728186        47.0263 
 488   0.0000       1.734909        47.2093 
 489   0.0000       1.743107        47.4323 
 490   0.0000       1.746023        47.5117 
 491   0.0000       1.749357        47.6024 
 492   0.0000       1.755945        47.7817 
 493   0.0000       1.757314        47.8189 
 494   0.0000       1.763841        47.9966 
 495   0.0000       1.773485        48.2590 
 496   0.0000       1.778958        48.4079 
 497   0.0000       1.784042        48.5462 
 498   0.0000       1.790442        48.7204 
 499   0.0000       1.794076        48.8193 
 500   0.0000       1.794379        48.8275 
 501   0.0000       1.800734        49.0005 
 502   0.0000       1.806815        49.1659 
 503   0.0000       1.817017        49.4436 
 504   0.0000       1.817902        49.4676 
 505   0.0000       1.824289        49.6414 
 506   0.0000       1.829118        49.7728 
 507   0.0000       1.832452        49.8636 
 508   0.0000       1.840707        50.0882 
 509   0.0000       1.842202        50.1289 
 510   0.0000       1.854398        50.4607 
 511   0.0000       1.857599        50.5478 
 512   0.0000       1.861675        50.6587 
 513   0.0000       1.863529        50.7092 
 514   0.0000       1.866664        50.7945 
 515   0.0000       1.875425        51.0329 
 516   0.0000       1.880422        51.1689 
 517   0.0000       1.884735        51.2862 
 518   0.0000       1.886624        51.3377 
 519   0.0000       1.894248        51.5451 
 520   0.0000       1.902282        51.7637 
 521   0.0000       1.912057        52.0297 
 522   0.0000       1.915586        52.1257 
 523   0.0000       1.916473        52.1499 
 524   0.0000       1.920946        52.2716 
 525   0.0000       1.928285        52.4713 
 526   0.0000       1.933270        52.6069 
 527   0.0000       1.939455        52.7752 
 528   0.0000       1.942909        52.8692 
 529   0.0000       1.952808        53.1386 
 530   0.0000       1.955372        53.2084 
 531   0.0000       1.960760        53.3550 
 532   0.0000       1.964490        53.4565 
 533   0.0000       1.969145        53.5832 
 534   0.0000       1.974205        53.7208 
 535   0.0000       1.978077        53.8262 
 536   0.0000       1.987478        54.0820 
 537   0.0000       1.991867        54.2015 
 538   0.0000       1.993515        54.2463 
 539   0.0000       2.007001        54.6133 
 540   0.0000       2.017779        54.9066 
 541   0.0000       2.025491        55.1164 
 542   0.0000       2.030093        55.2416 
 543   0.0000       2.035981        55.4019 
 544   0.0000       2.038056        55.4583 
 545   0.0000       2.046240        55.6810 
 546   0.0000       2.056518        55.9607 
 547   0.0000       2.059611        56.0449 
 548   0.0000       2.067828        56.2685 
 549   0.0000       2.073137        56.4129 
 550   0.0000       2.076553        56.5059 
 551   0.0000       2.078581        56.5611 
 552   0.0000       2.092356        56.9359 
 553   0.0000       2.100481        57.1570 
 554   0.0000       2.107906        57.3590 
 555   0.0000       2.113325        57.5065 
 556   0.0000       2.122312        57.7510 
 557   0.0000       2.128884        57.9299 
 558   0.0000       2.137432        58.1625 
 559   0.0000       2.139007        58.2053 
 560   0.0000       2.142212        58.2926 
 561   0.0000       2.154569        58.6288 
 562   0.0000       2.159960        58.7755 
 563   0.0000       2.166559        58.9551 
 564   0.0000       2.170732        59.0686 
 565   0.0000       2.178331        59.2754 
 566   0.0000       2.187866        59.5349 
 567   0.0000       2.192491        59.6607 
 568   0.0000       2.200430        59.8767 
 569   0.0000       2.210493        60.1506 
 570   0.0000       2.215103        60.2760 
 571   0.0000       2.222861        60.4871 
 572   0.0000       2.228666        60.6451 
 573   0.0000       2.234048        60.7915 
 574   0.0000       2.242914        61.0328 
 575   0.0000       2.251382        61.2632 
 576   0.0000       2.253147        61.3113 
 577   0.0000       2.262950        61.5780 
 578   0.0000       2.265516        61.6478 
 579   0.0000       2.274741        61.8988 
 580   0.0000       2.277454        61.9727 
 581   0.0000       2.287360        62.2422 
 582   0.0000       2.292069        62.3704 
 583   0.0000       2.298445        62.5439 
 584   0.0000       2.307822        62.7990 
 585   0.0000       2.313572        62.9555 
 586   0.0000       2.331101        63.4325 
 587   0.0000       2.336957        63.5918 
 588   0.0000       2.341156        63.7061 
 589   0.0000       2.356510        64.1239 
 590   0.0000       2.365741        64.3751 
 591   0.0000       2.374585        64.6157 
 592   0.0000       2.383724        64.8644 
 593   0.0000       2.387190        64.9587 
 594   0.0000       2.407982        65.5245 
 595   0.0000       2.410925        65.6046 
 596   0.0000       2.414441        65.7003 
 597   0.0000       2.422415        65.9173 
 598   0.0000       2.426078        66.0169 
 599   0.0000       2.429480        66.1095 
 600   0.0000       2.437711        66.3335 
 601   0.0000       2.451726        66.7149 
 602   0.0000       2.458862        66.9090 
 603   0.0000       2.469224        67.1910 
 604   0.0000       2.475248        67.3549 
 605   0.0000       2.493162        67.8424 
 606   0.0000       2.501163        68.0601 
 607   0.0000       2.504618        68.1541 
 608   0.0000       2.519607        68.5620 
 609   0.0000       2.530813        68.8669 
 610   0.0000       2.538420        69.0739 
 611   0.0000       2.551739        69.4363 
 612   0.0000       2.555241        69.5316 
 613   0.0000       2.563825        69.7652 
 614   0.0000       2.575405        70.0803 
 615   0.0000       2.587579        70.4116 
 616   0.0000       2.598425        70.7067 
 617   0.0000       2.608535        70.9818 
 618   0.0000       2.640606        71.8545 
 619   0.0000       2.650372        72.1203 
 620   0.0000       2.657355        72.3103 
 621   0.0000       2.670244        72.6610 
 622   0.0000       2.672931        72.7342 
 623   0.0000       2.675880        72.8144 
 624   0.0000       2.682444        72.9930 
 625   0.0000       2.688610        73.1608 
 626   0.0000       2.696919        73.3869 
 627   0.0000       2.712328        73.8062 
 628   0.0000       2.719254        73.9947 
 629   0.0000       2.726984        74.2050 
 630   0.0000       2.740399        74.5701 
 631   0.0000       2.750974        74.8578 
 632   0.0000       2.759244        75.0828 
 633   0.0000       2.767798        75.3156 
 634   0.0000       2.767915        75.3188 
 635   0.0000       2.777547        75.5809 
 636   0.0000       2.792865        75.9977 
 637   0.0000       2.804750        76.3211 
 638   0.0000       2.813302        76.5538 
 639   0.0000       2.825628        76.8893 
 640   0.0000       2.835297        77.1524 
 641   0.0000       2.853201        77.6396 
 642   0.0000       2.858881        77.7941 
 643   0.0000       2.872536        78.1657 
 644   0.0000       2.885637        78.5222 
 645   0.0000       2.900424        78.9245 
 646   0.0000       2.914579        79.3097 
 647   0.0000       2.927605        79.6642 
 648   0.0000       2.937096        79.9224 
 649   0.0000       2.946259        80.1718 
 650   0.0000       2.959302        80.5267 
 651   0.0000       2.971213        80.8508 
 652   0.0000       2.978590        81.0516 
 653   0.0000       3.013032        81.9888 
 654   0.0000       3.019317        82.1598 
 655   0.0000       3.045690        82.8774 
 656   0.0000       3.050637        83.0121 
 657   0.0000       3.062120        83.3245 
 658   0.0000       3.080697        83.8300 
 659   0.0000       3.089847        84.0790 
 660   0.0000       3.096138        84.2502 
 661   0.0000       3.099095        84.3307 
 662   0.0000       3.125793        85.0572 
 663   0.0000       3.157340        85.9156 
 664   0.0000       3.162247        86.0491 
 665   0.0000       3.169331        86.2419 
 666   0.0000       3.178632        86.4950 
 667   0.0000       3.198418        87.0334 
 668   0.0000       3.210456        87.3610 
 669   0.0000       3.212953        87.4289 
 670   0.0000       3.224984        87.7563 
 671   0.0000       3.233446        87.9865 
 672   0.0000       3.243661        88.2645 
 673   0.0000       3.253123        88.5220 
 674   0.0000       3.263488        88.8040 
 675   0.0000       3.266353        88.8820 
 676   0.0000       3.275285        89.1250 
 677   0.0000       3.283862        89.3584 
 678   0.0000       3.298098        89.7458 
 679   0.0000       3.304739        89.9265 
 680   0.0000       3.315135        90.2094 
 681   0.0000       3.318045        90.2886 
 682   0.0000       3.330565        90.6293 
 683   0.0000       3.339565        90.8742 
 684   0.0000       3.346671        91.0675 
 685   0.0000       3.350076        91.1602 
 686   0.0000       3.373611        91.8006 
 687   0.0000       3.387133        92.1686 
 688   0.0000       3.391231        92.2801 
 689   0.0000       3.412594        92.8614 
 690   0.0000       3.422263        93.1245 
 691   0.0000       3.425712        93.2184 
 692   0.0000       3.436036        93.4993 
 693   0.0000       3.440795        93.6288 
 694   0.0000       3.447736        93.8177 
 695   0.0000       3.461365        94.1885 
 696   0.0000       3.472056        94.4795 
 697   0.0000       3.488956        94.9393 
 698   0.0000       3.489908        94.9652 
 699   0.0000       3.494714        95.0960 
 700   0.0000       3.506421        95.4146 
 701   0.0000       3.507772        95.4513 
 702   0.0000       3.531502        96.0971 
 703   0.0000       3.541313        96.3640 
 704   0.0000       3.542831        96.4053 
 705   0.0000       3.547419        96.5302 
 706   0.0000       3.560179        96.8774 
 707   0.0000       3.567620        97.0799 
 708   0.0000       3.568759        97.1109 
 709   0.0000       3.576048        97.3092 
 710   0.0000       3.587028        97.6080 
 711   0.0000       3.595205        97.8305 
 712   0.0000       3.605041        98.0982 
 713   0.0000       3.615507        98.3829 
 714   0.0000       3.625526        98.6556 
 715   0.0000       3.631297        98.8126 
 716   0.0000       3.641742        99.0968 
 717   0.0000       3.658699        99.5583 
 718   0.0000       3.662159        99.6524 
 719   0.0000       3.667038        99.7852 
 720   0.0000       3.674588        99.9906 
 721   0.0000       3.677029       100.0570 
 722   0.0000       3.688928       100.3808 
 723   0.0000       3.701711       100.7287 
 724   0.0000       3.703117       100.7669 
 725   0.0000       3.710813       100.9763 
 726   0.0000       3.719595       101.2153 
 727   0.0000       3.721741       101.2737 
 728   0.0000       3.729251       101.4781 
 729   0.0000       3.736134       101.6654 
 730   0.0000       3.744730       101.8993 
 731   0.0000       3.753048       102.1256 
 732   0.0000       3.754788       102.1730 
 733   0.0000       3.758232       102.2667 
 734   0.0000       3.769297       102.5678 
 735   0.0000       3.773911       102.6933 
 736   0.0000       3.788046       103.0780 
 737   0.0000       3.794272       103.2474 
 738   0.0000       3.804954       103.5381 
 739   0.0000       3.811835       103.7253 
 740   0.0000       3.817403       103.8768 
 741   0.0000       3.822059       104.0035 
 742   0.0000       3.833870       104.3249 
 743   0.0000       3.840507       104.5055 
 744   0.0000       3.846994       104.6820 
 745   0.0000       3.852688       104.8370 
 746   0.0000       3.866419       105.2106 
 747   0.0000       3.873424       105.4012 
 748   0.0000       3.879800       105.5747 
 749   0.0000       3.889049       105.8264 
 750   0.0000       3.896154       106.0197 
 751   0.0000       3.903451       106.2183 
 752   0.0000       3.906343       106.2970 
 753   0.0000       3.913448       106.4903 
 754   0.0000       3.918460       106.6267 
 755   0.0000       3.926190       106.8371 
 756   0.0000       3.939315       107.1942 
 757   0.0000       3.944786       107.3431 
 758   0.0000       3.950867       107.5085 
 759   0.0000       3.952527       107.5537 
 760   0.0000       3.958377       107.7129 
 761   0.0000       3.960781       107.7783 
 762   0.0000       3.974579       108.1538 
 763   0.0000       3.982910       108.3805 
 764   0.0000       3.987140       108.4956 
 765   0.0000       3.991972       108.6271 
 766   0.0000       3.998177       108.7959 
 767   0.0000       4.003003       108.9272 
 768   0.0000       4.014906       109.2511 
 769   0.0000       4.017164       109.3126 
 770   0.0000       4.020800       109.4115 
 771   0.0000       4.028862       109.6309 
 772   0.0000       4.039829       109.9293 
 773   0.0000       4.054899       110.3394 
 774   0.0000       4.067387       110.6792 
 775   0.0000       4.070644       110.7679 
 776   0.0000       4.076432       110.9253 
 777   0.0000       4.083760       111.1248 
 778   0.0000       4.087031       111.2138 
 779   0.0000       4.105991       111.7297 
 780   0.0000       4.109113       111.8147 
 781   0.0000       4.124846       112.2428 
 782   0.0000       4.126210       112.2799 
 783   0.0000       4.138742       112.6209 
 784   0.0000       4.140267       112.6624 
 785   0.0000       4.149649       112.9177 
 786   0.0000       4.154771       113.0571 
 787   0.0000       4.164432       113.3200 
 788   0.0000       4.171246       113.5054 
 789   0.0000       4.176812       113.6568 
 790   0.0000       4.179458       113.7288 
 791   0.0000       4.192028       114.0709 
 792   0.0000       4.205687       114.4426 
 793   0.0000       4.206742       114.4713 
 794   0.0000       4.216936       114.7487 
 795   0.0000       4.219313       114.8133 
 796   0.0000       4.231532       115.1458 
 797   0.0000       4.237262       115.3018 
 798   0.0000       4.246144       115.5435 
 799   0.0000       4.263737       116.0222 
 800   0.0000       4.272886       116.2711 
 801   0.0000       4.280172       116.4694 
 802   0.0000       4.291548       116.7789 
 803   0.0000       4.297544       116.9421 
 804   0.0000       4.306934       117.1976 
 805   0.0000       4.314292       117.3979 
 806   0.0000       4.316363       117.4542 
 807   0.0000       4.329941       117.8237 
 808   0.0000       4.340658       118.1153 
 809   0.0000       4.352312       118.4324 
 810   0.0000       4.362230       118.7023 
 811   0.0000       4.372891       118.9924 
 812   0.0000       4.382165       119.2448 
 813   0.0000       4.389505       119.4445 
 814   0.0000       4.393115       119.5427 
 815   0.0000       4.405225       119.8723 
 816   0.0000       4.420155       120.2785 
 817   0.0000       4.428944       120.5177 
 818   0.0000       4.437581       120.7527 
 819   0.0000       4.446912       121.0066 
 820   0.0000       4.451085       121.1202 
 821   0.0000       4.464511       121.4855 
 822   0.0000       4.475546       121.7858 
 823   0.0000       4.476706       121.8174 
 824   0.0000       4.490115       122.1822 
 825   0.0000       4.501387       122.4890 
 826   0.0000       4.512181       122.7827 
 827   0.0000       4.520326       123.0043 
 828   0.0000       4.527919       123.2109 
 829   0.0000       4.533820       123.3715 
 830   0.0000       4.548209       123.7630 
 831   0.0000       4.554725       123.9404 
 832   0.0000       4.567240       124.2809 
 833   0.0000       4.575390       124.5027 
 834   0.0000       4.577256       124.5535 
 835   0.0000       4.595036       125.0373 
 836   0.0000       4.603393       125.2647 
 837   0.0000       4.625891       125.8769 
 838   0.0000       4.635719       126.1443 
 839   0.0000       4.644216       126.3756 
 840   0.0000       4.653221       126.6206 
 841   0.0000       4.657621       126.7403 
 842   0.0000       4.672059       127.1332 
 843   0.0000       4.689363       127.6041 
 844   0.0000       4.692605       127.6923 
 845   0.0000       4.700930       127.9188 
 846   0.0000       4.714315       128.2830 
 847   0.0000       4.725975       128.6003 
 848   0.0000       4.737419       128.9117 
 849   0.0000       4.749336       129.2360 
 850   0.0000       4.758261       129.4789 
 851   0.0000       4.778834       130.0387 
 852   0.0000       4.781681       130.1162 
 853   0.0000       4.794497       130.4649 
 854   0.0000       4.804980       130.7502 
 855   0.0000       4.821080       131.1883 
 856   0.0000       4.840271       131.7105 
 857   0.0000       4.848483       131.9339 
 858   0.0000       4.850555       131.9903 
 859   0.0000       4.858788       132.2143 
 860   0.0000       4.876692       132.7015 
 861   0.0000       4.886264       132.9620 
 862   0.0000       4.905226       133.4780 
 863   0.0000       4.908967       133.5798 
 864   0.0000       4.921571       133.9228 
 865   0.0000       4.932871       134.2303 
 866   0.0000       4.944480       134.5461 
 867   0.0000       4.953547       134.7929 
 868   0.0000       4.965465       135.1172 
 869   0.0000       4.977671       135.4493 
 870   0.0000       4.987431       135.7149 
 871   0.0000       4.998600       136.0188 
 872   0.0000       5.010032       136.3299 
 873   0.0000       5.022470       136.6683 
 874   0.0000       5.030749       136.8936 
 875   0.0000       5.035409       137.0204 
 876   0.0000       5.052948       137.4977 
 877   0.0000       5.072220       138.0221 
 878   0.0000       5.076271       138.1323 
 879   0.0000       5.085255       138.3768 
 880   0.0000       5.092968       138.5867 
 881   0.0000       5.120815       139.3445 
 882   0.0000       5.126354       139.4952 
 883   0.0000       5.140249       139.8733 
 884   0.0000       5.143302       139.9564 
 885   0.0000       5.152507       140.2068 
 886   0.0000       5.169936       140.6811 
 887   0.0000       5.179085       140.9301 
 888   0.0000       5.205440       141.6472 
 889   0.0000       5.208758       141.7375 
 890   0.0000       5.220025       142.0441 
 891   0.0000       5.233879       142.4211 
 892   0.0000       5.246037       142.7519 
 893   0.0000       5.259518       143.1188 
 894   0.0000       5.283199       143.7632 
 895   0.0000       5.290225       143.9543 
 896   0.0000       5.301055       144.2490 
 897   0.0000       5.318686       144.7288 
 898   0.0000       5.330575       145.0523 
 899   0.0000       5.340487       145.3220 
 900   0.0000       5.348478       145.5395 
 901   0.0000       5.364790       145.9834 
 902   0.0000       5.372159       146.1839 
 903   0.0000       5.388688       146.6337 
 904   0.0000       5.391979       146.7232 
 905   0.0000       5.409430       147.1981 
 906   0.0000       5.420671       147.5040 
 907   0.0000       5.424807       147.6165 
 908   0.0000       5.453156       148.3879 
 909   0.0000       5.457170       148.4971 
 910   0.0000       5.466898       148.7619 
 911   0.0000       5.474773       148.9761 
 912   0.0000       5.490774       149.4116 
 913   0.0000       5.495183       149.5315 
 914   0.0000       5.515766       150.0916 
 915   0.0000       5.533056       150.5621 
 916   0.0000       5.544557       150.8751 
 917   0.0000       5.552319       151.0863 
 918   0.0000       5.568481       151.5261 
 919   0.0000       5.580177       151.8443 
 920   0.0000       5.594294       152.2285 
 921   0.0000       5.605529       152.5342 
 922   0.0000       5.614500       152.7783 
 923   0.0000       5.626820       153.1136 
 924   0.0000       5.640834       153.4949 
 925   0.0000       5.648322       153.6986 
 926   0.0000       5.666321       154.1884 
 927   0.0000       5.670698       154.3075 
 928   0.0000       5.682867       154.6387 
 929   0.0000       5.686914       154.7488 
 930   0.0000       5.700488       155.1182 
 931   0.0000       5.711117       155.4074 
 932   0.0000       5.724440       155.7699 
 933   0.0000       5.739608       156.1827 
 934   0.0000       5.748676       156.4294 
 935   0.0000       5.765352       156.8832 
 936   0.0000       5.778215       157.2332 
 937   0.0000       5.795600       157.7063 
 938   0.0000       5.812885       158.1766 
 939   0.0000       5.823259       158.4589 
 940   0.0000       5.836994       158.8327 
 941   0.0000       5.876994       159.9211 
 942   0.0000       5.885050       160.1404 
 943   0.0000       5.920378       161.1017 
 944   0.0000       5.940524       161.6499 
 945   0.0000       5.982085       162.7808 
 946   0.0000       6.027278       164.0106 
 947   0.0000       6.088813       165.6850 
 948   0.0000       6.106528       166.1671 
 949   0.0000       6.125878       166.6936 
 950   0.0000       6.161505       167.6631 
 951   0.0000       6.169313       167.8755 
 952   0.0000       6.180411       168.1775 
 953   0.0000       6.199368       168.6934 
 954   0.0000       6.215970       169.1452 
 955   0.0000       6.231155       169.5583 
 956   0.0000       6.236452       169.7025 
 957   0.0000       6.266102       170.5093 
 958   0.0000       6.271337       170.6518 
 959   0.0000       6.282603       170.9583 
 960   0.0000       6.305341       171.5770 
 961   0.0000       6.313139       171.7893 
 962   0.0000       6.331286       172.2830 
 963   0.0000       6.356524       172.9698 
 964   0.0000       6.367929       173.2802 
 965   0.0000       6.393134       173.9660 
 966   0.0000       6.419700       174.6889 
 967   0.0000       6.434924       175.1032 
 968   0.0000       6.508211       177.0974 
 969   0.0000       6.539994       177.9623 
 970   0.0000       6.624185       180.2532 
 971   0.0000       6.634627       180.5374 
 972   0.0000       6.821001       185.6089 
 973   0.0000       6.862664       186.7426 
 974   0.0000       6.867657       186.8784 
 975   0.0000       6.889564       187.4746 
 976   0.0000       6.906946       187.9476 
 977   0.0000       6.950168       189.1237 
 978   0.0000       6.968148       189.6130 
 979   0.0000       6.987666       190.1441 
 980   0.0000       7.007106       190.6730 
 981   0.0000       7.022888       191.1025 
 982   0.0000       7.053396       191.9327 
 983   0.0000       7.055013       191.9767 
 984   0.0000       7.110432       193.4847 
 985   0.0000       7.134958       194.1521 
 986   0.0000       7.286074       198.2641 
 987   0.0000       7.333247       199.5478 
 988   0.0000       7.382873       200.8982 
 989   0.0000       7.420930       201.9338 
 990   0.0000       7.533619       205.0002 
 991   0.0000       7.618225       207.3024 
 992   0.0000       7.657934       208.3830 
 993   0.0000       7.686043       209.1479 
 994   0.0000       7.782335       211.7681 
 995   0.0000       7.859926       213.8795 
 996   0.0000       7.952682       216.4035 
 997   0.0000       8.023050       218.3183 
 998   0.0000       8.255080       224.6321 
 999   0.0000       9.407898       256.0019 
 1000   0.0000       9.421551       256.3734 
 1001   0.0000       9.438134       256.8247 
 1002   0.0000       9.453238       257.2357 
 1003   0.0000       9.463535       257.5159 
 1004   0.0000       9.485830       258.1226 
 1005   0.0000       9.659172       262.8394 
 1006   0.0000      10.086809       274.4760 
 1007   0.0000      10.095569       274.7144 
 1008   0.0000      10.107404       275.0365 
 1009   0.0000      10.200512       277.5701 
 1010   0.0000      10.210858       277.8516 
 1011   0.0000      10.244020       278.7540 
 1012   0.0000      10.339153       281.3427 
 1013   0.0000      10.385046       282.5915 
 1014   0.0000      10.469357       284.8857 
 1015   0.0000      12.589545       342.5789 
 1016   0.0000      16.997235       462.5183 
 1017   0.0000      17.698610       481.6037 
 1018   0.0000      18.138217       493.5660 
 1019   0.0000      18.458221       502.2737 
 1020   0.0000      18.642178       507.2795 
 1021   0.0000      18.803034       511.6566 
 1022   0.0000      20.503468       557.9277 
 1023   0.0000      21.280849       579.0813 
 1024   0.0000      21.822749       593.8272 

                 SPIN DOWN ORBITALS
  NO   OCC          E(Eh)            E(eV) 
   0   1.0000    -261.569498     -7117.6679 
   1   1.0000    -104.789963     -2851.4798 
   2   1.0000    -104.787151     -2851.4033 
   3   1.0000    -104.785798     -2851.3665 
   4   1.0000     -32.078792      -872.9083 
   5   1.0000     -27.556710      -749.8562 
   6   1.0000     -27.556653      -749.8547 
   7   1.0000     -27.556500      -749.8505 
   8   1.0000     -20.605036      -560.6915 
   9   1.0000     -11.421018      -310.7817 
  10   1.0000     -11.278068      -306.8918 
  11   1.0000     -11.275709      -306.8276 
  12   1.0000     -11.269758      -306.6657 
  13   1.0000     -11.247798      -306.0682 
  14   1.0000     -11.244922      -305.9899 
  15   1.0000     -11.242919      -305.9354 
  16   1.0000     -11.233545      -305.6803 
  17   1.0000     -10.516561      -286.1702 
  18   1.0000     -10.513713      -286.0927 
  19   1.0000     -10.512318      -286.0547 
  20   1.0000      -7.982473      -217.2141 
  21   1.0000      -7.981767      -217.1949 
  22   1.0000      -7.981717      -217.1936 
  23   1.0000      -7.979586      -217.1356 
  24   1.0000      -7.978931      -217.1178 
  25   1.0000      -7.978835      -217.1151 
  26   1.0000      -7.978307      -217.1008 
  27   1.0000      -7.977439      -217.0772 
  28   1.0000      -7.977358      -217.0749 
  29   1.0000      -4.153585      -113.0248 
  30   1.0000      -2.675152       -72.7946 
  31   1.0000      -2.675117       -72.7936 
  32   1.0000      -2.674632       -72.7804 
  33   1.0000      -1.447509       -39.3887 
  34   1.0000      -1.133483       -30.8436 
  35   1.0000      -1.096787       -29.8451 
  36   1.0000      -1.049028       -28.5455 
  37   1.0000      -1.036586       -28.2069 
  38   1.0000      -1.034049       -28.1379 
  39   1.0000      -1.024093       -27.8670 
  40   1.0000      -1.008580       -27.4448 
  41   1.0000      -0.963156       -26.2088 
  42   1.0000      -0.902507       -24.5585 
  43   1.0000      -0.822726       -22.3875 
  44   1.0000      -0.734815       -19.9953 
  45   1.0000      -0.710488       -19.3334 
  46   1.0000      -0.698534       -19.0081 
  47   1.0000      -0.686771       -18.6880 
  48   1.0000      -0.659824       -17.9547 
  49   1.0000      -0.626214       -17.0401 
  50   1.0000      -0.620740       -16.8912 
  51   1.0000      -0.603487       -16.4217 
  52   1.0000      -0.599943       -16.3253 
  53   1.0000      -0.584697       -15.9104 
  54   1.0000      -0.577357       -15.7107 
  55   1.0000      -0.560228       -15.2446 
  56   1.0000      -0.555146       -15.1063 
  57   1.0000      -0.549540       -14.9538 
  58   1.0000      -0.543044       -14.7770 
  59   1.0000      -0.531385       -14.4597 
  60   1.0000      -0.520397       -14.1607 
  61   1.0000      -0.500923       -13.6308 
  62   1.0000      -0.498012       -13.5516 
  63   1.0000      -0.482875       -13.1397 
  64   1.0000      -0.480974       -13.0880 
  65   1.0000      -0.451884       -12.2964 
  66   1.0000      -0.448876       -12.2145 
  67   1.0000      -0.446214       -12.1421 
  68   1.0000      -0.430031       -11.7017 
  69   1.0000      -0.427530       -11.6337 
  70   1.0000      -0.411797       -11.2056 
  71   1.0000      -0.361576        -9.8390 
  72   0.0000       0.012615         0.3433 
  73   0.0000       0.023354         0.6355 
  74   0.0000       0.023858         0.6492 
  75   0.0000       0.030454         0.8287 
  76   0.0000       0.039140         1.0650 
  77   0.0000       0.040946         1.1142 
  78   0.0000       0.042708         1.1621 
  79   0.0000       0.043459         1.1826 
  80   0.0000       0.044023         1.1979 
  81   0.0000       0.054333         1.4785 
  82   0.0000       0.056368         1.5339 
  83   0.0000       0.060509         1.6465 
  84   0.0000       0.063679         1.7328 
  85   0.0000       0.065787         1.7902 
  86   0.0000       0.066028         1.7967 
  87   0.0000       0.072492         1.9726 
  88   0.0000       0.075855         2.0641 
  89   0.0000       0.080157         2.1812 
  90   0.0000       0.090919         2.4740 
  91   0.0000       0.092058         2.5050 
  92   0.0000       0.093136         2.5343 
  93   0.0000       0.098060         2.6683 
  94   0.0000       0.101631         2.7655 
  95   0.0000       0.103512         2.8167 
  96   0.0000       0.104560         2.8452 
  97   0.0000       0.107242         2.9182 
  98   0.0000       0.108497         2.9524 
  99   0.0000       0.111730         3.0403 
 100   0.0000       0.112937         3.0732 
 101   0.0000       0.114577         3.1178 
 102   0.0000       0.118595         3.2271 
 103   0.0000       0.123177         3.3518 
 104   0.0000       0.123755         3.3675 
 105   0.0000       0.126487         3.4419 
 106   0.0000       0.128385         3.4935 
 107   0.0000       0.130748         3.5578 
 108   0.0000       0.131233         3.5710 
 109   0.0000       0.135799         3.6953 
 110   0.0000       0.137263         3.7351 
 111   0.0000       0.139861         3.8058 
 112   0.0000       0.143871         3.9149 
 113   0.0000       0.146409         3.9840 
 114   0.0000       0.151394         4.1196 
 115   0.0000       0.152523         4.1504 
 116   0.0000       0.157314         4.2807 
 117   0.0000       0.160356         4.3635 
 118   0.0000       0.163958         4.4615 
 119   0.0000       0.166255         4.5240 
 120   0.0000       0.169676         4.6171 
 121   0.0000       0.174052         4.7362 
 122   0.0000       0.176422         4.8007 
 123   0.0000       0.178555         4.8587 
 124   0.0000       0.182549         4.9674 
 125   0.0000       0.187652         5.1063 
 126   0.0000       0.189244         5.1496 
 127   0.0000       0.191136         5.2011 
 128   0.0000       0.198256         5.3948 
 129   0.0000       0.200510         5.4561 
 130   0.0000       0.202755         5.5172 
 131   0.0000       0.203630         5.5411 
 132   0.0000       0.206405         5.6166 
 133   0.0000       0.209024         5.6878 
 134   0.0000       0.216934         5.9031 
 135   0.0000       0.218242         5.9387 
 136   0.0000       0.220263         5.9937 
 137   0.0000       0.225056         6.1241 
 138   0.0000       0.229304         6.2397 
 139   0.0000       0.232536         6.3276 
 140   0.0000       0.238243         6.4829 
 141   0.0000       0.241515         6.5720 
 142   0.0000       0.244761         6.6603 
 143   0.0000       0.245903         6.6914 
 144   0.0000       0.249656         6.7935 
 145   0.0000       0.252217         6.8632 
 146   0.0000       0.256079         6.9683 
 147   0.0000       0.258176         7.0253 
 148   0.0000       0.262964         7.1556 
 149   0.0000       0.265698         7.2300 
 150   0.0000       0.272826         7.4240 
 151   0.0000       0.275928         7.5084 
 152   0.0000       0.279405         7.6030 
 153   0.0000       0.280935         7.6446 
 154   0.0000       0.288360         7.8467 
 155   0.0000       0.292956         7.9717 
 156   0.0000       0.294836         8.0229 
 157   0.0000       0.299092         8.1387 
 158   0.0000       0.302302         8.2261 
 159   0.0000       0.308725         8.4008 
 160   0.0000       0.310414         8.4468 
 161   0.0000       0.319507         8.6942 
 162   0.0000       0.321247         8.7416 
 163   0.0000       0.323453         8.8016 
 164   0.0000       0.329586         8.9685 
 165   0.0000       0.333518         9.0755 
 166   0.0000       0.337314         9.1788 
 167   0.0000       0.341132         9.2827 
 168   0.0000       0.344497         9.3742 
 169   0.0000       0.347213         9.4481 
 170   0.0000       0.350047         9.5253 
 171   0.0000       0.356333         9.6963 
 172   0.0000       0.359896         9.7933 
 173   0.0000       0.362302         9.8587 
 174   0.0000       0.363780         9.8990 
 175   0.0000       0.366617         9.9762 
 176   0.0000       0.367614        10.0033 
 177   0.0000       0.376258        10.2385 
 178   0.0000       0.380688        10.3591 
 179   0.0000       0.382632        10.4120 
 180   0.0000       0.385249        10.4831 
 181   0.0000       0.387229        10.5370 
 182   0.0000       0.391306        10.6480 
 183   0.0000       0.394471        10.7341 
 184   0.0000       0.395343        10.7578 
 185   0.0000       0.397479        10.8159 
 186   0.0000       0.403864        10.9897 
 187   0.0000       0.406019        11.0483 
 188   0.0000       0.407378        11.0853 
 189   0.0000       0.410357        11.1664 
 190   0.0000       0.412969        11.2375 
 191   0.0000       0.416306        11.3283 
 192   0.0000       0.418978        11.4010 
 193   0.0000       0.428097        11.6491 
 194   0.0000       0.432824        11.7777 
 195   0.0000       0.436995        11.8912 
 196   0.0000       0.437255        11.8983 
 197   0.0000       0.444550        12.0968 
 198   0.0000       0.448526        12.2050 
 199   0.0000       0.450681        12.2637 
 200   0.0000       0.454997        12.3811 
 201   0.0000       0.458469        12.4756 
 202   0.0000       0.458969        12.4892 
 203   0.0000       0.465705        12.6725 
 204   0.0000       0.468464        12.7475 
 205   0.0000       0.473855        12.8942 
 206   0.0000       0.475174        12.9301 
 207   0.0000       0.477888        13.0040 
 208   0.0000       0.479340        13.0435 
 209   0.0000       0.484364        13.1802 
 210   0.0000       0.488422        13.2906 
 211   0.0000       0.490502        13.3472 
 212   0.0000       0.496113        13.4999 
 213   0.0000       0.497931        13.5494 
 214   0.0000       0.501434        13.6447 
 215   0.0000       0.506677        13.7874 
 216   0.0000       0.507348        13.8056 
 217   0.0000       0.509048        13.8519 
 218   0.0000       0.513986        13.9863 
 219   0.0000       0.517442        14.0803 
 220   0.0000       0.519183        14.1277 
 221   0.0000       0.521473        14.1900 
 222   0.0000       0.524617        14.2756 
 223   0.0000       0.527351        14.3499 
 224   0.0000       0.533357        14.5134 
 225   0.0000       0.535401        14.5690 
 226   0.0000       0.536447        14.5975 
 227   0.0000       0.540741        14.7143 
 228   0.0000       0.542666        14.7667 
 229   0.0000       0.546676        14.8758 
 230   0.0000       0.551832        15.0161 
 231   0.0000       0.553194        15.0532 
 232   0.0000       0.560583        15.2542 
 233   0.0000       0.562065        15.2946 
 234   0.0000       0.567978        15.4555 
 235   0.0000       0.570514        15.5245 
 236   0.0000       0.573388        15.6027 
 237   0.0000       0.576913        15.6986 
 238   0.0000       0.579745        15.7757 
 239   0.0000       0.581691        15.8286 
 240   0.0000       0.586887        15.9700 
 241   0.0000       0.593044        16.1375 
 242   0.0000       0.597151        16.2493 
 243   0.0000       0.601425        16.3656 
 244   0.0000       0.603510        16.4223 
 245   0.0000       0.608460        16.5570 
 246   0.0000       0.611450        16.6384 
 247   0.0000       0.616050        16.7636 
 248   0.0000       0.620712        16.8904 
 249   0.0000       0.623378        16.9630 
 250   0.0000       0.625622        17.0240 
 251   0.0000       0.628557        17.1039 
 252   0.0000       0.638844        17.3838 
 253   0.0000       0.639504        17.4018 
 254   0.0000       0.641388        17.4531 
 255   0.0000       0.647406        17.6168 
 256   0.0000       0.651339        17.7238 
 257   0.0000       0.654409        17.8074 
 258   0.0000       0.655935        17.8489 
 259   0.0000       0.657155        17.8821 
 260   0.0000       0.663599        18.0574 
 261   0.0000       0.665425        18.1071 
 262   0.0000       0.670647        18.2492 
 263   0.0000       0.675516        18.3817 
 264   0.0000       0.679793        18.4981 
 265   0.0000       0.682370        18.5682 
 266   0.0000       0.687318        18.7029 
 267   0.0000       0.688915        18.7463 
 268   0.0000       0.692036        18.8312 
 269   0.0000       0.703619        19.1464 
 270   0.0000       0.706972        19.2377 
 271   0.0000       0.714993        19.4560 
 272   0.0000       0.717567        19.5260 
 273   0.0000       0.722476        19.6596 
 274   0.0000       0.724364        19.7109 
 275   0.0000       0.727253        19.7896 
 276   0.0000       0.731570        19.9070 
 277   0.0000       0.739624        20.1262 
 278   0.0000       0.741117        20.1668 
 279   0.0000       0.746299        20.3078 
 280   0.0000       0.751552        20.4508 
 281   0.0000       0.756424        20.5834 
 282   0.0000       0.758614        20.6429 
 283   0.0000       0.762792        20.7566 
[...]
  | sigma^2 in % of trace(Dij) retained ...   9.03e+00
  | sigma^2 in % of trace(Dip) retained ...   2.31e+01
  | sigma^2 in % of trace(Dpq) retained ...   1.37e-01
  | Av. % of trace(Di) retained         ...  99.998542621666
  | Av. % of trace(Dp) retained         ...  99.999998709180
  | sigma^2 in % of trace(Di) retained  ...   6.96e-07
  | sigma^2 in % of trace(Dp) retained  ...   1.09e-12
 Distributions of % trace(Dij) recovered:
  |       >= 99.9  ...   105 ( 21.4 % of all IJ-pairs)
  |   [80.0, 90.0) ...    24 (  4.9 % of all IJ-pairs)
  |   [90.0, 99.0) ...   273 ( 55.7 % of all IJ-pairs)
  |   [99.0, 99.9) ...    88 ( 18.0 % of all IJ-pairs)
 Distributions of % trace(Dip) recovered:
  |   [80.0, 90.0) ...    17 ( 14.4 % of all IP-pairs)
  |   [90.0, 99.0) ...    56 ( 47.5 % of all IP-pairs)
  |   [99.0, 99.9) ...    45 ( 38.1 % of all IP-pairs)
 Distributions of % trace(Dpq) recovered:
  |       >= 99.9  ...     5 ( 33.3 % of all PQ-pairs)
  |   [99.0, 99.9) ...    10 ( 66.7 % of all PQ-pairs)
 Distributions of % trace(Di) recovered :
  |       >= 99.9  ...    43 (100.0 % of all I-pairs )
 Distributions of % trace(Dp) recovered :
  |       >= 99.9  ...     5 (100.0 % of all P-pairs )

                       ===========================
                       1080 OF 1696 PAIRS ARE KEPT
                       ===========================

 Initial PAO correlation energy (all pairs)    ...  -2.6872154684 Eh
 Energy constituents in PAO basis (Eh):
  | Vijab(+0) ...  -2.2596338120
  | Viab (-1) ...  -0.1743466752
  | Vab  (-2) ...  -0.0573398799
  | Va   (-1) ...  -0.0000445806
  | Vija (+1) ...  -0.0716357218
  | Vij  (+2) ...  -0.0155339664
  | Via  (+0) ...  -0.1085181548
  | Vi   (+1) ...  -0.0001626777
 Initial PNO correlation energy                ...  -2.6525207605 Eh
 Energy constituents in PNO basis (Eh):
  | Vijab(+0) ...  -2.2406743802 (err=  0.0189594318)
  | Viab (-1) ...  -0.1602493536 (err=  0.0140973215)
  | Vab  (-2) ...  -0.0568850738 (err=  0.0004548061)
  | Va   (-1) ...  -0.0000258533 (err=  0.0000187273)
  | Vija (+1) ...  -0.0706468515 (err=  0.0009888704)
  | Vij  (+2) ...  -0.0154767189 (err=  0.0000572475)
  | Via  (+0) ...  -0.1084003574 (err=  0.0001177973)
  | Vi   (+1) ...  -0.0001621716 (err=  0.0000005060)
 Sum of total truncation errors ...   0.0346947079 Eh
  | Pair screening ...   0.0120609168 Eh
  | PNO truncation ...   0.0226337911 Eh

 UMP2 correlation energy (PAO) ...  -2.6821849213
  | alpha-alpha ...  -0.3850729499 (NP_aa=  912)
  | alpha-beta  ...  -1.9916192763 (NP_ab= 1671)
  | beta -beta  ...  -0.3054926951 (NP_bb=  726)
 UMP2 correlation energy (PNO) ...  -2.6471226915
  | alpha-alpha ...  -0.3729493393 (err=  0.0121236106, NP_aa=  575)
  | alpha-beta  ...  -1.9728617089 (err=  0.0187575674, NP_ab= 1055)
  | beta -beta  ...  -0.3013116433 (err=  0.0041810518, NP_bb=  447)
 Sum of total UMP2 truncation errors ...   0.0350622299 Eh
  | Pair screening ...   0.0120701401 Eh
  | PNO truncation ...   0.0229920897 Eh
 Timing for NEV-PNO construction (sec.)
  | Intermediate construction  ..           47.027
  | Amplitude construction     ..           68.074
  | Total time                 ..          115.102
 Making pair pair interaction lists ...      ok
 Total size for 2-ext PNO integrals ...     10.7 MB
Checking the number of SOMO/SOMO doubles PNOs ... 
 #Truncate: (72, 72)[171] -> [85] .. 
 #Truncate: (73, 73)[174] -> [85] .. 
 #Truncate: (74, 74)[171] -> [85] .. 
 #Truncate: (75, 75)[171] -> [85] .. 
 #Truncate: (76, 76)[169] -> [85] .. 

--------------------------------
LOCAL RI TRANSFORMATION (VABPAO)
--------------------------------

Number of PAOs:    1030
Basis functions:   1025 (343 shells)
Aux. functions:    2424 (644 shells)

Processing maps (0.0 sec)
Average map sizes:
   Aux shells -> PAOs           1030.0
   PAOs       -> AO shells       343.0

Calculating integrals (203.2 sec, 37370.165 MB)
Finished
-----------------------------
LOCAL RI TRANSFORMATION (IJV)
-----------------------------

Orbital window:      29 to 76
Basis functions:   1025 (343 shells)
Aux. functions:    2424 (644 shells)

Processing maps (0.0 sec)
Average map sizes:
   Aux shells -> MOs(i)           46.4
   Aux shells -> MOs(j)           48.0
   MOs        -> AO shells       340.2

Calculating integrals (23.0 sec, 41.374 MB)
Sorting integrals (0.3 sec, 41.347 MB)
Total time for the integral transformation: 23.4 sec


-------------------------------------
Pair Pair Term precalculation with     
RI-(ij|mn) and (im|jn) transformation  
ON THE FLY                             
-------------------------------------

   IBatch   1 (of   2)              ... done ( 1229.827 sec)
   IBatch   2 (of   2)              ... done (  948.407 sec)
Total EXT                           ...        2178.234 sec

---------------------
RI-PNO TRANSFORMATION
---------------------

Total Number of PNOs                   ... 33527
Total Number of IJ-PNOs                ... 29391
Total Number of IP-PNOs                ...  3183
Total Number of PQ-PNOs                ...   953
Total Number of IJ-pairs               ...   937
Total Number of PI-pairs               ...   118
Total Number of PQ-pairs               ...    25
Average number of PNOs per pair        ...    31
Maximal number of PNOs per pair        ...    85
>> Statistics for ij-pairs..
   #pairs with  1 -  5 PNOs   :    0
   #pairs with  6 - 10 PNOs   :    0
   #pairs with 11 - 15 PNOs   :   86
   #pairs with 16 - 20 PNOs   :  208
   #pairs with 21 - 25 PNOs   :  154
   #pairs with 26 - 30 PNOs   :  140
   #pairs with 31 - 35 PNOs   :   58
   #pairs with 36 - 40 PNOs   :   50
   #pairs with 41 - 45 PNOs   :   54
   #pairs with 46 - 50 PNOs   :   20
   #pairs with 51 - 55 PNOs   :   33
   #pairs with 56 - 60 PNOs   :   58
   #pairs with 61 - 65 PNOs   :   71
   #pairs with 66 - 70 PNOs   :    2
   #pairs with 71 - 75 PNOs   :    1
   #pairs with 81 - 85 PNOs   :    2
>> Statistics for ip-pairs..
   #pairs with  1 -  5 PNOs   :    0
   #pairs with  6 - 10 PNOs   :    4
   #pairs with 11 - 15 PNOs   :   14
   #pairs with 16 - 20 PNOs   :    7
   #pairs with 21 - 25 PNOs   :   25
   #pairs with 26 - 30 PNOs   :   10
   #pairs with 31 - 35 PNOs   :   44
   #pairs with 36 - 40 PNOs   :   13
   #pairs with 41 - 45 PNOs   :    1
   #pairs with 46 - 50 PNOs   :    0
>> Statistics for pq-pairs..
   #pairs with  1 -  5 PNOs   :    0
   #pairs with  6 - 10 PNOs   :    0
   #pairs with 11 - 15 PNOs   :    0
   #pairs with 16 - 20 PNOs   :    0
   #pairs with 21 - 25 PNOs   :   10
   #pairs with 26 - 30 PNOs   :   10
   #pairs with 31 - 35 PNOs   :    0
   #pairs with 36 - 40 PNOs   :    0
   #pairs with 41 - 45 PNOs   :    0
   #pairs with 46 - 50 PNOs   :    0
   #pairs with 81 - 85 PNOs   :    5

Generation of (ij|ab)[P] integrals            ... on
Generation of (ia|bc)[P],(ja|bc)[P] integrals ... on
Storage of 3 and 4 external integrals         ... on
Generation of ALL (ka|bc)[P] integrals        ... on
Keep RI integrals in memory                   ... off

Ibatch:  1 (of  1)
Starting 2-4 index PNO integral generation ... done

Timings:
Total PNO integral transformation time     ...       2018.306 sec
Size of the 3-external file                ...       281 MB
Size of the 4-external file                ...      1914 MB
Size of the IKJL file                      ...        17 MB
Size of the all 3-external file            ...      6765 MB
Size of the 1-external file                ...        21 MB

Size of the PAO/PNO coefficient matrices   ...     213.5 MB

Making pair/pair overlap matrices          ... done (  342.354 sec)
Size of the pair overlap file              ...    2345.0 MB
Total # unrestricted pairs ...       2077
  # of alpha-alpha pairs   ...        575
  # of alpha-beta pairs    ...       1055
  # of beta-beta pairs     ...        447
Constructing the guess amplitudes          ... done (    0.685 sec)

-------------------------
FINAL STARTUP INFORMATION
-------------------------

E(0)                                       ...  -3028.453163976
E(SL-UMP2 in NEV-PNO space)                ...     -2.683126458
Initial E(tot)                             ...  -3031.136290434
<T|T>                                      ...      0.533151818
Number of unrestricted pairs included      ... 2077
Total number of pairs                      ... 4095
----------------------------------------------------------
                     OPEN-SHELL COUPLED CLUSTER ITERATIONS
----------------------------------------------------------

Number of PNO amplitudes to be optimized        ...          2060408
Number of canonical amplitudes for strong pairs ...       1875944126
Untruncated number of canonical amplitudes      ...       3698645738

Iter       E(tot)           E(Corr)          Delta-E          Residual     Time
  0  -3031.143485582     -2.654317839      0.028808619      0.021122573 1812.95
                           *** Turning on DIIS ***
  1  -3031.258478650     -2.769310908     -0.114993069      0.009702091 1798.01
  2  -3031.323237261     -2.834069519     -0.064758611      0.008442825 1777.85
  3  -3031.345013725     -2.855845982     -0.021776463      0.003246344 1762.18
  4  -3031.352543632     -2.863375890     -0.007529908      0.002641113 1774.23
  5  -3031.356660327     -2.867492585     -0.004116695      0.001523203 1803.99
  6  -3031.358178206     -2.869010464     -0.001517879      0.000765952 1818.07
  7  -3031.358827245     -2.869659503     -0.000649039      0.000498487 1788.22
  8  -3031.358969972     -2.869802230     -0.000142727      0.000233110 1786.75
  9  -3031.359029148     -2.869861405     -0.000059176      0.000138910 1786.21
 10  -3031.359028913     -2.869861170      0.000000235      0.000097165 1809.71
 11  -3031.359041522     -2.869873779     -0.000012609      0.000056018 1791.83
 12  -3031.359046622     -2.869878880     -0.000005100      0.000028859 1784.64
 13  -3031.359049033     -2.869881291     -0.000002411      0.000017263 1762.49
 14  -3031.359050702     -2.869882960     -0.000001669      0.000008685 1780.06
               --- The CCSD iterations have converged ---

E(0)                                       ...  -3028.453163976
E(CORR)(strong-pairs)                      ...     -2.869882960
E(CORR)(weak-pairs)                        ...     -0.036003767
E(CORR)(corrected)                         ...     -2.905886726
E(TOT)                                     ...  -3031.359050702
Singles norm <S|S>**1/2                    ...      0.194771857 ( 0.064776425, 0.129995432)  
T1 diagnostic                              ...      0.020417638                              
<S**2>(linearized)                         ...      8.7508328 (ideal value:      8.7500000)

----------------------
LARGEST PNO AMPLITUDES
----------------------
  46a-> 78a  46b-> 78b       0.059376
  52b-> 76b  -1b-> -1b       0.054726
  49b-> 72b  -1b-> -1b       0.054103
  51b-> 76b  -1b-> -1b       0.053954
  49b-> 75b  -1b-> -1b       0.046835
  49b-> 74b  -1b-> -1b       0.046373
  56a-> 77a  56b-> 77b       0.045583
  42b-> 73b  -1b-> -1b       0.044946
  55a-> 77a  55b-> 77b       0.044544
  70a-> 77a  70b-> 77b       0.044302
  38b-> 73b  -1b-> -1b       0.044073
  47a-> 78a  47b-> 78b       0.043953
  58a-> 77a  58b-> 77b       0.043486
  62a-> 77a  62b-> 77b       0.043367
  64a-> 77a  64b-> 77b       0.043265
  35b-> 72b  -1b-> -1b       0.042895

Total # unrestricted pairs ...       1232
  # of alpha-alpha pairs   ...        337
  # of alpha-beta pairs    ...        616
  # of beta-beta pairs     ...        279

-------------------------------------------
DLPNO BASED TRIPLES CORRECTION
-------------------------------------------

Singles multiplier          ...  1.000000
Fragment selection                          .... not used
TCutTNO                     ... 1.000e-09
TCutMP2Pairs                ... 1.000e-05
TCutDOStrong                ... 2.000e-02
TCutMKNStrong               ... 1.000e-02
TCutDOWeak                  ... 4.000e-02
TCutMKNWeak                 ... 1.000e-01
NTCutTNO                    ... 1

Number of Triples that are to be computed         ...     33172

 . . . . . . . . .
10% done  
20% done  
30% done  
40% done  
50% done  
60% done  
70% done  
80% done  
90% done  
          Batch   1   done (  13899.855 sec)

Triples-Correction TCutTNO=   1.000e-09 (NWeakPairs = 0  1  2  3)  -0.116677568705   -0.001879593828    0.000000000000    0.000000000000
Triples-Correction  -0.118557162534

Triples timings:
Total time                      ... 14550.311 sec

Triples List generation         ...     0.000 sec
TNO generation                  ...   650.161 sec
Pair density generation         ...     0.102 sec
Look up tables                  ...     0.110 sec
Generating 3-index integrals    ...  8427.480 sec
Make 4-ind.int. from 3-ind.int  ...     3.291 sec
Projecting amplitudes (D + S)   ...  5227.184 sec
Sorting integrals for spin cases...    49.950 sec
Calculate W0/W1                 ...   154.720 sec
Energy contr. (sum over a,b,c)  ...    37.093 sec

Everything after 3-index        ...  5592.301 sec

Energy contribution AAA         ...    23.434 sec
Energy contribution AAB         ...   107.464 sec
Energy contribution ABB         ...    97.801 sec
Energy contribution BBB         ...    13.110 sec
prep                ...     3.046 sec
makeTTNO            ...  5173.542 sec
copyij              ...     0.123 sec
copyil              ...     3.933 sec
transposeij         ...     0.074 sec
newMatInDoubleProj  ...    52.073 sec
BlasInDoubleProj    ...  2794.589 sec
ProjSingles         ...    44.087 sec
ProjDoubles         ...  5183.097 sec
overall Doubles for projection      ... 2990073
used Doubles for projection         ... 2990073


Number of Triples   (0, 1, 2, 3 weak pairs; overall):  15314   12147       0       0  ( 27461)
Number of Atoms     (0, 1, 2, 3 weak pairs; overall):   19.3    13.8     0.0     0.0  (    29)
Number of PAOs      (0, 1, 2, 3 weak pairs; overall):  751.4   562.5     0.0     0.0  (  1025)
Number of AuxFcns   (0, 1, 2, 3 weak pairs; overall):  867.1   583.8     0.0     0.0  (  2424)
Number of TNOs (0, 1, 2, 3 weak pairs         ):   78.5    55.6     0.0     0.0
Aver. Number of NTNO, Atoms, PAOs, AuxFcns / Triples:  27461    68.4    16.8   667.8   741.8

Triples Correction (T)                     ...     -0.118557163
    alpha-alpha-alpha ... -0.003816528 (  3.2%)
    alpha-alpha-beta  ... -0.055671289 ( 47.0%)
    alpha-beta -beta  ... -0.054997974 ( 46.4%)
    beta -beta -beta  ... -0.004071372 (  3.4%)
Final correlation energy                   ...     -3.024443889
E(CCSD)                                    ...  -3031.359050702
E(CCSD(T))                                 ...  -3031.477607865

----------------------------
STATISTICS FOR PAIR-ENERGIES
----------------------------
Minimum, maximum and average ratios of UMP and CCSD pair-energies ... 0.50, 1.45, 1.02


------------------------------------------------------------------------------- 
                                     TIMINGS                                   
------------------------------------------------------------------------------- 


Total execution time                   ...    49328.983 sec

Localization of occupied MO's          ...        9.457 sec (  0.0%)
Fock Matrix Formation                  ...     1389.126 sec (  2.8%)
Differential overlap integrals         ...        1.480 sec (  0.0%)
Organizing maps                        ...        1.679 sec (  0.0%)
RI 3-index integral generations        ...      288.384 sec (  0.6%)
RI-PNO integral transformation         ...     4661.728 sec (  9.5%)
Initial Guess                          ...     1847.074 sec (  3.7%)
DIIS Solver                            ...       16.350 sec (  0.0%)
State Vector Update                    ...        0.696 sec (  0.0%)
Sigma-vector construction              ...    26837.170 sec ( 54.4%)
  <0|H|D>                              ...        0.030 sec (  0.0% of sigma)
  <D|H|D>(0-ext)                       ...     4823.719 sec ( 18.0% of sigma)
  <D|H|D>(2-ext Fock)                  ...        1.841 sec (  0.0% of sigma)
  <D|H|D>(2-ext)                       ...     3696.217 sec ( 13.8% of sigma)
  <D|H|D>(4-ext)                       ...      157.167 sec (  0.6% of sigma)
  <D|H|D>(4-ext-corr)                  ...      979.917 sec (  3.7% of sigma)
  CCSD doubles correction              ...      443.656 sec (  1.7% of sigma)
  <S|H|S>                              ...      703.662 sec (  2.6% of sigma)
  <S|H|D>(1-ext)                       ...      287.864 sec (  1.1% of sigma)
  <D|H|S>(1-ext)                       ...        0.784 sec (  0.0% of sigma)
  <S|H|D>(3-ext)                       ...       20.339 sec (  0.1% of sigma)
  CCSD singles correction              ...        0.005 sec (  0.0% of sigma)
  Fock-dressing                        ...     7682.116 sec ( 28.6% of sigma)
  Singles amplitudes                   ...      119.631 sec (  0.4% of sigma)
  (ik|jl)-dressing                     ...     6277.166 sec ( 23.4% of sigma)
  (ij|ab),(ia|jb)-dressing             ...     1400.474 sec (  5.2% of sigma)
  Pair energies                        ...        0.119 sec (  0.0% of sigma)
Total Time for computing (T)           ...    14626.223 sec ( 29.7% of ALL)


-------------------------   --------------------
FINAL SINGLE POINT ENERGY     -3031.477607864921
-------------------------   --------------------


                            ***************************************
                            *     ORCA property calculations      *
                            ***************************************

                                    ---------------------
                                    Active property flags
                                    ---------------------
   (+) Dipole Moment


------------------------------------------------------------------------------
                       ORCA ELECTRIC PROPERTIES CALCULATION
------------------------------------------------------------------------------

Dipole Moment Calculation                       ... on
Quadrupole Moment Calculation                   ... off
Polarizability Calculation                      ... off
GBWName                                         ... simple-grid-250-260-b3lyp_d3bj-631gd-gas-singlepoint-DLPNO_CCSD_T1-NormalPNO-augtz-gas.gbw
Electron density file                           ... simple-grid-250-260-b3lyp_d3bj-631gd-gas-singlepoint-DLPNO_CCSD_T1-NormalPNO-augtz-gas.scfp.tmp
The origin for moment calculation is the CENTER OF MASS  = ( 0.312283,  0.030246  0.018552)

-------------
DIPOLE MOMENT
-------------
                                X             Y             Z
Electronic contribution:     43.00136       3.38185       2.12974
Nuclear contribution   :    -46.53009      -4.50662      -2.76424
                        -----------------------------------------
Total Dipole Moment    :     -3.52873      -1.12477      -0.63450
                        -----------------------------------------
Magnitude (a.u.)       :      3.75761
Magnitude (Debye)      :      9.55108



--------------------
Rotational spectrum 
--------------------
 
Rotational constants in cm-1:     0.019055     0.010949     0.010318 
Rotational constants in MHz :   571.263146   328.237290   309.319177 

 Dipole components along the rotational axes: 
x,y,z [a.u.] :    -3.522467     1.133749    -0.653030 
x,y,z [Debye]:    -8.953400     2.881761    -1.659870 

 

Timings for individual modules:

Sum of individual times         ...    65833.789 sec (=1097.230 min)
GTO integral calculation        ...       11.637 sec (=   0.194 min)   0.0 %
SCF iterations                  ...    16475.617 sec (= 274.594 min)  25.0 %
MDCI module                     ...    49346.535 sec (= 822.442 min)  75.0 %
                             ****ORCA TERMINATED NORMALLY****
TOTAL RUN TIME: 0 days 18 hours 17 minutes 16 seconds 447 msec
