
                                 *****************
                                 * O   R   C   A *
                                 *****************

           --- An Ab Initio, DFT and Semiempirical electronic structure package ---

                  #######################################################
                  #                        -***-                        #
                  #          Department of theory and spectroscopy      #
                  #               Directorship: Frank Neese             #
                  #        Max Planck Institute fuer Kohlenforschung    #
                  #                Kaiser Wilhelm Platz 1               #
                  #                 D-45470 Muelheim/Ruhr               #
                  #                      Germany                        #
                  #                                                     #
                  #                  All rights reserved                #
                  #                        -***-                        #
                  #######################################################


                         Program Version 4.1.2  - RELEASE  -


 With contributions from (in alphabetic order):
   Daniel Aravena         : Magnetic Properties
   Michael Atanasov       : Ab Initio Ligand Field Theory
   Alexander A. Auer      : GIAO ZORA
   Ute Becker             : Parallelization
   Giovanni Bistoni       : ED, Open-shell LED
   Martin Brehm           : Molecular dynamics
   Dmytro Bykov           : SCF Hessian
   Vijay G. Chilkuri      : MRCI spin determinant printing
   Dipayan Datta          : RHF DLPNO-CCSD density
   Achintya Kumar Dutta   : EOM-CC, STEOM-CC
   Dmitry Ganyushin       : Spin-Orbit,Spin-Spin,Magnetic field MRCI
   Miquel Garcia          : C-PCM Hessian
   Yang Guo               : DLPNO-NEVPT2, CIM, IAO-localization
   Andreas Hansen         : Spin unrestricted coupled pair/coupled cluster methods
   Benjamin Helmich-Paris : CASSCF linear response (MC-RPA)
   Lee Huntington         : MR-EOM, pCC
   Robert Izsak           : Overlap fitted RIJCOSX, COSX-SCS-MP3, EOM
   Christian Kollmar      : KDIIS, OOCD, Brueckner-CCSD(T), CCSD density
   Simone Kossmann        : Meta GGA functionals, TD-DFT gradient, OOMP2, MP2 Hessian
   Martin Krupicka        : AUTO-CI
   Lucas Lang             : DCDCAS
   Dagmar Lenk            : GEPOL surface, SMD
   Dimitrios Liakos       : Extrapolation schemes; parallel MDCI
   Dimitrios Manganas     : ROCIS; embedding schemes
   Dimitrios Pantazis     : SARC Basis sets
   Taras Petrenko         : DFT Hessian,TD-DFT gradient, ASA, ECA, R-Raman, ABS, FL, XAS/XES, NRVS
   Peter Pinski           : DLPNO-MP2, DLPNO-MP2 Gradient
   Christoph Reimann      : Effective Core Potentials
   Marius Retegan         : Local ZFS, SOC
   Christoph Riplinger    : Optimizer, TS searches, QM/MM, DLPNO-CCSD(T), (RO)-DLPNO pert. Triples
   Tobias Risthaus        : Range-separated hybrids, TD-DFT gradient, RPA, STAB
   Michael Roemelt        : Restricted open shell CIS
   Masaaki Saitow         : Open-shell DLPNO
   Barbara Sandhoefer     : DKH picture change effects
   Avijit Sen             : IP-ROCIS
   Kantharuban Sivalingam : CASSCF convergence, NEVPT2, FIC-MRCI
   Bernardo de Souza      : ESD, SOC TD-DFT
   Georgi Stoychev        : AutoAux, RI-MP2 NMR
   Willem Van den Heuvel  : Paramagnetic NMR
   Boris Wezisla          : Elementary symmetry handling
   Frank Wennmohs         : Technical directorship


 We gratefully acknowledge several colleagues who have allowed us to
 interface, adapt or use parts of their codes:
   Stefan Grimme, W. Hujo, H. Kruse,             : VdW corrections, initial TS optimization,
                  C. Bannwarth                     DFT functionals, gCP, sTDA/sTD-DF
   Ed Valeev                                     : LibInt (2-el integral package), F12 methods
   Garnet Chan, S. Sharma, J. Yang, R. Olivares  : DMRG
   Ulf Ekstrom                                   : XCFun DFT Library
   Mihaly Kallay                                 : mrcc  (arbitrary order and MRCC methods)
   Andreas Klamt, Michael Diedenhofen            : otool_cosmo (COSMO solvation model)
   Jiri Pittner, Ondrej Demel                    : Mk-CCSD
   Frank Weinhold                                : gennbo (NPA and NBO analysis)
   Christopher J. Cramer and Donald G. Truhlar   : smd solvation model
   Lars Goerigk                                  : TD-DFT with DH, B97 family of functionals
   V. Asgeirsson, H. Jonsson                     : NEB implementation
   FAccTs GmbH                                   : IRC, NEB, NEB-TS, Multilevel


 Your calculation uses the libint2 library for the computation of 2-el integrals
 For citations please refer to: http://libint.valeyev.net

 This ORCA versions uses:
   CBLAS   interface :  Fast vector & matrix operations
   LAPACKE interface :  Fast linear algebra routines
   SCALAPACK package :  Parallel linear algebra routines


----- Orbital basis set information -----
Your calculation utilizes the basis: aug-cc-pVTZ 
    H, B-Ne : Obtained from the ccRepo (grant-hill.group.shef.ac.uk/ccrepo) Feb. 2017
              R. A. Kendall, T. H. Dunning, Jr., R. J. Harrison, J. Chem. Phys. 96, 6796 (1992)
         He : Obtained from the ccRepo (grant-hill.group.shef.ac.uk/ccrepo) Feb. 2017
              D. E. Woon, T. H. Dunning, Jr., J. Chem. Phys. 100, 2975 (1994)
  Li-Be, Na : Obtained from the ccRepo (grant-hill.group.shef.ac.uk/ccrepo) Feb. 2017
              B. P. Prascher, D. E. Woon, K. A. Peterson, T. H. Dunning, Jr., A. K. Wilson, Theor. Chem. Acc. 128, 69 (2011)
         Mg : Obtained from the Peterson Research Group Website (tyr0.chem.wsu.edu/~kipeters) Feb. 2017
              B. P. Prascher, D. E. Woon, K. A. Peterson, T. H. Dunning, Jr., A. K. Wilson, Theor. Chem. Acc. 128, 69 (2011)
      Al-Ar : Obtained from the ccRepo (grant-hill.group.shef.ac.uk/ccrepo) Feb. 2017
              D. E. Woon, T. H. Dunning, Jr., J. Chem. Phys. 98, 1358 (1993)
      Sc-Zn : Obtained from the ccRepo (grant-hill.group.shef.ac.uk/ccrepo) Feb. 2017
              N. B. Balabanov, K. A. Peterson, J. Chem. Phys. 123, 064107 (2005)
              N. B. Balabanov, K. A. Peterson, J. Chem. Phys. 125, 074110 (2006)
      Ga-Kr : Obtained from the ccRepo (grant-hill.group.shef.ac.uk/ccrepo) Feb. 2017
              A. K. Wilson, D. E. Woon, K. A. Peterson, T. H. Dunning, Jr., J. Chem. Phys. 110, 7667 (1999)
     Ag, Au : Obtained from the Peterson Research Group Website (tyr0.chem.wsu.edu/~kipeters) Feb. 2017
              K. A. Peterson, C. Puzzarini, Theor. Chem. Acc. 114, 283 (2005)

----- AuxJ basis set information -----
Your calculation utilizes the AutoAux generation procedure.
  G. L. Stoychev, A. A. Auer, F. Neese, J. Chem. Theory Comput. 13, 554 (2017)

----- AuxC basis set information -----
Your calculation utilizes the auxiliary basis: aug-cc-pVTZ/C 
  H-He, B-F, Al-Ar, Ga-Kr : Obtained from the EMSL Basis Set Exchange (bse.pnl.gov) Feb. 2017
                            F. Weigend, A. Kohn, C. Hattig, J. Chem. Phys. 116, 3175 (2002)
                   Be, Mg : Obtained from the TURBOMOLE 7.0 basis set library
                            C. Haettig, Phys. Chem. Chem. Phys. 7, 59 (2005)
                       Ne : Obtained from the EMSL Basis Set Exchange (bse.pnl.gov) Feb. 2017
                            C. Haettig, Phys. Chem. Chem. Phys. 7, 59 (2005)
                            F. Weigend, A. Kohn, C. Hattig, J. Chem. Phys. 116, 3175 (2002)
                    Sc-Zn : Obtained from the EMSL Basis Set Exchange (bse.pnl.gov) Feb. 2017
                            J. G. Hill, J. A. Platts, J. Chem. Phys. 128, 044104 (2008)

----- AuxJK basis set information -----
Your calculation utilizes the AutoAux generation procedure.
  G. L. Stoychev, A. A. Auer, F. Neese, J. Chem. Theory Comput. 13, 554 (2017)

================================================================================
                                        WARNINGS
                       Please study these warnings very carefully!
================================================================================


WARNING: your system is open-shell and RHF/RKS was chosen
  ===> : WILL SWITCH to UHF/UKS


WARNING: MDCI localization with Augmented Hessian Foster-Boys
  ===> : Switching off randomization!

WARNING: Post HF methods need fully converged wavefunctions
  ===> : Setting SCFConvForced true
         You can overwrite this default with %scf ConvForced false 


INFO   : the flag for use of LIBINT has been found!

================================================================================
                                       INPUT FILE
================================================================================
NAME = simple-grid-240-240-b3lyp_d3bj-631gd-gas-singlepoint-DLPNO_CCSD_T1-NormalPNO-augtz-gas.inp
|  1> ! aug-cc-pVTZ aug-cc-pVTZ/C DLPNO-CCSD(T1) TightSCF NormalPNO UNO MiniPrint AutoAux
|  2> %pal nproc 10 end
|  3> %maxcore 20000
|  4> %mdci
|  5>      density none
|  6> end
|  7> 
|  8> * xyz 0 6
|  9>  O     -0.31550300     -0.15088600     -0.65368800
| 10>  C     -1.16197400     -1.09544900     -0.57055700
| 11>  C     -3.18137600      0.01659700      0.09680000
| 12>  C     -2.34892200      1.04361300     -0.20833900
| 13>  C     -2.30262300      1.63243000     -1.58659800
| 14> Fe      1.46603100      0.08048500      0.05526800
| 15> Cl      2.09750700      1.99021500     -0.79601800
| 16>  C     -1.55690100      1.79016500      0.82362700
| 17> Cl      2.46783200     -1.71864100     -0.70694800
| 18> Cl      1.35360200      0.07792000      2.25187600
| 19>  H     -3.80255100     -0.37452800     -0.70699400
| 20>  H     -2.17618600      2.61510600      1.20331300
| 21>  H     -1.26268400      1.17955300      1.67807500
| 22>  H     -0.65886600      2.23671000      0.38889000
| 23>  H     -2.60752300      2.68556400     -1.52803700
| 24>  H     -1.28007200      1.62188900     -1.97870800
| 25>  H     -2.97458000      1.12808100     -2.28587100
| 26>  C     -3.56935100     -0.42853700      1.48054900
| 27>  H     -4.48887100      0.08851800      1.78707000
| 28>  H     -3.78512200     -1.50104800      1.51908600
| 29>  H     -2.80795600     -0.20580000      2.23171500
| 30>  C     -1.10914700     -2.02670100      0.60306900
| 31>  H     -1.99789700     -2.65244500      0.68350200
| 32>  H     -0.24272500     -2.67978700      0.41778000
| 33>  H     -0.91676000     -1.49610800      1.53579200
| 34>  C     -1.72667200     -1.62372700     -1.85901500
| 35>  H     -0.94667100     -2.28350800     -2.26703900
| 36>  H     -2.63304100     -2.21280100     -1.71146000
| 37>  H     -1.89148500     -0.82666900     -2.58324700
| 38> *
| 39> 
| 40> 
| 41>                          ****END OF INPUT****
================================================================================

                       ****************************
                       * Single Point Calculation *
                       ****************************

---------------------------------
CARTESIAN COORDINATES (ANGSTROEM)
---------------------------------
  O     -0.315503   -0.150886   -0.653688
  C     -1.161974   -1.095449   -0.570557
  C     -3.181376    0.016597    0.096800
  C     -2.348922    1.043613   -0.208339
  C     -2.302623    1.632430   -1.586598
  Fe     1.466031    0.080485    0.055268
  Cl     2.097507    1.990215   -0.796018
  C     -1.556901    1.790165    0.823627
  Cl     2.467832   -1.718641   -0.706948
  Cl     1.353602    0.077920    2.251876
  H     -3.802551   -0.374528   -0.706994
  H     -2.176186    2.615106    1.203313
  H     -1.262684    1.179553    1.678075
  H     -0.658866    2.236710    0.388890
  H     -2.607523    2.685564   -1.528037
  H     -1.280072    1.621889   -1.978708
  H     -2.974580    1.128081   -2.285871
  C     -3.569351   -0.428537    1.480549
  H     -4.488871    0.088518    1.787070
  H     -3.785122   -1.501048    1.519086
  H     -2.807956   -0.205800    2.231715
  C     -1.109147   -2.026701    0.603069
  H     -1.997897   -2.652445    0.683502
  H     -0.242725   -2.679787    0.417780
  H     -0.916760   -1.496108    1.535792
  C     -1.726672   -1.623727   -1.859015
  H     -0.946671   -2.283508   -2.267039
  H     -2.633041   -2.212801   -1.711460
  H     -1.891485   -0.826669   -2.583247

----------------------------
CARTESIAN COORDINATES (A.U.)
----------------------------
  NO LB      ZA    FRAG     MASS         X           Y           Z
   0 O     8.0000    0    15.999   -0.596214   -0.285133   -1.235291
   1 C     6.0000    0    12.011   -2.195813   -2.070099   -1.078196
   2 C     6.0000    0    12.011   -6.011929    0.031364    0.182925
   3 C     6.0000    0    12.011   -4.438819    1.972143   -0.393704
   4 C     6.0000    0    12.011   -4.351327    3.084846   -2.998236
   5 Fe   26.0000    0    55.850    2.770397    0.152095    0.104441
   6 Cl   17.0000    0    35.453    3.963714    3.760961   -1.504256
   7 C     6.0000    0    12.011   -2.942117    3.382922    1.556429
   8 Cl   17.0000    0    35.453    4.663527   -3.247761   -1.335938
   9 Cl   17.0000    0    35.453    2.557937    0.147247    4.255429
  10 H     1.0000    0     1.008   -7.185780   -0.707755   -1.336025
  11 H     1.0000    0     1.008   -4.112396    4.941834    2.273932
  12 H     1.0000    0     1.008   -2.386127    2.229032    3.171102
  13 H     1.0000    0     1.008   -1.245076    4.226769    0.734896
  14 H     1.0000    0     1.008   -4.927504    5.074980   -2.887571
  15 H     1.0000    0     1.008   -2.418986    3.064926   -3.739216
  16 H     1.0000    0     1.008   -5.621142    2.131764   -4.319670
  17 C     6.0000    0    12.011   -6.745096   -0.809818    2.797832
  18 H     1.0000    0     1.008   -8.482737    0.167275    3.377073
  19 H     1.0000    0     1.008   -7.152844   -2.836570    2.870657
  20 H     1.0000    0     1.008   -5.306268   -0.388906    4.217330
  21 C     6.0000    0    12.011   -2.095984   -3.829910    1.139635
  22 H     1.0000    0     1.008   -3.775478   -5.012395    1.291632
  23 H     1.0000    0     1.008   -0.458684   -5.064064    0.789490
  24 H     1.0000    0     1.008   -1.732425   -2.827234    2.902226
  25 C     6.0000    0    12.011   -3.262937   -3.068399   -3.513029
  26 H     1.0000    0     1.008   -1.788949   -4.315205   -4.284083
  27 H     1.0000    0     1.008   -4.975726   -4.181588   -3.234191
  28 H     1.0000    0     1.008   -3.574389   -1.562178   -4.881629



           ************************************************************
           *        Program running with 10 parallel MPI-processes    *
           *              working on a common directory               *
           ************************************************************


           ************************************************************
           *        Program running with 10 parallel MPI-processes    *
           *              working on a common directory               *
           ************************************************************

Diagonalization of the overlap matrix:
Smallest eigenvalue                        ... 6.577e-07
Time for diagonalization                   ...    0.345 sec
Threshold for overlap eigenvalues          ... 1.000e-08
Number of eigenvalues below threshold      ... 0
Time for construction of square roots      ...    0.283 sec
Total time needed                          ...    0.635 sec

-------------------
DFT GRID GENERATION
-------------------

General Integration Accuracy     IntAcc      ...  4.340
Radial Grid Type                 RadialGrid  ... Gauss-Chebyshev
Angular Grid (max. acc.)         AngularGrid ... Lebedev-110
Angular grid pruning method      GridPruning ... 3 (G Style)
Weight generation scheme         WeightScheme... Becke
Basis function cutoff            BFCut       ...    1.0000e-11
Integration weight cutoff        WCut        ...    1.0000e-14
Grids for H and He will be reduced by one unit

# of grid points (after initial pruning)     ...  36112 (   0.0 sec)
# of grid points (after weights+screening)   ...  32353 (   0.1 sec)
nearest neighbour list constructed           ...    0.0 sec
Grid point re-assignment to atoms done       ...    0.0 sec
Grid point division into batches done        ...    0.0 sec
Reduced shell lists constructed in    0.3 sec

Total number of grid points                  ...    32353
Total number of batches                      ...      519
Average number of points per batch           ...       62
Average number of grid points per atom       ...     1116
Average number of shells per batch           ...   291.34 (84.94%)
Average number of basis functions per batch  ...   865.19 (84.41%)
Average number of large shells per batch     ...   239.15 (82.09%)
Average number of large basis fcns per batch ...   709.34 (81.99%)
Maximum spatial batch extension              ...   2.56,  3.02,  4.53 au
Average spatial batch extension              ...   0.18,  0.18,  0.17 au

Time for grid setup =    0.397 sec

Loading Hartree-Fock densities                     ... done
Calculating cut-offs                               ... done
Setting up the integral package                    ... done
Initializing the effective Hamiltonian             ... done
Starting the Coulomb interaction                   ... done (   1.1 sec)
Reading the grid                                   ... done
Mapping shells                                     ... done
Starting the XC term evaluation                    ... done (   0.9 sec)
Transforming the Hamiltonian                       ... done (   0.2 sec)
Diagonalizing the Hamiltonian                      ... done (   0.4 sec)
Back transforming the eigenvectors                 ... done (   0.1 sec)
Now organizing SCF variables                       ... done
--------------
SCF ITERATIONS
--------------
ITER       Energy         Delta-E        Max-DP      RMS-DP      [F,P]     Damp
               ***  Starting incremental Fock matrix formation  ***
  0  -3027.5719923021   0.000000000000 0.19957482  0.00107699  0.2565663 0.7000
  1  -3027.8245008590  -0.252508556850 0.14962738  0.00084917  0.1572604 0.7000
                               ***Turning on DIIS***
  2  -3027.9937691615  -0.169268302521 0.10542355  0.00062813  0.1091888 0.7000
  3  -3029.6232817332  -1.629512571650 0.25171139  0.00158314  0.0816678 0.0000
  4  -3028.2943393315   1.328942401601 0.04768600  0.00023476  0.0203741 0.0000
  5  -3028.4160117426  -0.121672411054 0.03991704  0.00017724  0.0120624 0.0000
  6  -3028.4554131462  -0.039401403572 0.02158786  0.00007170  0.0054670 0.0000
  7  -3028.4713086148  -0.015895468636 0.00923809  0.00003310  0.0035777 0.0000
  8  -3028.4634690053   0.007839609529 0.00612052  0.00001889  0.0014729 0.0000
  9  -3028.4563765099   0.007092495337 0.00239368  0.00001077  0.0007788 0.0000
 10  -3028.4442652153   0.012111294630 0.00105040  0.00000338  0.0004321 0.0000
 11  -3028.4506975438  -0.006432328511 0.00030166  0.00000187  0.0000679 0.0000
 12  -3028.4485871652   0.002110378629 0.00038773  0.00000147  0.0000253 0.0000
 13  -3028.4485662248   0.000020940366 0.00068809  0.00000176  0.0000078 0.0000
 14  -3028.4485794982  -0.000013273414 0.00103435  0.00000245  0.0000048 0.0000
 15  -3028.4485350449   0.000044453313 0.00051080  0.00000202  0.0000027 0.0000
 16  -3028.4485406024  -0.000005557436 0.00102926  0.00000281  0.0000023 0.0000
 17  -3028.4485567852  -0.000016182816 0.00066348  0.00000226  0.0000015 0.0000
 18  -3028.4485404705   0.000016314721 0.00108766  0.00000351  0.0000011 0.0000
                            ***DIIS convergence achieved***

               *****************************************************
               *                     SUCCESS                       *
               *           SCF CONVERGED AFTER  19 CYCLES          *
               *****************************************************

Total Energy       :        -3028.44854848 Eh          -82408.27456 eV
  Last Energy change         ...   -8.0127e-06  Tolerance :   1.0000e-08
  Last MAX-Density change    ...    6.8151e-04  Tolerance :   1.0000e-07
             **** THE GBW FILE WAS UPDATED (simple-grid-240-240-b3lyp_d3bj-631gd-gas-singlepoint-DLPNO_CCSD_T1-NormalPNO-augtz-gas.gbw) ****
             **** DENSITY FILE WAS UPDATED (simple-grid-240-240-b3lyp_d3bj-631gd-gas-singlepoint-DLPNO_CCSD_T1-NormalPNO-augtz-gas.scfp.tmp) ****
             **** ENERGY FILE WAS UPDATED (simple-grid-240-240-b3lyp_d3bj-631gd-gas-singlepoint-DLPNO_CCSD_T1-NormalPNO-augtz-gas.en.tmp) ****
----------------------
UHF SPIN CONTAMINATION
----------------------

Expectation value of <S**2>     :     8.764775
Ideal value S*(S+1) for S=2.5   :     8.750000
Deviation                       :     0.014775

----------------
ORBITAL ENERGIES
----------------
                 SPIN UP ORBITALS
  NO   OCC          E(Eh)            E(eV) 
   0   1.0000    -261.569474     -7117.6672 
   1   1.0000    -104.788455     -2851.4388 
   2   1.0000    -104.786942     -2851.3977 
   3   1.0000    -104.785776     -2851.3659 
   4   1.0000     -32.237236      -877.2198 
   5   1.0000     -27.713594      -754.1252 
   6   1.0000     -27.712643      -754.0993 
   7   1.0000     -27.712507      -754.0956 
   8   1.0000     -20.596455      -560.4580 
   9   1.0000     -11.420706      -310.7732 
  10   1.0000     -11.289860      -307.2127 
  11   1.0000     -11.274009      -306.7814 
  12   1.0000     -11.268984      -306.6447 
  13   1.0000     -11.252276      -306.1900 
  14   1.0000     -11.248246      -306.0803 
  15   1.0000     -11.245562      -306.0073 
  16   1.0000     -11.239221      -305.8347 
  17   1.0000     -10.515128      -286.1312 
  18   1.0000     -10.513565      -286.0887 
  19   1.0000     -10.512364      -286.0560 
  20   1.0000      -7.981980      -217.2007 
  21   1.0000      -7.981199      -217.1795 
  22   1.0000      -7.981158      -217.1783 
  23   1.0000      -7.980446      -217.1590 
  24   1.0000      -7.979661      -217.1376 
  25   1.0000      -7.979577      -217.1353 
  26   1.0000      -7.979157      -217.1239 
  27   1.0000      -7.978486      -217.1056 
  28   1.0000      -7.978423      -217.1039 
  29   1.0000      -4.592340      -124.9639 
  30   1.0000      -3.205441       -87.2245 
  31   1.0000      -3.203891       -87.1823 
  32   1.0000      -3.203655       -87.1759 
  33   1.0000      -1.450099       -39.4592 
  34   1.0000      -1.140578       -31.0367 
  35   1.0000      -1.097985       -29.8777 
  36   1.0000      -1.061527       -28.8856 
  37   1.0000      -1.056129       -28.7387 
  38   1.0000      -1.054062       -28.6825 
  39   1.0000      -1.027130       -27.9496 
  40   1.0000      -1.009295       -27.4643 
  41   1.0000      -0.968198       -26.3460 
  42   1.0000      -0.938112       -25.5273 
  43   1.0000      -0.921602       -25.0781 
  44   1.0000      -0.921446       -25.0738 
  45   1.0000      -0.911070       -24.7915 
  46   1.0000      -0.910837       -24.7851 
  47   1.0000      -0.907086       -24.6831 
  48   1.0000      -0.805963       -21.9314 
  49   1.0000      -0.739733       -20.1292 
  50   1.0000      -0.704314       -19.1653 
  51   1.0000      -0.698458       -19.0060 
  52   1.0000      -0.690711       -18.7952 
  53   1.0000      -0.662907       -18.0386 
  54   1.0000      -0.630487       -17.1564 
  55   1.0000      -0.620330       -16.8800 
  56   1.0000      -0.602994       -16.4083 
  57   1.0000      -0.600487       -16.3401 
  58   1.0000      -0.583790       -15.8857 
  59   1.0000      -0.578515       -15.7422 
  60   1.0000      -0.563723       -15.3397 
  61   1.0000      -0.561728       -15.2854 
  62   1.0000      -0.552080       -15.0229 
  63   1.0000      -0.544390       -14.8136 
  64   1.0000      -0.535940       -14.5837 
  65   1.0000      -0.525875       -14.3098 
  66   1.0000      -0.504379       -13.7248 
  67   1.0000      -0.495851       -13.4928 
  68   1.0000      -0.474335       -12.9073 
  69   1.0000      -0.469143       -12.7660 
  70   1.0000      -0.442603       -12.0438 
  71   1.0000      -0.436648       -11.8818 
  72   1.0000      -0.435202       -11.8425 
  73   1.0000      -0.426791       -11.6136 
  74   1.0000      -0.425067       -11.5667 
  75   1.0000      -0.424850       -11.5608 
  76   1.0000      -0.363882        -9.9017 
  77   0.0000       0.012429         0.3382 
  78   0.0000       0.023361         0.6357 
  79   0.0000       0.023557         0.6410 
  80   0.0000       0.030363         0.8262 
  81   0.0000       0.039474         1.0741 
  82   0.0000       0.040768         1.1094 
  83   0.0000       0.042490         1.1562 
  84   0.0000       0.043419         1.1815 
  85   0.0000       0.043937         1.1956 
  86   0.0000       0.056218         1.5298 
  87   0.0000       0.056888         1.5480 
  88   0.0000       0.059761         1.6262 
  89   0.0000       0.064482         1.7547 
  90   0.0000       0.067558         1.8383 
  91   0.0000       0.071233         1.9383 
  92   0.0000       0.072297         1.9673 
  93   0.0000       0.075310         2.0493 
  94   0.0000       0.079727         2.1695 
  95   0.0000       0.090754         2.4695 
  96   0.0000       0.092140         2.5073 
  97   0.0000       0.092732         2.5234 
  98   0.0000       0.100772         2.7421 
  99   0.0000       0.101994         2.7754 
 100   0.0000       0.103410         2.8139 
 101   0.0000       0.107800         2.9334 
 102   0.0000       0.115510         3.1432 
 103   0.0000       0.120930         3.2907 
 104   0.0000       0.123029         3.3478 
 105   0.0000       0.124663         3.3923 
 106   0.0000       0.127622         3.4728 
 107   0.0000       0.129405         3.5213 
 108   0.0000       0.131160         3.5691 
 109   0.0000       0.132711         3.6113 
 110   0.0000       0.138048         3.7565 
 111   0.0000       0.138661         3.7732 
 112   0.0000       0.141181         3.8417 
 113   0.0000       0.146924         3.9980 
 114   0.0000       0.149678         4.0730 
 115   0.0000       0.152284         4.1438 
 116   0.0000       0.156003         4.2451 
 117   0.0000       0.158168         4.3040 
 118   0.0000       0.160285         4.3616 
 119   0.0000       0.168341         4.5808 
 120   0.0000       0.168887         4.5956 
 121   0.0000       0.171622         4.6701 
 122   0.0000       0.173804         4.7295 
 123   0.0000       0.176207         4.7948 
 124   0.0000       0.179704         4.8900 
 125   0.0000       0.184658         5.0248 
 126   0.0000       0.187586         5.1045 
 127   0.0000       0.188829         5.1383 
 128   0.0000       0.193514         5.2658 
 129   0.0000       0.198897         5.4123 
 130   0.0000       0.200046         5.4435 
 131   0.0000       0.205234         5.5847 
 132   0.0000       0.206137         5.6093 
 133   0.0000       0.208255         5.6669 
 134   0.0000       0.211526         5.7559 
 135   0.0000       0.213506         5.8098 
 136   0.0000       0.217520         5.9190 
 137   0.0000       0.223813         6.0903 
 138   0.0000       0.226134         6.1534 
 139   0.0000       0.228968         6.2305 
 140   0.0000       0.234909         6.3922 
 141   0.0000       0.235471         6.4075 
 142   0.0000       0.237357         6.4588 
 143   0.0000       0.243329         6.6213 
 144   0.0000       0.247857         6.7445 
 145   0.0000       0.249981         6.8023 
 146   0.0000       0.251988         6.8569 
 147   0.0000       0.254651         6.9294 
 148   0.0000       0.260095         7.0775 
 149   0.0000       0.261795         7.1238 
 150   0.0000       0.266790         7.2597 
 151   0.0000       0.271502         7.3880 
 152   0.0000       0.272379         7.4118 
 153   0.0000       0.277718         7.5571 
 154   0.0000       0.283840         7.7237 
 155   0.0000       0.288677         7.8553 
 156   0.0000       0.291010         7.9188 
 157   0.0000       0.297504         8.0955 
 158   0.0000       0.299210         8.1419 
 159   0.0000       0.301150         8.1947 
 160   0.0000       0.309531         8.4228 
 161   0.0000       0.310493         8.4489 
 162   0.0000       0.317154         8.6302 
 163   0.0000       0.318901         8.6777 
 164   0.0000       0.326835         8.8936 
 165   0.0000       0.329907         8.9772 
 166   0.0000       0.332507         9.0480 
 167   0.0000       0.339574         9.2403 
 168   0.0000       0.341532         9.2935 
 169   0.0000       0.345052         9.3893 
 170   0.0000       0.349176         9.5016 
 171   0.0000       0.355778         9.6812 
 172   0.0000       0.357594         9.7306 
 173   0.0000       0.360617         9.8129 
 174   0.0000       0.363441         9.8897 
 175   0.0000       0.363764         9.8985 
 176   0.0000       0.368415        10.0251 
 177   0.0000       0.368587        10.0298 
 178   0.0000       0.371652        10.1132 
 179   0.0000       0.373924        10.1750 
 180   0.0000       0.379304        10.3214 
 181   0.0000       0.384400        10.4600 
 182   0.0000       0.385845        10.4994 
 183   0.0000       0.388519        10.5721 
 184   0.0000       0.389535        10.5998 
 185   0.0000       0.394947        10.7470 
 186   0.0000       0.399210        10.8631 
 187   0.0000       0.403111        10.9692 
 188   0.0000       0.406480        11.0609 
 189   0.0000       0.409226        11.1356 
 190   0.0000       0.409755        11.1500 
 191   0.0000       0.415594        11.3089 
 192   0.0000       0.418338        11.3835 
 193   0.0000       0.423311        11.5189 
 194   0.0000       0.429851        11.6968 
 195   0.0000       0.431655        11.7459 
 196   0.0000       0.436463        11.8768 
 197   0.0000       0.438176        11.9234 
 198   0.0000       0.442961        12.0536 
 199   0.0000       0.446660        12.1542 
 200   0.0000       0.452269        12.3069 
 201   0.0000       0.455116        12.3843 
 202   0.0000       0.456077        12.4105 
 203   0.0000       0.464787        12.6475 
 204   0.0000       0.466020        12.6810 
 205   0.0000       0.470221        12.7954 
 206   0.0000       0.470501        12.8030 
 207   0.0000       0.473944        12.8967 
 208   0.0000       0.476862        12.9761 
 209   0.0000       0.480680        13.0800 
 210   0.0000       0.483076        13.1452 
 211   0.0000       0.486298        13.2329 
 212   0.0000       0.487953        13.2779 
 213   0.0000       0.495549        13.4846 
 214   0.0000       0.497673        13.5424 
 215   0.0000       0.502853        13.6833 
 216   0.0000       0.504904        13.7391 
 217   0.0000       0.508690        13.8422 
 218   0.0000       0.511449        13.9172 
 219   0.0000       0.512376        13.9424 
 220   0.0000       0.513303        13.9677 
 221   0.0000       0.516759        14.0617 
 222   0.0000       0.522622        14.2213 
 223   0.0000       0.526671        14.3315 
 224   0.0000       0.527798        14.3621 
 225   0.0000       0.534219        14.5368 
 226   0.0000       0.535808        14.5801 
 227   0.0000       0.540228        14.7004 
 228   0.0000       0.542426        14.7601 
 229   0.0000       0.543756        14.7964 
 230   0.0000       0.548690        14.9306 
 231   0.0000       0.554807        15.0971 
 232   0.0000       0.560599        15.2547 
 233   0.0000       0.561594        15.2817 
 234   0.0000       0.563845        15.3430 
 235   0.0000       0.567627        15.4459 
 236   0.0000       0.569775        15.5044 
 237   0.0000       0.572897        15.5893 
 238   0.0000       0.576446        15.6859 
 239   0.0000       0.583891        15.8885 
 240   0.0000       0.586698        15.9649 
 241   0.0000       0.592355        16.1188 
 242   0.0000       0.598459        16.2849 
 243   0.0000       0.599316        16.3082 
 244   0.0000       0.603445        16.4206 
 245   0.0000       0.605835        16.4856 
 246   0.0000       0.614536        16.7224 
 247   0.0000       0.616836        16.7850 
 248   0.0000       0.620400        16.8819 
 249   0.0000       0.625352        17.0167 
 250   0.0000       0.629280        17.1236 
 251   0.0000       0.629844        17.1389 
 252   0.0000       0.632787        17.2190 
 253   0.0000       0.638374        17.3711 
 254   0.0000       0.642881        17.4937 
 255   0.0000       0.645569        17.5668 
 256   0.0000       0.651308        17.7230 
 257   0.0000       0.652173        17.7465 
 258   0.0000       0.652705        17.7610 
 259   0.0000       0.654481        17.8093 
 260   0.0000       0.660722        17.9792 
 261   0.0000       0.664676        18.0867 
 262   0.0000       0.667532        18.1645 
 263   0.0000       0.671087        18.2612 
 264   0.0000       0.673817        18.3355 
 265   0.0000       0.681214        18.5368 
 266   0.0000       0.689372        18.7588 
 267   0.0000       0.690336        18.7850 
 268   0.0000       0.694338        18.8939 
 269   0.0000       0.698148        18.9976 
 270   0.0000       0.700405        19.0590 
 271   0.0000       0.708698        19.2847 
 272   0.0000       0.711633        19.3645 
 273   0.0000       0.718853        19.5610 
 274   0.0000       0.726348        19.7649 
 275   0.0000       0.729882        19.8611 
 276   0.0000       0.734027        19.9739 
 277   0.0000       0.735064        20.0021 
 278   0.0000       0.736898        20.0520 
 279   0.0000       0.741164        20.1681 
 280   0.0000       0.748396        20.3649 
 281   0.0000       0.754802        20.5392 
 282   0.0000       0.762303        20.7433 
 283   0.0000       0.765369        20.8268 
 284   0.0000       0.770524        20.9670 
 285   0.0000       0.774664        21.0797 
 286   0.0000       0.779996        21.2248 
 287   0.0000       0.793765        21.5994 
 288   0.0000       0.799439        21.7539 
 289   0.0000       0.810558        22.0564 
 290   0.0000       0.812746        22.1159 
 291   0.0000       0.818664        22.2770 
 292   0.0000       0.824060        22.4238 
 293   0.0000       0.825097        22.4520 
 294   0.0000       0.833472        22.6799 
 295   0.0000       0.836489        22.7620 
 296   0.0000       0.844945        22.9921 
 297   0.0000       0.852452        23.1964 
 298   0.0000       0.855633        23.2830 
 299   0.0000       0.861110        23.4320 
 300   0.0000       0.871152        23.7053 
 301   0.0000       0.872074        23.7303 
 302   0.0000       0.877701        23.8835 
 303   0.0000       0.883723        24.0473 
 304   0.0000       0.886008        24.1095 
 305   0.0000       0.886378        24.1196 
 306   0.0000       0.894928        24.3522 
 307   0.0000       0.898668        24.4540 
 308   0.0000       0.899854        24.4863 
 309   0.0000       0.902009        24.5449 
 310   0.0000       0.909313        24.7437 
 311   0.0000       0.910524        24.7766 
 312   0.0000       0.915297        24.9065 
 313   0.0000       0.915466        24.9111 
 314   0.0000       0.924670        25.1615 
 315   0.0000       0.929145        25.2833 
 316   0.0000       0.933091        25.3907 
 317   0.0000       0.937141        25.5009 
 318   0.0000       0.943392        25.6710 
 319   0.0000       0.946717        25.7615 
 320   0.0000       0.949208        25.8293 
 321   0.0000       0.952863        25.9287 
 322   0.0000       0.954993        25.9867 
 323   0.0000       0.958824        26.0909 
 324   0.0000       0.959521        26.1099 
 325   0.0000       0.966433        26.2980 
 326   0.0000       0.967764        26.3342 
 327   0.0000       0.969349        26.3773 
 328   0.0000       0.972356        26.4591 
 329   0.0000       0.979137        26.6437 
 330   0.0000       0.980992        26.6942 
 331   0.0000       0.987370        26.8677 
 332   0.0000       0.989982        26.9388 
 333   0.0000       0.992811        27.0158 
 334   0.0000       0.996836        27.1253 
 335   0.0000       1.001874        27.2624 
 336   0.0000       1.003796        27.3147 
 337   0.0000       1.005287        27.3553 
 338   0.0000       1.009782        27.4776 
 339   0.0000       1.015471        27.6324 
 340   0.0000       1.017322        27.6827 
 341   0.0000       1.021271        27.7902 
 342   0.0000       1.027766        27.9669 
 343   0.0000       1.030297        28.0358 
 344   0.0000       1.031242        28.0615 
 345   0.0000       1.034805        28.1585 
 346   0.0000       1.037707        28.2375 
 347   0.0000       1.040254        28.3067 
 348   0.0000       1.044053        28.4101 
 349   0.0000       1.053476        28.6665 
 350   0.0000       1.054540        28.6955 
 351   0.0000       1.057812        28.7845 
 352   0.0000       1.062169        28.9031 
 353   0.0000       1.063700        28.9448 
 354   0.0000       1.072060        29.1722 
 355   0.0000       1.074263        29.2322 
 356   0.0000       1.077992        29.3337 
 357   0.0000       1.080203        29.3938 
 358   0.0000       1.081608        29.4320 
 359   0.0000       1.084746        29.5174 
 360   0.0000       1.088608        29.6225 
 361   0.0000       1.095284        29.8042 
 362   0.0000       1.100541        29.9473 
 363   0.0000       1.103475        30.0271 
 364   0.0000       1.110129        30.2082 
 365   0.0000       1.113825        30.3087 
 366   0.0000       1.116353        30.3775 
 367   0.0000       1.122448        30.5434 
 368   0.0000       1.128084        30.6967 
 369   0.0000       1.132799        30.8250 
 370   0.0000       1.134720        30.8773 
 371   0.0000       1.137747        30.9597 
 372   0.0000       1.150710        31.3124 
 373   0.0000       1.152896        31.3719 
 374   0.0000       1.155646        31.4467 
 375   0.0000       1.161165        31.5969 
 376   0.0000       1.167198        31.7611 
 377   0.0000       1.167556        31.7708 
 378   0.0000       1.174315        31.9547 
 379   0.0000       1.176520        32.0147 
 380   0.0000       1.183516        32.2051 
 381   0.0000       1.188450        32.3394 
 382   0.0000       1.191607        32.4253 
 383   0.0000       1.200082        32.6559 
 384   0.0000       1.201876        32.7047 
 385   0.0000       1.203846        32.7583 
 386   0.0000       1.208462        32.8839 
 387   0.0000       1.214966        33.0609 
 388   0.0000       1.217217        33.1222 
 389   0.0000       1.224461        33.3193 
 390   0.0000       1.229618        33.4596 
 391   0.0000       1.236073        33.6353 
 392   0.0000       1.237637        33.6778 
 393   0.0000       1.240642        33.7596 
 394   0.0000       1.249044        33.9882 
 395   0.0000       1.250947        34.0400 
 396   0.0000       1.255264        34.1575 
 397   0.0000       1.257883        34.2287 
 398   0.0000       1.265903        34.4470 
 399   0.0000       1.270830        34.5810 
 400   0.0000       1.276185        34.7268 
 401   0.0000       1.280357        34.8403 
 402   0.0000       1.286270        35.0012 
 403   0.0000       1.289773        35.0965 
 404   0.0000       1.292964        35.1833 
 405   0.0000       1.300581        35.3906 
 406   0.0000       1.304243        35.4902 
 407   0.0000       1.310390        35.6575 
 408   0.0000       1.313309        35.7370 
 409   0.0000       1.320823        35.9414 
 410   0.0000       1.326760        36.1030 
 411   0.0000       1.328844        36.1597 
 412   0.0000       1.330851        36.2143 
 413   0.0000       1.335930        36.3525 
 414   0.0000       1.343688        36.5636 
 415   0.0000       1.352330        36.7988 
 416   0.0000       1.357426        36.9374 
 417   0.0000       1.369148        37.2564 
 418   0.0000       1.373487        37.3745 
 419   0.0000       1.377388        37.4806 
 420   0.0000       1.380117        37.5549 
 421   0.0000       1.382935        37.6316 
 422   0.0000       1.388722        37.7890 
 423   0.0000       1.391134        37.8547 
 424   0.0000       1.397764        38.0351 
 425   0.0000       1.402624        38.1673 
 426   0.0000       1.413060        38.4513 
 427   0.0000       1.417463        38.5711 
 428   0.0000       1.422659        38.7125 
 429   0.0000       1.431623        38.9564 
 430   0.0000       1.435639        39.0657 
 431   0.0000       1.438771        39.1509 
 432   0.0000       1.444466        39.3059 
 433   0.0000       1.448205        39.4077 
 434   0.0000       1.456397        39.6306 
 435   0.0000       1.463320        39.8190 
 436   0.0000       1.465458        39.8771 
 437   0.0000       1.466939        39.9175 
 438   0.0000       1.476332        40.1730 
 439   0.0000       1.476661        40.1820 
 440   0.0000       1.486532        40.4506 
 441   0.0000       1.490544        40.5598 
 442   0.0000       1.494125        40.6572 
 443   0.0000       1.496617        40.7250 
 444   0.0000       1.504155        40.9302 
 445   0.0000       1.512876        41.1674 
 446   0.0000       1.514893        41.2223 
 447   0.0000       1.520796        41.3830 
 448   0.0000       1.525632        41.5146 
 449   0.0000       1.528018        41.5795 
 450   0.0000       1.532456        41.7002 
 451   0.0000       1.535256        41.7764 
 452   0.0000       1.545918        42.0666 
 453   0.0000       1.547500        42.1096 
 454   0.0000       1.552794        42.2537 
 455   0.0000       1.566165        42.6175 
 456   0.0000       1.568285        42.6752 
 457   0.0000       1.574152        42.8349 
 458   0.0000       1.579279        42.9744 
 459   0.0000       1.585906        43.1547 
 460   0.0000       1.590046        43.2673 
 461   0.0000       1.596524        43.4436 
 462   0.0000       1.598937        43.5093 
 463   0.0000       1.603632        43.6370 
 464   0.0000       1.619889        44.0794 
 465   0.0000       1.623780        44.1853 
 466   0.0000       1.626759        44.2664 
 467   0.0000       1.630476        44.3675 
 468   0.0000       1.630765        44.3754 
 469   0.0000       1.643844        44.7313 
 470   0.0000       1.647286        44.8249 
 471   0.0000       1.651204        44.9316 
 472   0.0000       1.654374        45.0178 
 473   0.0000       1.656645        45.0796 
 474   0.0000       1.662003        45.2254 
 475   0.0000       1.672946        45.5232 
 476   0.0000       1.676481        45.6194 
 477   0.0000       1.684109        45.8269 
 478   0.0000       1.688811        45.9549 
 479   0.0000       1.691640        46.0319 
 480   0.0000       1.694724        46.1158 
 481   0.0000       1.701130        46.2901 
 482   0.0000       1.705605        46.4119 
 483   0.0000       1.716393        46.7054 
 484   0.0000       1.721021        46.8314 
 485   0.0000       1.726004        46.9669 
 486   0.0000       1.727938        47.0196 
 487   0.0000       1.739463        47.3332 
 488   0.0000       1.743484        47.4426 
 489   0.0000       1.744916        47.4816 
 490   0.0000       1.753669        47.7198 
 491   0.0000       1.757811        47.8325 
 492   0.0000       1.764394        48.0116 
 493   0.0000       1.766082        48.0575 
 494   0.0000       1.772973        48.2450 
 495   0.0000       1.773727        48.2656 
 496   0.0000       1.778156        48.3861 
 497   0.0000       1.787948        48.6525 
 498   0.0000       1.791133        48.7392 
 499   0.0000       1.795812        48.8665 
 500   0.0000       1.798242        48.9326 
 501   0.0000       1.798961        48.9522 
 502   0.0000       1.804667        49.1075 
 503   0.0000       1.811164        49.2843 
 504   0.0000       1.819310        49.5060 
 505   0.0000       1.823128        49.6098 
 506   0.0000       1.835907        49.9576 
 507   0.0000       1.838745        50.0348 
 508   0.0000       1.841866        50.1197 
 509   0.0000       1.852810        50.4175 
 510   0.0000       1.853780        50.4439 
 511   0.0000       1.862626        50.6846 
 512   0.0000       1.869030        50.8589 
 513   0.0000       1.874560        51.0094 
 514   0.0000       1.880240        51.1639 
 515   0.0000       1.881133        51.1882 
 516   0.0000       1.884997        51.2934 
 517   0.0000       1.887980        51.3745 
 518   0.0000       1.892308        51.4923 
 519   0.0000       1.898961        51.6734 
 520   0.0000       1.909501        51.9602 
 521   0.0000       1.911799        52.0227 
 522   0.0000       1.917988        52.1911 
 523   0.0000       1.921710        52.2924 
 524   0.0000       1.926797        52.4308 
 525   0.0000       1.932599        52.5887 
 526   0.0000       1.941169        52.8219 
 527   0.0000       1.944272        52.9063 
 528   0.0000       1.949160        53.0393 
 529   0.0000       1.953665        53.1619 
 530   0.0000       1.955937        53.2238 
 531   0.0000       1.971652        53.6514 
 532   0.0000       1.978121        53.8274 
 533   0.0000       1.980441        53.8905 
 534   0.0000       1.982746        53.9533 
 535   0.0000       1.992576        54.2207 
 536   0.0000       1.995921        54.3118 
 537   0.0000       2.002554        54.4923 
 538   0.0000       2.004967        54.5579 
 539   0.0000       2.013192        54.7818 
 540   0.0000       2.020829        54.9896 
 541   0.0000       2.024711        55.0952 
 542   0.0000       2.035859        55.3985 
 543   0.0000       2.043063        55.5946 
 544   0.0000       2.048762        55.7497 
 545   0.0000       2.054616        55.9089 
 546   0.0000       2.063192        56.1423 
 547   0.0000       2.068171        56.2778 
 548   0.0000       2.074150        56.4405 
 549   0.0000       2.079085        56.5748 
 550   0.0000       2.086568        56.7784 
 551   0.0000       2.093363        56.9633 
 552   0.0000       2.102671        57.2166 
 553   0.0000       2.104206        57.2583 
 554   0.0000       2.108638        57.3790 
 555   0.0000       2.118335        57.6428 
 556   0.0000       2.121163        57.7198 
 557   0.0000       2.128870        57.9295 
 558   0.0000       2.133418        58.0532 
 559   0.0000       2.155868        58.6642 
 560   0.0000       2.159240        58.7559 
 561   0.0000       2.163522        58.8724 
 562   0.0000       2.167409        58.9782 
 563   0.0000       2.175995        59.2118 
 564   0.0000       2.181673        59.3663 
 565   0.0000       2.195184        59.7340 
 566   0.0000       2.197724        59.8031 
 567   0.0000       2.201078        59.8944 
 568   0.0000       2.211460        60.1769 
 569   0.0000       2.215675        60.2916 
 570   0.0000       2.220638        60.4266 
 571   0.0000       2.232911        60.7606 
 572   0.0000       2.233355        60.7727 
 573   0.0000       2.241333        60.9898 
 574   0.0000       2.250098        61.2283 
 575   0.0000       2.258065        61.4451 
 576   0.0000       2.264302        61.6148 
 577   0.0000       2.266464        61.6736 
 578   0.0000       2.272327        61.8332 
 579   0.0000       2.280356        62.0516 
 580   0.0000       2.285366        62.1880 
 581   0.0000       2.294043        62.4241 
 582   0.0000       2.301805        62.6353 
 583   0.0000       2.306790        62.7710 
 584   0.0000       2.317003        63.0489 
 585   0.0000       2.319280        63.1108 
 586   0.0000       2.333136        63.4879 
 587   0.0000       2.339880        63.6714 
 588   0.0000       2.357489        64.1505 
 589   0.0000       2.361861        64.2695 
 590   0.0000       2.366615        64.3989 
 591   0.0000       2.378171        64.7133 
 592   0.0000       2.386522        64.9406 
 593   0.0000       2.396496        65.2120 
 594   0.0000       2.405771        65.4644 
 595   0.0000       2.409672        65.5705 
 596   0.0000       2.423961        65.9593 
 597   0.0000       2.429596        66.1127 
 598   0.0000       2.439515        66.3826 
 599   0.0000       2.443375        66.4876 
 600   0.0000       2.451386        66.7056 
 601   0.0000       2.460709        66.9593 
 602   0.0000       2.475887        67.3723 
 603   0.0000       2.479717        67.4765 
 604   0.0000       2.487165        67.6792 
 605   0.0000       2.491542        67.7983 
 606   0.0000       2.510283        68.3083 
 607   0.0000       2.513596        68.3984 
 608   0.0000       2.517990        68.5180 
 609   0.0000       2.544459        69.2383 
 610   0.0000       2.552616        69.4602 
 611   0.0000       2.555988        69.5520 
 612   0.0000       2.562236        69.7220 
 613   0.0000       2.579959        70.2043 
 614   0.0000       2.582742        70.2800 
 615   0.0000       2.595120        70.6168 
 616   0.0000       2.611121        71.0522 
 617   0.0000       2.625772        71.4509 
 618   0.0000       2.634645        71.6923 
 619   0.0000       2.643216        71.9256 
 620   0.0000       2.665155        72.5225 
 621   0.0000       2.669892        72.6515 
 622   0.0000       2.674967        72.7896 
 623   0.0000       2.680085        72.9288 
 624   0.0000       2.690625        73.2156 
 625   0.0000       2.693661        73.2982 
 626   0.0000       2.698645        73.4339 
 627   0.0000       2.719848        74.0108 
 628   0.0000       2.723546        74.1115 
 629   0.0000       2.737310        74.4860 
 630   0.0000       2.743246        74.6475 
 631   0.0000       2.751944        74.8842 
 632   0.0000       2.766083        75.2690 
 633   0.0000       2.772203        75.4355 
 634   0.0000       2.775804        75.5335 
 635   0.0000       2.780184        75.6527 
 636   0.0000       2.796923        76.1082 
 637   0.0000       2.805876        76.3518 
 638   0.0000       2.816765        76.6481 
 639   0.0000       2.823668        76.8359 
 640   0.0000       2.847220        77.4768 
 641   0.0000       2.860657        77.8424 
 642   0.0000       2.864569        77.9489 
 643   0.0000       2.882001        78.4232 
 644   0.0000       2.888176        78.5913 
 645   0.0000       2.913686        79.2854 
 646   0.0000       2.915341        79.3305 
 647   0.0000       2.929466        79.7148 
 648   0.0000       2.943907        80.1078 
 649   0.0000       2.963440        80.6393 
 650   0.0000       2.975655        80.9717 
 651   0.0000       2.984666        81.2169 
 652   0.0000       2.997796        81.5742 
 653   0.0000       3.003931        81.7411 
 654   0.0000       3.031436        82.4896 
 655   0.0000       3.044990        82.8584 
 656   0.0000       3.054449        83.1158 
 657   0.0000       3.066358        83.4399 
 658   0.0000       3.069124        83.5151 
 659   0.0000       3.093587        84.1808 
 660   0.0000       3.102741        84.4299 
 661   0.0000       3.119529        84.8867 
 662   0.0000       3.132557        85.2412 
 663   0.0000       3.156670        85.8974 
 664   0.0000       3.166524        86.1655 
 665   0.0000       3.180858        86.5556 
 666   0.0000       3.195980        86.9670 
 667   0.0000       3.208685        87.3127 
 668   0.0000       3.218345        87.5756 
 669   0.0000       3.222933        87.7005 
 670   0.0000       3.235127        88.0323 
 671   0.0000       3.236627        88.0731 
 672   0.0000       3.240309        88.1733 
 673   0.0000       3.264419        88.8294 
 674   0.0000       3.272310        89.0441 
 675   0.0000       3.275808        89.1393 
 676   0.0000       3.284497        89.3757 
 677   0.0000       3.293417        89.6184 
 678   0.0000       3.301435        89.8366 
 679   0.0000       3.309618        90.0593 
 680   0.0000       3.325697        90.4968 
 681   0.0000       3.327120        90.5355 
 682   0.0000       3.337783        90.8257 
 683   0.0000       3.350357        91.1678 
 684   0.0000       3.351720        91.2049 
 685   0.0000       3.362989        91.5116 
 686   0.0000       3.378685        91.9387 
 687   0.0000       3.387177        92.1698 
 688   0.0000       3.406615        92.6987 
 689   0.0000       3.416324        92.9629 
 690   0.0000       3.424840        93.1946 
 691   0.0000       3.433826        93.4392 
 692   0.0000       3.439808        93.6019 
 693   0.0000       3.453734        93.9809 
 694   0.0000       3.463020        94.2336 
 695   0.0000       3.474156        94.5366 
 696   0.0000       3.486324        94.8677 
 697   0.0000       3.493119        95.0526 
 698   0.0000       3.500711        95.2592 
 699   0.0000       3.504045        95.3499 
 700   0.0000       3.509251        95.4916 
 701   0.0000       3.525756        95.9407 
 702   0.0000       3.536178        96.2243 
 703   0.0000       3.539276        96.3086 
 704   0.0000       3.543838        96.4327 
 705   0.0000       3.556584        96.7796 
 706   0.0000       3.573899        97.2507 
 707   0.0000       3.583583        97.5143 
 708   0.0000       3.584672        97.5439 
 709   0.0000       3.590488        97.7021 
 710   0.0000       3.598059        97.9081 
 711   0.0000       3.604028        98.0706 
 712   0.0000       3.615335        98.3783 
 713   0.0000       3.622574        98.5752 
 714   0.0000       3.624626        98.6311 
 715   0.0000       3.632625        98.8487 
 716   0.0000       3.648602        99.2835 
 717   0.0000       3.651067        99.3506 
 718   0.0000       3.657997        99.5392 
 719   0.0000       3.666566        99.7723 
 720   0.0000       3.683581       100.2353 
 721   0.0000       3.685994       100.3010 
 722   0.0000       3.701553       100.7244 
 723   0.0000       3.707631       100.8898 
 724   0.0000       3.714037       101.0641 
 725   0.0000       3.716669       101.1357 
 726   0.0000       3.720758       101.2470 
 727   0.0000       3.731456       101.5381 
 728   0.0000       3.738472       101.7290 
 729   0.0000       3.744473       101.8923 
 730   0.0000       3.751479       102.0829 
 731   0.0000       3.760463       102.3274 
 732   0.0000       3.767014       102.5057 
 733   0.0000       3.781273       102.8937 
 734   0.0000       3.785219       103.0011 
 735   0.0000       3.792746       103.2059 
 736   0.0000       3.803354       103.4945 
 737   0.0000       3.804824       103.5345 
 738   0.0000       3.809686       103.6668 
 739   0.0000       3.818902       103.9176 
 740   0.0000       3.824573       104.0719 
 741   0.0000       3.828479       104.1782 
 742   0.0000       3.833643       104.3187 
 743   0.0000       3.847635       104.6995 
 744   0.0000       3.856383       104.9375 
 745   0.0000       3.860186       105.0410 
 746   0.0000       3.867190       105.2316 
 747   0.0000       3.877021       105.4991 
 748   0.0000       3.879508       105.5668 
 749   0.0000       3.892757       105.9273 
 750   0.0000       3.896664       106.0336 
 751   0.0000       3.906521       106.3018 
 752   0.0000       3.915499       106.5462 
 753   0.0000       3.924351       106.7870 
 754   0.0000       3.927939       106.8847 
 755   0.0000       3.938242       107.1650 
 756   0.0000       3.944959       107.3478 
 757   0.0000       3.953073       107.5686 
 758   0.0000       3.959243       107.7365 
 759   0.0000       3.961537       107.7989 
 760   0.0000       3.970205       108.0348 
 761   0.0000       3.978267       108.2542 
 762   0.0000       3.984567       108.4256 
 763   0.0000       3.989666       108.5643 
 764   0.0000       3.995069       108.7114 
 765   0.0000       3.998345       108.8005 
 766   0.0000       4.003497       108.9407 
 767   0.0000       4.021899       109.4414 
 768   0.0000       4.024881       109.5226 
 769   0.0000       4.033498       109.7571 
 770   0.0000       4.038694       109.8984 
 771   0.0000       4.044078       110.0450 
 772   0.0000       4.052943       110.2862 
 773   0.0000       4.067133       110.6723 
 774   0.0000       4.080209       111.0281 
 775   0.0000       4.083732       111.1240 
 776   0.0000       4.091166       111.3263 
 777   0.0000       4.101229       111.6001 
 778   0.0000       4.104785       111.6969 
 779   0.0000       4.112188       111.8983 
 780   0.0000       4.116376       112.0123 
 781   0.0000       4.121530       112.1525 
 782   0.0000       4.132258       112.4444 
 783   0.0000       4.147463       112.8582 
 784   0.0000       4.151222       112.9605 
 785   0.0000       4.159201       113.1776 
 786   0.0000       4.162388       113.2643 
 787   0.0000       4.178291       113.6971 
 788   0.0000       4.184775       113.8735 
 789   0.0000       4.194782       114.1458 
 790   0.0000       4.196997       114.2061 
 791   0.0000       4.202321       114.3510 
 792   0.0000       4.218358       114.7874 
 793   0.0000       4.219991       114.8318 
 794   0.0000       4.229846       115.1000 
 795   0.0000       4.242668       115.4489 
 796   0.0000       4.250820       115.6707 
 797   0.0000       4.262850       115.9981 
 798   0.0000       4.267271       116.1184 
 799   0.0000       4.274995       116.3285 
 800   0.0000       4.285120       116.6040 
 801   0.0000       4.291185       116.7691 
 802   0.0000       4.301201       117.0416 
 803   0.0000       4.303757       117.1112 
 804   0.0000       4.308182       117.2316 
 805   0.0000       4.317231       117.4778 
 806   0.0000       4.338955       118.0690 
 807   0.0000       4.347879       118.3118 
 808   0.0000       4.351241       118.4033 
 809   0.0000       4.357813       118.5821 
 810   0.0000       4.369914       118.9114 
 811   0.0000       4.389464       119.4434 
 812   0.0000       4.395026       119.5947 
 813   0.0000       4.401736       119.7773 
 814   0.0000       4.414115       120.1142 
 815   0.0000       4.426429       120.4493 
 816   0.0000       4.428742       120.5122 
 817   0.0000       4.437159       120.7412 
 818   0.0000       4.445386       120.9651 
 819   0.0000       4.452145       121.1490 
 820   0.0000       4.457275       121.2886 
 821   0.0000       4.463159       121.4487 
 822   0.0000       4.470210       121.6406 
 823   0.0000       4.494281       122.2956 
 824   0.0000       4.496877       122.3663 
 825   0.0000       4.504964       122.5863 
 826   0.0000       4.516500       122.9002 
 827   0.0000       4.527413       123.1972 
 828   0.0000       4.536087       123.4332 
 829   0.0000       4.545516       123.6898 
 830   0.0000       4.549970       123.8110 
 831   0.0000       4.560263       124.0911 
 832   0.0000       4.573884       124.4617 
 833   0.0000       4.585222       124.7702 
 834   0.0000       4.589960       124.8992 
 835   0.0000       4.597791       125.1123 
 836   0.0000       4.623712       125.8176 
 837   0.0000       4.630840       126.0116 
 838   0.0000       4.654101       126.6445 
 839   0.0000       4.661720       126.8519 
 840   0.0000       4.667586       127.0115 
 841   0.0000       4.671473       127.1173 
 842   0.0000       4.684009       127.4584 
 843   0.0000       4.699854       127.8895 
 844   0.0000       4.711020       128.1934 
 845   0.0000       4.714737       128.2945 
 846   0.0000       4.739643       128.9722 
 847   0.0000       4.744593       129.1069 
 848   0.0000       4.751406       129.2923 
 849   0.0000       4.757673       129.4629 
 850   0.0000       4.786650       130.2514 
 851   0.0000       4.791332       130.3788 
 852   0.0000       4.805927       130.7759 
 853   0.0000       4.807794       130.8267 
 854   0.0000       4.822655       131.2311 
 855   0.0000       4.831133       131.4618 
 856   0.0000       4.845919       131.8641 
 857   0.0000       4.848214       131.9266 
 858   0.0000       4.856019       132.1390 
 859   0.0000       4.870593       132.5356 
 860   0.0000       4.880118       132.7947 
 861   0.0000       4.902922       133.4153 
 862   0.0000       4.912171       133.6670 
 863   0.0000       4.920685       133.8986 
 864   0.0000       4.938672       134.3881 
 865   0.0000       4.942015       134.4791 
 866   0.0000       4.952406       134.7618 
 867   0.0000       4.964436       135.0892 
 868   0.0000       4.985112       135.6518 
 869   0.0000       4.994040       135.8947 
 870   0.0000       5.000128       136.0604 
 871   0.0000       5.007342       136.2567 
 872   0.0000       5.018782       136.5680 
 873   0.0000       5.025085       136.7395 
 874   0.0000       5.040839       137.1682 
 875   0.0000       5.054355       137.5360 
 876   0.0000       5.056255       137.5877 
 877   0.0000       5.079963       138.2328 
 878   0.0000       5.086141       138.4009 
 879   0.0000       5.098545       138.7385 
 880   0.0000       5.107946       138.9943 
 881   0.0000       5.126731       139.5054 
 882   0.0000       5.140240       139.8730 
 883   0.0000       5.148305       140.0925 
 884   0.0000       5.154911       140.2723 
 885   0.0000       5.171785       140.7314 
 886   0.0000       5.190496       141.2406 
 887   0.0000       5.208275       141.7244 
 888   0.0000       5.214206       141.8858 
 889   0.0000       5.216276       141.9421 
 890   0.0000       5.227033       142.2348 
 891   0.0000       5.240524       142.6019 
 892   0.0000       5.258449       143.0897 
 893   0.0000       5.274314       143.5214 
 894   0.0000       5.298938       144.1914 
 895   0.0000       5.303648       144.3196 
 896   0.0000       5.310896       144.5168 
 897   0.0000       5.323553       144.8612 
 898   0.0000       5.345725       145.4646 
 899   0.0000       5.356512       145.7581 
 900   0.0000       5.372339       146.1888 
 901   0.0000       5.376108       146.2913 
 902   0.0000       5.390886       146.6935 
 903   0.0000       5.397684       146.8784 
 904   0.0000       5.413553       147.3103 
 905   0.0000       5.416204       147.3824 
 906   0.0000       5.424221       147.6006 
 907   0.0000       5.430708       147.7771 
 908   0.0000       5.444405       148.1498 
 909   0.0000       5.462196       148.6339 
 910   0.0000       5.478163       149.0684 
 911   0.0000       5.488617       149.3529 
 912   0.0000       5.506263       149.8330 
 913   0.0000       5.518887       150.1765 
 914   0.0000       5.526450       150.3824 
 915   0.0000       5.539424       150.7354 
 916   0.0000       5.550006       151.0233 
 917   0.0000       5.566762       151.4793 
 918   0.0000       5.577811       151.7800 
 919   0.0000       5.593543       152.2080 
 920   0.0000       5.613770       152.7585 
 921   0.0000       5.615600       152.8082 
 922   0.0000       5.634989       153.3359 
 923   0.0000       5.640422       153.4837 
 924   0.0000       5.646295       153.6435 
 925   0.0000       5.661384       154.0541 
 926   0.0000       5.668892       154.2584 
 927   0.0000       5.675117       154.4278 
 928   0.0000       5.692093       154.8897 
 929   0.0000       5.702445       155.1714 
 930   0.0000       5.708385       155.3331 
 931   0.0000       5.720901       155.6736 
 932   0.0000       5.735558       156.0725 
 933   0.0000       5.739514       156.1801 
 934   0.0000       5.757417       156.6673 
 935   0.0000       5.771578       157.0526 
 936   0.0000       5.782717       157.3557 
 937   0.0000       5.809804       158.0928 
 938   0.0000       5.825087       158.5087 
 939   0.0000       5.838158       158.8644 
 940   0.0000       5.852560       159.2562 
 941   0.0000       5.881132       160.0337 
 942   0.0000       5.891713       160.3217 
 943   0.0000       5.930065       161.3653 
 944   0.0000       5.951113       161.9380 
 945   0.0000       6.000747       163.2886 
 946   0.0000       6.014869       163.6729 
 947   0.0000       6.097013       165.9081 
 948   0.0000       6.120377       166.5439 
 949   0.0000       6.135909       166.9666 
 950   0.0000       6.156289       167.5211 
 951   0.0000       6.173590       167.9919 
 952   0.0000       6.196291       168.6097 
 953   0.0000       6.213291       169.0722 
 954   0.0000       6.233958       169.6346 
 955   0.0000       6.242384       169.8639 
 956   0.0000       6.252991       170.1525 
 957   0.0000       6.268620       170.5778 
 958   0.0000       6.272258       170.6768 
 959   0.0000       6.285540       171.0382 
 960   0.0000       6.297473       171.3629 
 961   0.0000       6.314345       171.8221 
 962   0.0000       6.329520       172.2350 
 963   0.0000       6.357427       172.9944 
 964   0.0000       6.390003       173.8808 
 965   0.0000       6.396355       174.0537 
 966   0.0000       6.426508       174.8742 
 967   0.0000       6.444061       175.3518 
 968   0.0000       6.514907       177.2796 
 969   0.0000       6.536484       177.8668 
 970   0.0000       6.626507       180.3164 
 971   0.0000       6.668014       181.4459 
 972   0.0000       6.837317       186.0529 
 973   0.0000       6.856734       186.5812 
 974   0.0000       6.865441       186.8181 
 975   0.0000       6.901538       187.8004 
 976   0.0000       6.940879       188.8709 
 977   0.0000       6.951467       189.1590 
 978   0.0000       6.972265       189.7250 
 979   0.0000       6.992167       190.2665 
 980   0.0000       6.999667       190.4706 
 981   0.0000       7.031465       191.3359 
 982   0.0000       7.060326       192.1212 
 983   0.0000       7.063297       192.2021 
 984   0.0000       7.151918       194.6136 
 985   0.0000       7.190372       195.6600 
 986   0.0000       7.340731       199.7515 
 987   0.0000       7.389830       201.0875 
 988   0.0000       7.445621       202.6057 
 989   0.0000       7.519886       204.6265 
 990   0.0000       7.553063       205.5293 
 991   0.0000       7.618978       207.3229 
 992   0.0000       7.644741       208.0240 
 993   0.0000       7.711263       209.8341 
 994   0.0000       7.821984       212.8470 
 995   0.0000       7.888082       214.6456 
 996   0.0000       8.008657       217.9266 
 997   0.0000       8.067577       219.5299 
 998   0.0000       8.271134       225.0690 
 999   0.0000       9.414477       256.1810 
 1000   0.0000       9.436585       256.7825 
 1001   0.0000       9.444238       256.9908 
 1002   0.0000       9.454950       257.2823 
 1003   0.0000       9.470713       257.7112 
 1004   0.0000       9.488237       258.1881 
 1005   0.0000       9.680459       263.4187 
 1006   0.0000      10.086662       274.4720 
 1007   0.0000      10.106453       275.0106 
 1008   0.0000      10.118253       275.3317 
 1009   0.0000      10.205315       277.7007 
 1010   0.0000      10.211850       277.8786 
 1011   0.0000      10.252915       278.9960 
 1012   0.0000      10.351560       281.6803 
 1013   0.0000      10.395914       282.8872 
 1014   0.0000      10.492295       285.5099 
 1015   0.0000      15.899946       432.6595 
 1016   0.0000      17.396524       473.3835 
 1017   0.0000      17.921635       487.6725 
 1018   0.0000      18.249323       496.5893 
 1019   0.0000      18.647100       507.4134 
 1020   0.0000      18.748533       510.1735 
 1021   0.0000      18.921490       514.8799 
 1022   0.0000      20.494449       557.6823 
 1023   0.0000      21.435172       583.2807 
 1024   0.0000      21.926979       596.6634 

                 SPIN DOWN ORBITALS
  NO   OCC          E(Eh)            E(eV) 
   0   1.0000    -261.565911     -7117.5703 
   1   1.0000    -104.786983     -2851.3988 
   2   1.0000    -104.785439     -2851.3567 
   3   1.0000    -104.784277     -2851.3251 
   4   1.0000     -32.075230      -872.8114 
   5   1.0000     -27.553152      -749.7594 
   6   1.0000     -27.553108      -749.7582 
   7   1.0000     -27.552894      -749.7524 
   8   1.0000     -20.592586      -560.3528 
   9   1.0000     -11.420533      -310.7685 
  10   1.0000     -11.289956      -307.2153 
  11   1.0000     -11.273910      -306.7787 
  12   1.0000     -11.268975      -306.6444 
  13   1.0000     -11.252031      -306.1833 
  14   1.0000     -11.248272      -306.0810 
  15   1.0000     -11.245543      -306.0068 
  16   1.0000     -11.239230      -305.8350 
  17   1.0000     -10.513554      -286.0883 
  18   1.0000     -10.511957      -286.0449 
  19   1.0000     -10.510769      -286.0126 
  20   1.0000      -7.979461      -217.1322 
  21   1.0000      -7.978775      -217.1135 
  22   1.0000      -7.978714      -217.1119 
  23   1.0000      -7.977837      -217.0880 
  24   1.0000      -7.977200      -217.0706 
  25   1.0000      -7.977098      -217.0679 
  26   1.0000      -7.976757      -217.0586 
  27   1.0000      -7.975926      -217.0360 
  28   1.0000      -7.975840      -217.0337 
  29   1.0000      -4.150142      -112.9311 
  30   1.0000      -2.671730       -72.7015 
  31   1.0000      -2.671671       -72.6999 
  32   1.0000      -2.671291       -72.6895 
  33   1.0000      -1.440317       -39.1930 
  34   1.0000      -1.140069       -31.0229 
  35   1.0000      -1.095472       -29.8093 
  36   1.0000      -1.046272       -28.4705 
  37   1.0000      -1.034038       -28.1376 
  38   1.0000      -1.032374       -28.0923 
  39   1.0000      -1.026659       -27.9368 
  40   1.0000      -1.008504       -27.4428 
  41   1.0000      -0.968077       -26.3427 
  42   1.0000      -0.907768       -24.7016 
  43   1.0000      -0.819685       -22.3048 
  44   1.0000      -0.739780       -20.1304 
  45   1.0000      -0.707264       -19.2456 
  46   1.0000      -0.698056       -18.9951 
  47   1.0000      -0.689213       -18.7544 
  48   1.0000      -0.662869       -18.0376 
  49   1.0000      -0.630389       -17.1538 
  50   1.0000      -0.619961       -16.8700 
  51   1.0000      -0.602736       -16.4013 
  52   1.0000      -0.600419       -16.3382 
  53   1.0000      -0.583378       -15.8745 
  54   1.0000      -0.577965       -15.7272 
  55   1.0000      -0.563451       -15.3323 
  56   1.0000      -0.561579       -15.2813 
  57   1.0000      -0.549224       -14.9451 
  58   1.0000      -0.544198       -14.8084 
  59   1.0000      -0.535184       -14.5631 
  60   1.0000      -0.516958       -14.0671 
  61   1.0000      -0.504385       -13.7250 
  62   1.0000      -0.495125       -13.4730 
  63   1.0000      -0.479683       -13.0528 
  64   1.0000      -0.478772       -13.0280 
  65   1.0000      -0.449725       -12.2376 
  66   1.0000      -0.446647       -12.1539 
  67   1.0000      -0.444277       -12.0894 
  68   1.0000      -0.429056       -11.6752 
  69   1.0000      -0.425289       -11.5727 
  70   1.0000      -0.410155       -11.1609 
  71   1.0000      -0.362711        -9.8699 
  72   0.0000       0.012419         0.3380 
  73   0.0000       0.023331         0.6349 
  74   0.0000       0.023531         0.6403 
  75   0.0000       0.030354         0.8260 
  76   0.0000       0.039425         1.0728 
  77   0.0000       0.040639         1.1058 
  78   0.0000       0.042404         1.1539 
  79   0.0000       0.043359         1.1799 
  80   0.0000       0.043901         1.1946 
  81   0.0000       0.054955         1.4954 
  82   0.0000       0.056281         1.5315 
  83   0.0000       0.059726         1.6252 
  84   0.0000       0.064207         1.7472 
  85   0.0000       0.066192         1.8012 
  86   0.0000       0.068310         1.8588 
  87   0.0000       0.072209         1.9649 
  88   0.0000       0.075146         2.0448 
  89   0.0000       0.079538         2.1643 
  90   0.0000       0.090555         2.4641 
  91   0.0000       0.091044         2.4774 
  92   0.0000       0.092400         2.5143 
  93   0.0000       0.100478         2.7341 
  94   0.0000       0.101498         2.7619 
  95   0.0000       0.103221         2.8088 
  96   0.0000       0.105213         2.8630 
  97   0.0000       0.109728         2.9859 
  98   0.0000       0.110803         3.0151 
  99   0.0000       0.114318         3.1108 
 100   0.0000       0.114607         3.1186 
 101   0.0000       0.115244         3.1360 
 102   0.0000       0.119217         3.2441 
 103   0.0000       0.121378         3.3029 
 104   0.0000       0.125469         3.4142 
 105   0.0000       0.126194         3.4339 
 106   0.0000       0.128689         3.5018 
 107   0.0000       0.130734         3.5575 
 108   0.0000       0.133749         3.6395 
 109   0.0000       0.134286         3.6541 
 110   0.0000       0.139030         3.7832 
 111   0.0000       0.139671         3.8007 
 112   0.0000       0.142508         3.8778 
 113   0.0000       0.148923         4.0524 
 114   0.0000       0.150418         4.0931 
 115   0.0000       0.153216         4.1692 
 116   0.0000       0.157309         4.2806 
 117   0.0000       0.160336         4.3630 
 118   0.0000       0.163039         4.4365 
 119   0.0000       0.168915         4.5964 
 120   0.0000       0.170010         4.6262 
 121   0.0000       0.173549         4.7225 
 122   0.0000       0.175437         4.7739 
 123   0.0000       0.177715         4.8359 
 124   0.0000       0.180591         4.9141 
 125   0.0000       0.185984         5.0609 
 126   0.0000       0.187987         5.1154 
 127   0.0000       0.190841         5.1931 
 128   0.0000       0.195921         5.3313 
 129   0.0000       0.201243         5.4761 
 130   0.0000       0.202232         5.5030 
 131   0.0000       0.208110         5.6630 
 132   0.0000       0.209739         5.7073 
 133   0.0000       0.210682         5.7330 
 134   0.0000       0.213411         5.8072 
 135   0.0000       0.216413         5.8889 
 136   0.0000       0.223908         6.0928 
 137   0.0000       0.228209         6.2099 
 138   0.0000       0.230032         6.2595 
 139   0.0000       0.231490         6.2992 
 140   0.0000       0.237363         6.4590 
 141   0.0000       0.240241         6.5373 
 142   0.0000       0.243215         6.6182 
 143   0.0000       0.245180         6.6717 
 144   0.0000       0.250764         6.8236 
 145   0.0000       0.255571         6.9545 
 146   0.0000       0.256027         6.9668 
 147   0.0000       0.259451         7.0600 
 148   0.0000       0.263350         7.1661 
 149   0.0000       0.266976         7.2648 
 150   0.0000       0.274418         7.4673 
 151   0.0000       0.275511         7.4970 
 152   0.0000       0.278500         7.5784 
 153   0.0000       0.285203         7.7608 
 154   0.0000       0.289679         7.8826 
 155   0.0000       0.293231         7.9792 
 156   0.0000       0.299823         8.1586 
 157   0.0000       0.300685         8.1821 
 158   0.0000       0.302445         8.2300 
 159   0.0000       0.310023         8.4361 
 160   0.0000       0.311102         8.4655 
 161   0.0000       0.315943         8.5973 
 162   0.0000       0.321778         8.7560 
 163   0.0000       0.326149         8.8750 
 164   0.0000       0.330036         8.9807 
 165   0.0000       0.332619         9.0510 
 166   0.0000       0.334300         9.0968 
 167   0.0000       0.341527         9.2934 
 168   0.0000       0.344787         9.3821 
 169   0.0000       0.346237         9.4216 
 170   0.0000       0.351141         9.5550 
 171   0.0000       0.359600         9.7852 
 172   0.0000       0.361865         9.8469 
 173   0.0000       0.363371         9.8878 
 174   0.0000       0.366617         9.9762 
 175   0.0000       0.367568        10.0020 
 176   0.0000       0.369418        10.0524 
 177   0.0000       0.372940        10.1482 
 178   0.0000       0.374367        10.1870 
 179   0.0000       0.379605        10.3296 
 180   0.0000       0.387219        10.5368 
 181   0.0000       0.387760        10.5515 
 182   0.0000       0.391464        10.6523 
 183   0.0000       0.394252        10.7281 
 184   0.0000       0.397273        10.8104 
 185   0.0000       0.398407        10.8412 
 186   0.0000       0.404077        10.9955 
 187   0.0000       0.406643        11.0653 
 188   0.0000       0.409007        11.1296 
 189   0.0000       0.410424        11.1682 
 190   0.0000       0.413680        11.2568 
 191   0.0000       0.419296        11.4096 
 192   0.0000       0.420306        11.4371 
 193   0.0000       0.424874        11.5614 
 194   0.0000       0.431832        11.7508 
 195   0.0000       0.435053        11.8384 
 196   0.0000       0.439437        11.9577 
 197   0.0000       0.440977        11.9996 
 198   0.0000       0.450260        12.2522 
 199   0.0000       0.454592        12.3701 
 200   0.0000       0.456458        12.4208 
 201   0.0000       0.460975        12.5438 
 202   0.0000       0.461825        12.5669 
 203   0.0000       0.467612        12.7244 
 204   0.0000       0.469179        12.7670 
 205   0.0000       0.475068        12.9273 
 206   0.0000       0.476438        12.9645 
 207   0.0000       0.478012        13.0074 
 208   0.0000       0.482144        13.1198 
 209   0.0000       0.484791        13.1918 
 210   0.0000       0.486970        13.2511 
 211   0.0000       0.489478        13.3194 
 212   0.0000       0.493980        13.4419 
 213   0.0000       0.497449        13.5363 
 214   0.0000       0.502369        13.6702 
 215   0.0000       0.505332        13.7508 
 216   0.0000       0.509092        13.8531 
 217   0.0000       0.511519        13.9192 
 218   0.0000       0.512813        13.9544 
 219   0.0000       0.516870        14.0648 
 220   0.0000       0.519484        14.1359 
 221   0.0000       0.520087        14.1523 
 222   0.0000       0.525274        14.2934 
 223   0.0000       0.528260        14.3747 
 224   0.0000       0.531775        14.4703 
 225   0.0000       0.537047        14.6138 
 226   0.0000       0.538120        14.6430 
 227   0.0000       0.542277        14.7561 
 228   0.0000       0.545557        14.8454 
 229   0.0000       0.548064        14.9136 
 230   0.0000       0.552293        15.0286 
 231   0.0000       0.556212        15.1353 
 232   0.0000       0.561696        15.2845 
 233   0.0000       0.563321        15.3287 
 234   0.0000       0.565052        15.3759 
 235   0.0000       0.568583        15.4719 
 236   0.0000       0.571682        15.5563 
 237   0.0000       0.574772        15.6403 
 238   0.0000       0.580108        15.7855 
 239   0.0000       0.585788        15.9401 
 240   0.0000       0.588971        16.0267 
 241   0.0000       0.593762        16.1571 
 242   0.0000       0.600425        16.3384 
 243   0.0000       0.600857        16.3502 
 244   0.0000       0.605853        16.4861 
 245   0.0000       0.610313        16.6075 
 246   0.0000       0.616416        16.7735 
 247   0.0000       0.619640        16.8613 
 248   0.0000       0.622307        16.9338 
 249   0.0000       0.626681        17.0529 
 250   0.0000       0.631077        17.1725 
 251   0.0000       0.632925        17.2228 
 252   0.0000       0.634595        17.2682 
 253   0.0000       0.640621        17.4322 
 254   0.0000       0.644737        17.5442 
 255   0.0000       0.647216        17.6116 
 256   0.0000       0.652446        17.7540 
 257   0.0000       0.653776        17.7901 
 258   0.0000       0.655337        17.8326 
 259   0.0000       0.656715        17.8701 
 260   0.0000       0.665398        18.1064 
 261   0.0000       0.668489        18.1905 
 262   0.0000       0.670891        18.2559 
 263   0.0000       0.673086        18.3156 
 264   0.0000       0.676659        18.4128 
 265   0.0000       0.686105        18.6699 
 266   0.0000       0.692797        18.8520 
 267   0.0000       0.694289        18.8926 
 268   0.0000       0.698046        18.9948 
 269   0.0000       0.700504        19.0617 
 270   0.0000       0.703599        19.1459 
 271   0.0000       0.711211        19.3530 
 272   0.0000       0.714745        19.4492 
 273   0.0000       0.723229        19.6801 
 274   0.0000       0.729542        19.8518 
 275   0.0000       0.733135        19.9496 
 276   0.0000       0.737335        20.0639 
 277   0.0000       0.739802        20.1310 
 278   0.0000       0.743695        20.2370 
 279   0.0000       0.745230        20.2787 
 280   0.0000       0.751868        20.4594 
 281   0.0000       0.756626        20.5888 
 282   0.0000       0.765921        20.8418 
 283   0.0000       0.768465        20.9110 
[...]
  | sigma^2 in % of trace(Dij) retained ...   8.56e+00
  | sigma^2 in % of trace(Dip) retained ...   1.82e+01
  | sigma^2 in % of trace(Dpq) retained ...   1.36e-01
  | Av. % of trace(Di) retained         ...  99.998526554613
  | Av. % of trace(Dp) retained         ...  99.999999158811
  | sigma^2 in % of trace(Di) retained  ...   7.26e-07
  | sigma^2 in % of trace(Dp) retained  ...   9.79e-13
 Distributions of % trace(Dij) recovered:
  |       >= 99.9  ...   105 ( 21.1 % of all IJ-pairs)
  |   [80.0, 90.0) ...    28 (  5.6 % of all IJ-pairs)
  |   [90.0, 99.0) ...   273 ( 54.9 % of all IJ-pairs)
  |   [99.0, 99.9) ...    91 ( 18.3 % of all IJ-pairs)
 Distributions of % trace(Dip) recovered:
  |   [80.0, 90.0) ...    18 ( 15.1 % of all IP-pairs)
  |   [90.0, 99.0) ...    56 ( 47.1 % of all IP-pairs)
  |   [99.0, 99.9) ...    45 ( 37.8 % of all IP-pairs)
 Distributions of % trace(Dpq) recovered:
  |       >= 99.9  ...     5 ( 33.3 % of all PQ-pairs)
  |   [99.0, 99.9) ...    10 ( 66.7 % of all PQ-pairs)
 Distributions of % trace(Di) recovered :
  |       >= 99.9  ...    43 (100.0 % of all I-pairs )
 Distributions of % trace(Dp) recovered :
  |       >= 99.9  ...     5 (100.0 % of all P-pairs )

                       ===========================
                       1095 OF 1719 PAIRS ARE KEPT
                       ===========================

 Initial PAO correlation energy (all pairs)    ...  -2.6905516949 Eh
 Energy constituents in PAO basis (Eh):
  | Vijab(+0) ...  -2.2623214346
  | Viab (-1) ...  -0.1747471350
  | Vab  (-2) ...  -0.0573482237
  | Va   (-1) ...  -0.0000442700
  | Vija (+1) ...  -0.0719327256
  | Vij  (+2) ...  -0.0155294422
  | Via  (+0) ...  -0.1084668941
  | Vi   (+1) ...  -0.0001615697
 Initial PNO correlation energy                ...  -2.6553169144 Eh
 Energy constituents in PNO basis (Eh):
  | Vijab(+0) ...  -2.2430737491 (err=  0.0192476855)
  | Viab (-1) ...  -0.1604535904 (err=  0.0142935446)
  | Vab  (-2) ...  -0.0568937943 (err=  0.0004544294)
  | Va   (-1) ...  -0.0000256830 (err=  0.0000185870)
  | Vija (+1) ...  -0.0708888360 (err=  0.0010438896)
  | Vij  (+2) ...  -0.0154692309 (err=  0.0000602113)
  | Via  (+0) ...  -0.1083509610 (err=  0.0001159331)
  | Vi   (+1) ...  -0.0001610697 (err=  0.0000005000)
 Sum of total truncation errors ...   0.0352347804 Eh
  | Pair screening ...   0.0123258816 Eh
  | PNO truncation ...   0.0229088988 Eh

 UMP2 correlation energy (PAO) ...  -2.6855145324
  | alpha-alpha ...  -0.3859207831 (NP_aa=  929)
  | alpha-beta  ...  -1.9932619441 (NP_ab= 1694)
  | beta -beta  ...  -0.3063318052 (NP_bb=  732)
 UMP2 correlation energy (PNO) ...  -2.6499047897
  | alpha-alpha ...  -0.3736640561 (err=  0.0122567270, NP_aa=  583)
  | alpha-beta  ...  -1.9741617733 (err=  0.0191001708, NP_ab= 1070)
  | beta -beta  ...  -0.3020789603 (err=  0.0042528449, NP_bb=  454)
 Sum of total UMP2 truncation errors ...   0.0356097427 Eh
  | Pair screening ...   0.0123391541 Eh
  | PNO truncation ...   0.0232705886 Eh
 Timing for NEV-PNO construction (sec.)
  | Intermediate construction  ..           51.427
  | Amplitude construction     ..           67.136
  | Total time                 ..          118.564
 Making pair pair interaction lists ...      ok
 Total size for 2-ext PNO integrals ...     10.9 MB
Checking the number of SOMO/SOMO doubles PNOs ... 
 #Truncate: (72, 72)[177] -> [85] .. 
 #Truncate: (73, 73)[178] -> [85] .. 
 #Truncate: (74, 74)[180] -> [85] .. 
 #Truncate: (75, 75)[178] -> [85] .. 
 #Truncate: (76, 76)[178] -> [85] .. 

--------------------------------
LOCAL RI TRANSFORMATION (VABPAO)
--------------------------------

Number of PAOs:    1030
Basis functions:   1025 (343 shells)
Aux. functions:    2424 (644 shells)

Processing maps (0.0 sec)
Average map sizes:
   Aux shells -> PAOs           1030.0
   PAOs       -> AO shells       343.0

Calculating integrals (188.3 sec, 37370.165 MB)
Finished
-----------------------------
LOCAL RI TRANSFORMATION (IJV)
-----------------------------

Orbital window:      29 to 76
Basis functions:   1025 (343 shells)
Aux. functions:    2424 (644 shells)

Processing maps (0.0 sec)
Average map sizes:
   Aux shells -> MOs(i)           46.6
   Aux shells -> MOs(j)           48.0
   MOs        -> AO shells       341.7

Calculating integrals (22.3 sec, 41.469 MB)
Sorting integrals (0.3 sec, 41.441 MB)
Total time for the integral transformation: 22.7 sec


-------------------------------------
Pair Pair Term precalculation with     
RI-(ij|mn) and (im|jn) transformation  
ON THE FLY                             
-------------------------------------

   IBatch   1 (of   2)              ... done ( 1114.849 sec)
   IBatch   2 (of   2)              ... done (  979.142 sec)
Total EXT                           ...        2093.991 sec

---------------------
RI-PNO TRANSFORMATION
---------------------

Total Number of PNOs                   ... 34068
Total Number of IJ-PNOs                ... 29898
Total Number of IP-PNOs                ...  3217
Total Number of PQ-PNOs                ...   953
Total Number of IJ-pairs               ...   951
Total Number of PI-pairs               ...   119
Total Number of PQ-pairs               ...    25
Average number of PNOs per pair        ...    31
Maximal number of PNOs per pair        ...    85
>> Statistics for ij-pairs..
   #pairs with  1 -  5 PNOs   :    0
   #pairs with  6 - 10 PNOs   :    0
   #pairs with 11 - 15 PNOs   :   62
   #pairs with 16 - 20 PNOs   :  228
   #pairs with 21 - 25 PNOs   :  156
   #pairs with 26 - 30 PNOs   :  148
   #pairs with 31 - 35 PNOs   :   58
   #pairs with 36 - 40 PNOs   :   60
   #pairs with 41 - 45 PNOs   :   48
   #pairs with 46 - 50 PNOs   :   28
   #pairs with 51 - 55 PNOs   :   28
   #pairs with 56 - 60 PNOs   :   55
   #pairs with 61 - 65 PNOs   :   75
   #pairs with 66 - 70 PNOs   :    2
   #pairs with 71 - 75 PNOs   :    1
   #pairs with 81 - 85 PNOs   :    2
>> Statistics for ip-pairs..
   #pairs with  1 -  5 PNOs   :    0
   #pairs with  6 - 10 PNOs   :    0
   #pairs with 11 - 15 PNOs   :   19
   #pairs with 16 - 20 PNOs   :    4
   #pairs with 21 - 25 PNOs   :   28
   #pairs with 26 - 30 PNOs   :    9
   #pairs with 31 - 35 PNOs   :   46
   #pairs with 36 - 40 PNOs   :   13
   #pairs with 41 - 45 PNOs   :    0
   #pairs with 46 - 50 PNOs   :    0
>> Statistics for pq-pairs..
   #pairs with  1 -  5 PNOs   :    0
   #pairs with  6 - 10 PNOs   :    0
   #pairs with 11 - 15 PNOs   :    0
   #pairs with 16 - 20 PNOs   :    0
   #pairs with 21 - 25 PNOs   :   10
   #pairs with 26 - 30 PNOs   :   10
   #pairs with 31 - 35 PNOs   :    0
   #pairs with 36 - 40 PNOs   :    0
   #pairs with 41 - 45 PNOs   :    0
   #pairs with 46 - 50 PNOs   :    0
   #pairs with 81 - 85 PNOs   :    5

Generation of (ij|ab)[P] integrals            ... on
Generation of (ia|bc)[P],(ja|bc)[P] integrals ... on
Storage of 3 and 4 external integrals         ... on
Generation of ALL (ka|bc)[P] integrals        ... on
Keep RI integrals in memory                   ... off

Ibatch:  1 (of  1)
Starting 2-4 index PNO integral generation ... done

Timings:
Total PNO integral transformation time     ...       2069.484 sec
Size of the 3-external file                ...       284 MB
Size of the 4-external file                ...      1928 MB
Size of the IKJL file                      ...        18 MB
Size of the all 3-external file            ...      6827 MB
Size of the 1-external file                ...        21 MB

Size of the PAO/PNO coefficient matrices   ...     220.5 MB

Making pair/pair overlap matrices          ... done (  314.612 sec)
Size of the pair overlap file              ...    2409.0 MB
Total # unrestricted pairs ...       2107
  # of alpha-alpha pairs   ...        583
  # of alpha-beta pairs    ...       1070
  # of beta-beta pairs     ...        454
Constructing the guess amplitudes          ... done (    0.592 sec)

-------------------------
FINAL STARTUP INFORMATION
-------------------------

E(0)                                       ...  -3028.440495002
E(SL-UMP2 in NEV-PNO space)                ...     -2.686404052
Initial E(tot)                             ...  -3031.126899055
<T|T>                                      ...      0.533519401
Number of unrestricted pairs included      ... 2107
Total number of pairs                      ... 4095
----------------------------------------------------------
                     OPEN-SHELL COUPLED CLUSTER ITERATIONS
----------------------------------------------------------

Number of PNO amplitudes to be optimized        ...          2090316
Number of canonical amplitudes for strong pairs ...       1903042881
Untruncated number of canonical amplitudes      ...       3698645738

Iter       E(tot)           E(Corr)          Delta-E          Residual     Time
  0  -3031.134110818     -2.657116553      0.029287499      0.020696979 1677.75
                           *** Turning on DIIS ***
  1  -3031.247972582     -2.770978317     -0.113861764      0.009941968 1798.73
  2  -3031.312619179     -2.835624913     -0.064646596      0.008266850 1952.51
  3  -3031.334190503     -2.857196238     -0.021571325      0.002979197 1977.06
  4  -3031.341579511     -2.864585246     -0.007389008      0.002635817 1975.51
  5  -3031.345584212     -2.868589947     -0.004004701      0.001530506 1982.40
  6  -3031.347059399     -2.870065133     -0.001475187      0.000740248 1971.69
  7  -3031.347692780     -2.870698515     -0.000633382      0.000498210 1972.40
  8  -3031.347831939     -2.870837674     -0.000139158      0.000209426 1968.98
  9  -3031.347890494     -2.870896229     -0.000058555      0.000150394 1954.03
 10  -3031.347887609     -2.870893344      0.000002884      0.000087827 1947.05
 11  -3031.347900500     -2.870906235     -0.000012890      0.000056180 1948.09
 12  -3031.347905380     -2.870911115     -0.000004881      0.000030718 1942.17
 13  -3031.347907751     -2.870913486     -0.000002371      0.000014369 1947.08
 14  -3031.347909406     -2.870915141     -0.000001655      0.000005981 1942.98
               --- The CCSD iterations have converged ---

E(0)                                       ...  -3028.440495002
E(CORR)(strong-pairs)                      ...     -2.870915141
E(CORR)(weak-pairs)                        ...     -0.036499263
E(CORR)(corrected)                         ...     -2.907414404
E(TOT)                                     ...  -3031.347909406
Singles norm <S|S>**1/2                    ...      0.193159416 ( 0.064483290, 0.128676126)  
T1 diagnostic                              ...      0.020248609                              
<S**2>(linearized)                         ...      8.7508207 (ideal value:      8.7500000)

----------------------
LARGEST PNO AMPLITUDES
----------------------
  70a-> 78a  70b-> 78b       0.063317
  50b-> 76b  -1b-> -1b       0.054370
  51b-> 76b  -1b-> -1b       0.053832
  48b-> 72b  -1b-> -1b       0.052759
  48b-> 75b  -1b-> -1b       0.046246
  48b-> 74b  -1b-> -1b       0.046234
  54a-> 77a  54b-> 77b       0.044871
  55a-> 77a  55b-> 77b       0.044446
  69a-> 77a  69b-> 77b       0.044337
  43a-> 77a  -1a-> -1a       0.044275
  65a-> 77a  65b-> 77b       0.044055
  38b-> 73b  -1b-> -1b       0.044017
  63a-> 77a  63b-> 77b       0.043319
  42b-> 73b  -1b-> -1b       0.043058
  61a-> 77a  61b-> 77b       0.043029
  43a-> 77a  43b-> 77b       0.042390

Total # unrestricted pairs ...       1248
  # of alpha-alpha pairs   ...        346
  # of alpha-beta pairs    ...        624
  # of beta-beta pairs     ...        278

-------------------------------------------
DLPNO BASED TRIPLES CORRECTION
-------------------------------------------

Singles multiplier          ...  1.000000
Fragment selection                          .... not used
TCutTNO                     ... 1.000e-09
TCutMP2Pairs                ... 1.000e-05
TCutDOStrong                ... 2.000e-02
TCutMKNStrong               ... 1.000e-02
TCutDOWeak                  ... 4.000e-02
TCutMKNWeak                 ... 1.000e-01
NTCutTNO                    ... 1

Number of Triples that are to be computed         ...     34334

 . . . . . . . . .
10% done  
20% done  
30% done  
40% done  
50% done  
60% done  
70% done  
80% done  
90% done  
          Batch   1   done (  14421.374 sec)

Triples-Correction TCutTNO=   1.000e-09 (NWeakPairs = 0  1  2  3)  -0.116928403924   -0.001979101426    0.000000000000    0.000000000000
Triples-Correction  -0.118907505350

Triples timings:
Total time                      ... 15057.420 sec

Triples List generation         ...     0.000 sec
TNO generation                  ...   635.802 sec
Pair density generation         ...     0.089 sec
Look up tables                  ...     0.116 sec
Generating 3-index integrals    ...  8672.750 sec
Make 4-ind.int. from 3-ind.int  ...     3.473 sec
Projecting amplitudes (D + S)   ...  5505.184 sec
Sorting integrals for spin cases...    50.496 sec
Calculate W0/W1                 ...   152.621 sec
Energy contr. (sum over a,b,c)  ...    36.697 sec

Everything after 3-index        ...  5873.646 sec

Energy contribution AAA         ...    23.467 sec
Energy contribution AAB         ...   106.887 sec
Energy contribution ABB         ...    96.728 sec
Energy contribution BBB         ...    12.778 sec
prep                ...     3.139 sec
makeTTNO            ...  5449.119 sec
copyij              ...     0.129 sec
copyil              ...     4.111 sec
transposeij         ...     0.076 sec
newMatInDoubleProj  ...    55.379 sec
BlasInDoubleProj    ...  2923.584 sec
ProjSingles         ...    45.985 sec
ProjDoubles         ...  5459.198 sec
overall Doubles for projection      ... 3150053
used Doubles for projection         ... 3150053


Number of Triples   (0, 1, 2, 3 weak pairs; overall):  15895   12567       0       0  ( 28462)
Number of Atoms     (0, 1, 2, 3 weak pairs; overall):   19.3    14.2     0.0     0.0  (    29)
Number of PAOs      (0, 1, 2, 3 weak pairs; overall):  751.4   577.6     0.0     0.0  (  1025)
Number of AuxFcns   (0, 1, 2, 3 weak pairs; overall):  907.8   586.0     0.0     0.0  (  2424)
Number of TNOs (0, 1, 2, 3 weak pairs         ):   78.9    55.8     0.0     0.0
Aver. Number of NTNO, Atoms, PAOs, AuxFcns / Triples:  28462    68.7    17.0   674.7   765.7

Triples Correction (T)                     ...     -0.118907505
    alpha-alpha-alpha ... -0.003856893 (  3.2%)
    alpha-alpha-beta  ... -0.055815586 ( 46.9%)
    alpha-beta -beta  ... -0.055132005 ( 46.4%)
    beta -beta -beta  ... -0.004103021 (  3.5%)
Final correlation energy                   ...     -3.026321909
E(CCSD)                                    ...  -3031.347909406
E(CCSD(T))                                 ...  -3031.466816912

----------------------------
STATISTICS FOR PAIR-ENERGIES
----------------------------
Minimum, maximum and average ratios of UMP and CCSD pair-energies ... 0.36, 1.44, 1.02


------------------------------------------------------------------------------- 
                                     TIMINGS                                   
------------------------------------------------------------------------------- 


Total execution time                   ...    52704.665 sec

Localization of occupied MO's          ...       10.876 sec (  0.0%)
Fock Matrix Formation                  ...     1396.098 sec (  2.6%)
Differential overlap integrals         ...        1.602 sec (  0.0%)
Organizing maps                        ...        1.677 sec (  0.0%)
RI 3-index integral generations        ...      273.953 sec (  0.5%)
RI-PNO integral transformation         ...     4635.757 sec (  8.8%)
Initial Guess                          ...     1850.074 sec (  3.5%)
DIIS Solver                            ...       15.956 sec (  0.0%)
State Vector Update                    ...        0.728 sec (  0.0%)
Sigma-vector construction              ...    28958.445 sec ( 54.9%)
  <0|H|D>                              ...        0.030 sec (  0.0% of sigma)
  <D|H|D>(0-ext)                       ...     5577.283 sec ( 19.3% of sigma)
  <D|H|D>(2-ext Fock)                  ...        1.657 sec (  0.0% of sigma)
  <D|H|D>(2-ext)                       ...     4260.682 sec ( 14.7% of sigma)
  <D|H|D>(4-ext)                       ...      149.144 sec (  0.5% of sigma)
  <D|H|D>(4-ext-corr)                  ...      939.225 sec (  3.2% of sigma)
  CCSD doubles correction              ...      536.051 sec (  1.9% of sigma)
  <S|H|S>                              ...      707.849 sec (  2.4% of sigma)
  <S|H|D>(1-ext)                       ...      271.883 sec (  0.9% of sigma)
  <D|H|S>(1-ext)                       ...        0.901 sec (  0.0% of sigma)
  <S|H|D>(3-ext)                       ...       21.332 sec (  0.1% of sigma)
  CCSD singles correction              ...        0.005 sec (  0.0% of sigma)
  Fock-dressing                        ...     8255.015 sec ( 28.5% of sigma)
  Singles amplitudes                   ...      111.849 sec (  0.4% of sigma)
  (ik|jl)-dressing                     ...     6339.171 sec ( 21.9% of sigma)
  (ij|ab),(ia|jb)-dressing             ...     1568.653 sec (  5.4% of sigma)
  Pair energies                        ...        0.160 sec (  0.0% of sigma)
Total Time for computing (T)           ...    15911.097 sec ( 30.2% of ALL)


-------------------------   --------------------
FINAL SINGLE POINT ENERGY     -3031.466816911677
-------------------------   --------------------


                            ***************************************
                            *     ORCA property calculations      *
                            ***************************************

                                    ---------------------
                                    Active property flags
                                    ---------------------
   (+) Dipole Moment


------------------------------------------------------------------------------
                       ORCA ELECTRIC PROPERTIES CALCULATION
------------------------------------------------------------------------------

Dipole Moment Calculation                       ... on
Quadrupole Moment Calculation                   ... off
Polarizability Calculation                      ... off
GBWName                                         ... simple-grid-240-240-b3lyp_d3bj-631gd-gas-singlepoint-DLPNO_CCSD_T1-NormalPNO-augtz-gas.gbw
Electron density file                           ... simple-grid-240-240-b3lyp_d3bj-631gd-gas-singlepoint-DLPNO_CCSD_T1-NormalPNO-augtz-gas.scfp.tmp
The origin for moment calculation is the CENTER OF MASS  = ( 0.313988,  0.022553  0.018814)

-------------
DIPOLE MOMENT
-------------
                                X             Y             Z
Electronic contribution:     43.06842       2.46853       2.22942
Nuclear contribution   :    -46.78416      -3.36040      -2.80323
                        -----------------------------------------
Total Dipole Moment    :     -3.71575      -0.89187      -0.57380
                        -----------------------------------------
Magnitude (a.u.)       :      3.86412
Magnitude (Debye)      :      9.82182



--------------------
Rotational spectrum 
--------------------
 
Rotational constants in cm-1:     0.019404     0.010976     0.010338 
Rotational constants in MHz :   581.727995   329.038991   309.936512 

 Dipole components along the rotational axes: 
x,y,z [a.u.] :     3.711274    -0.909539    -0.575009 
x,y,z [Debye]:     9.433309    -2.311864    -1.461556 

 

Timings for individual modules:

Sum of individual times         ...    69572.759 sec (=1159.546 min)
GTO integral calculation        ...       12.523 sec (=   0.209 min)   0.0 %
SCF iterations                  ...    16838.752 sec (= 280.646 min)  24.2 %
MDCI module                     ...    52721.484 sec (= 878.691 min)  75.8 %
                             ****ORCA TERMINATED NORMALLY****
TOTAL RUN TIME: 0 days 19 hours 19 minutes 35 seconds 344 msec
