
                                 *****************
                                 * O   R   C   A *
                                 *****************

           --- An Ab Initio, DFT and Semiempirical electronic structure package ---

                  #######################################################
                  #                        -***-                        #
                  #          Department of theory and spectroscopy      #
                  #               Directorship: Frank Neese             #
                  #        Max Planck Institute fuer Kohlenforschung    #
                  #                Kaiser Wilhelm Platz 1               #
                  #                 D-45470 Muelheim/Ruhr               #
                  #                      Germany                        #
                  #                                                     #
                  #                  All rights reserved                #
                  #                        -***-                        #
                  #######################################################


                         Program Version 4.1.2  - RELEASE  -


 With contributions from (in alphabetic order):
   Daniel Aravena         : Magnetic Properties
   Michael Atanasov       : Ab Initio Ligand Field Theory
   Alexander A. Auer      : GIAO ZORA
   Ute Becker             : Parallelization
   Giovanni Bistoni       : ED, Open-shell LED
   Martin Brehm           : Molecular dynamics
   Dmytro Bykov           : SCF Hessian
   Vijay G. Chilkuri      : MRCI spin determinant printing
   Dipayan Datta          : RHF DLPNO-CCSD density
   Achintya Kumar Dutta   : EOM-CC, STEOM-CC
   Dmitry Ganyushin       : Spin-Orbit,Spin-Spin,Magnetic field MRCI
   Miquel Garcia          : C-PCM Hessian
   Yang Guo               : DLPNO-NEVPT2, CIM, IAO-localization
   Andreas Hansen         : Spin unrestricted coupled pair/coupled cluster methods
   Benjamin Helmich-Paris : CASSCF linear response (MC-RPA)
   Lee Huntington         : MR-EOM, pCC
   Robert Izsak           : Overlap fitted RIJCOSX, COSX-SCS-MP3, EOM
   Christian Kollmar      : KDIIS, OOCD, Brueckner-CCSD(T), CCSD density
   Simone Kossmann        : Meta GGA functionals, TD-DFT gradient, OOMP2, MP2 Hessian
   Martin Krupicka        : AUTO-CI
   Lucas Lang             : DCDCAS
   Dagmar Lenk            : GEPOL surface, SMD
   Dimitrios Liakos       : Extrapolation schemes; parallel MDCI
   Dimitrios Manganas     : ROCIS; embedding schemes
   Dimitrios Pantazis     : SARC Basis sets
   Taras Petrenko         : DFT Hessian,TD-DFT gradient, ASA, ECA, R-Raman, ABS, FL, XAS/XES, NRVS
   Peter Pinski           : DLPNO-MP2, DLPNO-MP2 Gradient
   Christoph Reimann      : Effective Core Potentials
   Marius Retegan         : Local ZFS, SOC
   Christoph Riplinger    : Optimizer, TS searches, QM/MM, DLPNO-CCSD(T), (RO)-DLPNO pert. Triples
   Tobias Risthaus        : Range-separated hybrids, TD-DFT gradient, RPA, STAB
   Michael Roemelt        : Restricted open shell CIS
   Masaaki Saitow         : Open-shell DLPNO
   Barbara Sandhoefer     : DKH picture change effects
   Avijit Sen             : IP-ROCIS
   Kantharuban Sivalingam : CASSCF convergence, NEVPT2, FIC-MRCI
   Bernardo de Souza      : ESD, SOC TD-DFT
   Georgi Stoychev        : AutoAux, RI-MP2 NMR
   Willem Van den Heuvel  : Paramagnetic NMR
   Boris Wezisla          : Elementary symmetry handling
   Frank Wennmohs         : Technical directorship


 We gratefully acknowledge several colleagues who have allowed us to
 interface, adapt or use parts of their codes:
   Stefan Grimme, W. Hujo, H. Kruse,             : VdW corrections, initial TS optimization,
                  C. Bannwarth                     DFT functionals, gCP, sTDA/sTD-DF
   Ed Valeev                                     : LibInt (2-el integral package), F12 methods
   Garnet Chan, S. Sharma, J. Yang, R. Olivares  : DMRG
   Ulf Ekstrom                                   : XCFun DFT Library
   Mihaly Kallay                                 : mrcc  (arbitrary order and MRCC methods)
   Andreas Klamt, Michael Diedenhofen            : otool_cosmo (COSMO solvation model)
   Jiri Pittner, Ondrej Demel                    : Mk-CCSD
   Frank Weinhold                                : gennbo (NPA and NBO analysis)
   Christopher J. Cramer and Donald G. Truhlar   : smd solvation model
   Lars Goerigk                                  : TD-DFT with DH, B97 family of functionals
   V. Asgeirsson, H. Jonsson                     : NEB implementation
   FAccTs GmbH                                   : IRC, NEB, NEB-TS, Multilevel


 Your calculation uses the libint2 library for the computation of 2-el integrals
 For citations please refer to: http://libint.valeyev.net

 This ORCA versions uses:
   CBLAS   interface :  Fast vector & matrix operations
   LAPACKE interface :  Fast linear algebra routines
   SCALAPACK package :  Parallel linear algebra routines


----- Orbital basis set information -----
Your calculation utilizes the basis: aug-cc-pVTZ 
    H, B-Ne : Obtained from the ccRepo (grant-hill.group.shef.ac.uk/ccrepo) Feb. 2017
              R. A. Kendall, T. H. Dunning, Jr., R. J. Harrison, J. Chem. Phys. 96, 6796 (1992)
         He : Obtained from the ccRepo (grant-hill.group.shef.ac.uk/ccrepo) Feb. 2017
              D. E. Woon, T. H. Dunning, Jr., J. Chem. Phys. 100, 2975 (1994)
  Li-Be, Na : Obtained from the ccRepo (grant-hill.group.shef.ac.uk/ccrepo) Feb. 2017
              B. P. Prascher, D. E. Woon, K. A. Peterson, T. H. Dunning, Jr., A. K. Wilson, Theor. Chem. Acc. 128, 69 (2011)
         Mg : Obtained from the Peterson Research Group Website (tyr0.chem.wsu.edu/~kipeters) Feb. 2017
              B. P. Prascher, D. E. Woon, K. A. Peterson, T. H. Dunning, Jr., A. K. Wilson, Theor. Chem. Acc. 128, 69 (2011)
      Al-Ar : Obtained from the ccRepo (grant-hill.group.shef.ac.uk/ccrepo) Feb. 2017
              D. E. Woon, T. H. Dunning, Jr., J. Chem. Phys. 98, 1358 (1993)
      Sc-Zn : Obtained from the ccRepo (grant-hill.group.shef.ac.uk/ccrepo) Feb. 2017
              N. B. Balabanov, K. A. Peterson, J. Chem. Phys. 123, 064107 (2005)
              N. B. Balabanov, K. A. Peterson, J. Chem. Phys. 125, 074110 (2006)
      Ga-Kr : Obtained from the ccRepo (grant-hill.group.shef.ac.uk/ccrepo) Feb. 2017
              A. K. Wilson, D. E. Woon, K. A. Peterson, T. H. Dunning, Jr., J. Chem. Phys. 110, 7667 (1999)
     Ag, Au : Obtained from the Peterson Research Group Website (tyr0.chem.wsu.edu/~kipeters) Feb. 2017
              K. A. Peterson, C. Puzzarini, Theor. Chem. Acc. 114, 283 (2005)

----- AuxJ basis set information -----
Your calculation utilizes the AutoAux generation procedure.
  G. L. Stoychev, A. A. Auer, F. Neese, J. Chem. Theory Comput. 13, 554 (2017)

----- AuxC basis set information -----
Your calculation utilizes the auxiliary basis: aug-cc-pVTZ/C 
  H-He, B-F, Al-Ar, Ga-Kr : Obtained from the EMSL Basis Set Exchange (bse.pnl.gov) Feb. 2017
                            F. Weigend, A. Kohn, C. Hattig, J. Chem. Phys. 116, 3175 (2002)
                   Be, Mg : Obtained from the TURBOMOLE 7.0 basis set library
                            C. Haettig, Phys. Chem. Chem. Phys. 7, 59 (2005)
                       Ne : Obtained from the EMSL Basis Set Exchange (bse.pnl.gov) Feb. 2017
                            C. Haettig, Phys. Chem. Chem. Phys. 7, 59 (2005)
                            F. Weigend, A. Kohn, C. Hattig, J. Chem. Phys. 116, 3175 (2002)
                    Sc-Zn : Obtained from the EMSL Basis Set Exchange (bse.pnl.gov) Feb. 2017
                            J. G. Hill, J. A. Platts, J. Chem. Phys. 128, 044104 (2008)

----- AuxJK basis set information -----
Your calculation utilizes the AutoAux generation procedure.
  G. L. Stoychev, A. A. Auer, F. Neese, J. Chem. Theory Comput. 13, 554 (2017)

================================================================================
                                        WARNINGS
                       Please study these warnings very carefully!
================================================================================


WARNING: your system is open-shell and RHF/RKS was chosen
  ===> : WILL SWITCH to UHF/UKS


WARNING: MDCI localization with Augmented Hessian Foster-Boys
  ===> : Switching off randomization!

WARNING: Post HF methods need fully converged wavefunctions
  ===> : Setting SCFConvForced true
         You can overwrite this default with %scf ConvForced false 


INFO   : the flag for use of LIBINT has been found!

================================================================================
                                       INPUT FILE
================================================================================
NAME = simple-grid-225-220-b3lyp_d3bj-631gd-gas-singlepoint-DLPNO_CCSD_T1-NormalPNO-augtz-gas.inp
|  1> ! aug-cc-pVTZ aug-cc-pVTZ/C DLPNO-CCSD(T1) TightSCF NormalPNO UNO MiniPrint AutoAux
|  2> %pal nproc 10 end
|  3> %maxcore 20000
|  4> %mdci
|  5>      density none
|  6> end
|  7> 
|  8> * xyz 0 6
|  9>  O     -0.35292500     -0.07424300     -0.51536600
| 10>  C     -1.21917900     -1.03333000     -0.47676100
| 11>  C     -3.15327700      0.04837900     -0.08731600
| 12>  C     -2.22445200      1.04519100     -0.22502600
| 13>  C     -2.01827800      1.72867500     -1.54192600
| 14> Fe      1.45693300      0.05794400      0.05940700
| 15> Cl      2.07800800      1.97973500     -0.79318700
| 16>  C     -1.58836900      1.71620900      0.95561400
| 17> Cl      2.36135200     -1.76212900     -0.78559300
| 18> Cl      1.44130600      0.02910800      2.26303600
| 19>  H     -3.68329600     -0.25517800     -0.98752600
| 20>  H     -2.30455800      2.45427100      1.34411600
| 21>  H     -1.34954000      1.03041600      1.76970600
| 22>  H     -0.67821800      2.24754100      0.67147000
| 23>  H     -2.50388000      2.71266800     -1.47479400
| 24>  H     -0.95844700      1.89968500     -1.74426400
| 25>  H     -2.47863100      1.19213700     -2.37495100
| 26>  C     -3.77538800     -0.40237400      1.20649300
| 27>  H     -4.70402900      0.15805200      1.38020400
| 28>  H     -4.04741700     -1.46242900      1.17850300
| 29>  H     -3.13065800     -0.23793700      2.07254400
| 30>  C     -1.20983700     -1.94262800      0.71724300
| 31>  H     -2.08594600     -2.58989300      0.76347200
| 32>  H     -0.31930000     -2.57654100      0.59023900
| 33>  H     -1.07760800     -1.39217200      1.64904500
| 34>  C     -1.60244700     -1.63937300     -1.79858900
| 35>  H     -0.73830600     -2.25156000     -2.09604800
| 36>  H     -2.48162200     -2.28266200     -1.72761900
| 37>  H     -1.73934700     -0.87761900     -2.56647700
| 38> *
| 39> 
| 40> 
| 41>                          ****END OF INPUT****
================================================================================

                       ****************************
                       * Single Point Calculation *
                       ****************************

---------------------------------
CARTESIAN COORDINATES (ANGSTROEM)
---------------------------------
  O     -0.352925   -0.074243   -0.515366
  C     -1.219179   -1.033330   -0.476761
  C     -3.153277    0.048379   -0.087316
  C     -2.224452    1.045191   -0.225026
  C     -2.018278    1.728675   -1.541926
  Fe     1.456933    0.057944    0.059407
  Cl     2.078008    1.979735   -0.793187
  C     -1.588369    1.716209    0.955614
  Cl     2.361352   -1.762129   -0.785593
  Cl     1.441306    0.029108    2.263036
  H     -3.683296   -0.255178   -0.987526
  H     -2.304558    2.454271    1.344116
  H     -1.349540    1.030416    1.769706
  H     -0.678218    2.247541    0.671470
  H     -2.503880    2.712668   -1.474794
  H     -0.958447    1.899685   -1.744264
  H     -2.478631    1.192137   -2.374951
  C     -3.775388   -0.402374    1.206493
  H     -4.704029    0.158052    1.380204
  H     -4.047417   -1.462429    1.178503
  H     -3.130658   -0.237937    2.072544
  C     -1.209837   -1.942628    0.717243
  H     -2.085946   -2.589893    0.763472
  H     -0.319300   -2.576541    0.590239
  H     -1.077608   -1.392172    1.649045
  C     -1.602447   -1.639373   -1.798589
  H     -0.738306   -2.251560   -2.096048
  H     -2.481622   -2.282662   -1.727619
  H     -1.739347   -0.877619   -2.566477

----------------------------
CARTESIAN COORDINATES (A.U.)
----------------------------
  NO LB      ZA    FRAG     MASS         X           Y           Z
   0 O     8.0000    0    15.999   -0.666932   -0.140299   -0.973901
   1 C     6.0000    0    12.011   -2.303914   -1.952711   -0.900948
   2 C     6.0000    0    12.011   -5.958830    0.091423   -0.165003
   3 C     6.0000    0    12.011   -4.203605    1.975125   -0.425238
   4 C     6.0000    0    12.011   -3.813993    3.266722   -2.913818
   5 Fe   26.0000    0    55.850    2.753204    0.109498    0.112263
   6 Cl   17.0000    0    35.453    3.926866    3.741157   -1.498906
   7 C     6.0000    0    12.011   -3.001582    3.243165    1.805849
   8 Cl   17.0000    0    35.453    4.462309   -3.329941   -1.484556
   9 Cl   17.0000    0    35.453    2.723674    0.055006    4.276518
  10 H     1.0000    0     1.008   -6.960421   -0.482217   -1.866154
  11 H     1.0000    0     1.008   -4.354983    4.637900    2.540011
  12 H     1.0000    0     1.008   -2.550261    1.947204    3.344260
  13 H     1.0000    0     1.008   -1.281646    4.247237    1.268894
  14 H     1.0000    0     1.008   -4.731647    5.126200   -2.786957
  15 H     1.0000    0     1.008   -1.811202    3.589884   -3.296181
  16 H     1.0000    0     1.008   -4.683934    2.252812   -4.488007
  17 C     6.0000    0    12.011   -7.134449   -0.760377    2.279941
  18 H     1.0000    0     1.008   -8.889327    0.298675    2.608208
  19 H     1.0000    0     1.008   -7.648510   -2.763590    2.227048
  20 H     1.0000    0     1.008   -5.916086   -0.449636    3.916541
  21 C     6.0000    0    12.011   -2.286261   -3.671035    1.355393
  22 H     1.0000    0     1.008   -3.941867   -4.894188    1.442753
  23 H     1.0000    0     1.008   -0.603390   -4.868957    1.115390
  24 H     1.0000    0     1.008   -2.036384   -2.630824    3.116243
  25 C     6.0000    0    12.011   -3.028186   -3.097966   -3.398841
  26 H     1.0000    0     1.008   -1.395196   -4.254832   -3.960957
  27 H     1.0000    0     1.008   -4.689586   -4.313606   -3.264727
  28 H     1.0000    0     1.008   -3.286889   -1.658460   -4.849939



           ************************************************************
           *        Program running with 10 parallel MPI-processes    *
           *              working on a common directory               *
           ************************************************************


           ************************************************************
           *        Program running with 10 parallel MPI-processes    *
           *              working on a common directory               *
           ************************************************************

Diagonalization of the overlap matrix:
Smallest eigenvalue                        ... 6.179e-07
Time for diagonalization                   ...    0.346 sec
Threshold for overlap eigenvalues          ... 1.000e-08
Number of eigenvalues below threshold      ... 0
Time for construction of square roots      ...    0.283 sec
Total time needed                          ...    0.633 sec

-------------------
DFT GRID GENERATION
-------------------

General Integration Accuracy     IntAcc      ...  4.340
Radial Grid Type                 RadialGrid  ... Gauss-Chebyshev
Angular Grid (max. acc.)         AngularGrid ... Lebedev-110
Angular grid pruning method      GridPruning ... 3 (G Style)
Weight generation scheme         WeightScheme... Becke
Basis function cutoff            BFCut       ...    1.0000e-11
Integration weight cutoff        WCut        ...    1.0000e-14
Grids for H and He will be reduced by one unit

# of grid points (after initial pruning)     ...  36112 (   0.0 sec)
# of grid points (after weights+screening)   ...  32302 (   0.1 sec)
nearest neighbour list constructed           ...    0.0 sec
Grid point re-assignment to atoms done       ...    0.0 sec
Grid point division into batches done        ...    0.0 sec
Reduced shell lists constructed in    0.3 sec

Total number of grid points                  ...    32302
Total number of batches                      ...      520
Average number of points per batch           ...       62
Average number of grid points per atom       ...     1114
Average number of shells per batch           ...   294.55 (85.87%)
Average number of basis functions per batch  ...   876.13 (85.48%)
Average number of large shells per batch     ...   243.51 (82.67%)
Average number of large basis fcns per batch ...   723.06 (82.53%)
Maximum spatial batch extension              ...   3.37,  3.19,  3.27 au
Average spatial batch extension              ...   0.18,  0.18,  0.17 au

Time for grid setup =    0.391 sec

Loading Hartree-Fock densities                     ... done
Calculating cut-offs                               ... done
Setting up the integral package                    ... done
Initializing the effective Hamiltonian             ... done
Starting the Coulomb interaction                   ... done (   1.1 sec)
Reading the grid                                   ... done
Mapping shells                                     ... done
Starting the XC term evaluation                    ... done (   0.9 sec)
Transforming the Hamiltonian                       ... done (   0.2 sec)
Diagonalizing the Hamiltonian                      ... done (   0.4 sec)
Back transforming the eigenvectors                 ... done (   0.1 sec)
Now organizing SCF variables                       ... done
--------------
SCF ITERATIONS
--------------
ITER       Energy         Delta-E        Max-DP      RMS-DP      [F,P]     Damp
               ***  Starting incremental Fock matrix formation  ***
  0  -3027.5542154317   0.000000000000 0.24400423  0.00116102  0.2652420 0.7000
  1  -3027.8054391327  -0.251223701005 0.17406756  0.00089816  0.1621465 0.7000
                               ***Turning on DIIS***
  2  -3027.9742616757  -0.168822543012 0.12035962  0.00065768  0.1089440 0.7000
  3  -3029.6357885431  -1.661526867415 0.25756338  0.00164117  0.0815951 0.0000
  4  -3028.2803710875   1.355417455580 0.04768854  0.00024617  0.0197060 0.0000
  5  -3028.4032760289  -0.122904941325 0.03952634  0.00017887  0.0119893 0.0000
  6  -3028.4334179793  -0.030141950492 0.02142197  0.00007169  0.0054698 0.0000
  7  -3028.4500684060  -0.016650426652 0.00916681  0.00003238  0.0034657 0.0000
  8  -3028.4453806245   0.004687781532 0.00607359  0.00001872  0.0014318 0.0000
  9  -3028.4358217906   0.009558833852 0.00235168  0.00001057  0.0007541 0.0000
 10  -3028.4242890300   0.011532760567 0.00107351  0.00000355  0.0004515 0.0000
 11  -3028.4311443891  -0.006855359024 0.00029123  0.00000204  0.0000697 0.0000
 12  -3028.4288868763   0.002257512742 0.00030412  0.00000159  0.0000232 0.0000
 13  -3028.4288547847   0.000032091630 0.00057599  0.00000137  0.0000075 0.0000
 14  -3028.4288434736   0.000011311140 0.00065695  0.00000201  0.0000052 0.0000
 15  -3028.4287999702   0.000043503342 0.00073226  0.00000196  0.0000027 0.0000
 16  -3028.4288090569  -0.000009086636 0.00103312  0.00000278  0.0000022 0.0000
 17  -3028.4288147536  -0.000005696772 0.00129501  0.00000340  0.0000015 0.0000
 18  -3028.4288064725   0.000008281083 0.00153890  0.00000362  0.0000011 0.0000
                            ***DIIS convergence achieved***

               *****************************************************
               *                     SUCCESS                       *
               *           SCF CONVERGED AFTER  19 CYCLES          *
               *****************************************************

Total Energy       :        -3028.42882261 Eh          -82407.73779 eV
  Last Energy change         ...   -1.6141e-05  Tolerance :   1.0000e-08
  Last MAX-Density change    ...    9.2775e-04  Tolerance :   1.0000e-07
             **** THE GBW FILE WAS UPDATED (simple-grid-225-220-b3lyp_d3bj-631gd-gas-singlepoint-DLPNO_CCSD_T1-NormalPNO-augtz-gas.gbw) ****
             **** DENSITY FILE WAS UPDATED (simple-grid-225-220-b3lyp_d3bj-631gd-gas-singlepoint-DLPNO_CCSD_T1-NormalPNO-augtz-gas.scfp.tmp) ****
             **** ENERGY FILE WAS UPDATED (simple-grid-225-220-b3lyp_d3bj-631gd-gas-singlepoint-DLPNO_CCSD_T1-NormalPNO-augtz-gas.en.tmp) ****
----------------------
UHF SPIN CONTAMINATION
----------------------

Expectation value of <S**2>     :     8.764817
Ideal value S*(S+1) for S=2.5   :     8.750000
Deviation                       :     0.014817

----------------
ORBITAL ENERGIES
----------------
                 SPIN UP ORBITALS
  NO   OCC          E(Eh)            E(eV) 
   0   1.0000    -261.563433     -7117.5029 
   1   1.0000    -104.784349     -2851.3271 
   2   1.0000    -104.784139     -2851.3214 
   3   1.0000    -104.783264     -2851.2976 
   4   1.0000     -32.231257      -877.0571 
   5   1.0000     -27.707484      -753.9590 
   6   1.0000     -27.706723      -753.9383 
   7   1.0000     -27.706617      -753.9354 
   8   1.0000     -20.578418      -559.9672 
   9   1.0000     -11.416223      -310.6512 
  10   1.0000     -11.315462      -307.9094 
  11   1.0000     -11.269098      -306.6477 
  12   1.0000     -11.265369      -306.5463 
  13   1.0000     -11.259317      -306.3816 
  14   1.0000     -11.253204      -306.2153 
  15   1.0000     -11.250736      -306.1481 
  16   1.0000     -11.247949      -306.0722 
  17   1.0000     -10.510928      -286.0169 
  18   1.0000     -10.510767      -286.0125 
  19   1.0000     -10.509814      -285.9866 
  20   1.0000      -7.977789      -217.0867 
  21   1.0000      -7.977635      -217.0825 
  22   1.0000      -7.977023      -217.0658 
  23   1.0000      -7.976938      -217.0635 
  24   1.0000      -7.976837      -217.0608 
  25   1.0000      -7.976788      -217.0594 
  26   1.0000      -7.976604      -217.0544 
  27   1.0000      -7.975933      -217.0362 
  28   1.0000      -7.975857      -217.0341 
  29   1.0000      -4.586547      -124.8063 
  30   1.0000      -3.199539       -87.0639 
  31   1.0000      -3.198288       -87.0298 
  32   1.0000      -3.197906       -87.0195 
  33   1.0000      -1.435471       -39.0612 
  34   1.0000      -1.150838       -31.3159 
  35   1.0000      -1.095722       -29.8161 
  36   1.0000      -1.057366       -28.7724 
  37   1.0000      -1.051844       -28.6221 
  38   1.0000      -1.050547       -28.5868 
  39   1.0000      -1.031259       -28.0620 
  40   1.0000      -1.005405       -27.3585 
  41   1.0000      -0.976568       -26.5738 
  42   1.0000      -0.933891       -25.4125 
  43   1.0000      -0.916117       -24.9288 
  44   1.0000      -0.916011       -24.9259 
  45   1.0000      -0.913535       -24.8585 
  46   1.0000      -0.906154       -24.6577 
  47   1.0000      -0.905616       -24.6431 
  48   1.0000      -0.798722       -21.7343 
  49   1.0000      -0.748158       -20.3584 
  50   1.0000      -0.700875       -19.0718 
  51   1.0000      -0.695941       -18.9375 
  52   1.0000      -0.687446       -18.7064 
  53   1.0000      -0.666282       -18.1305 
  54   1.0000      -0.635315       -17.2878 
  55   1.0000      -0.619782       -16.8651 
  56   1.0000      -0.602215       -16.3871 
  57   1.0000      -0.598347       -16.2818 
  58   1.0000      -0.582148       -15.8411 
  59   1.0000      -0.576574       -15.6894 
  60   1.0000      -0.570560       -15.5257 
  61   1.0000      -0.567676       -15.4473 
  62   1.0000      -0.548464       -14.9245 
  63   1.0000      -0.547257       -14.8916 
  64   1.0000      -0.542368       -14.7586 
  65   1.0000      -0.519420       -14.1341 
  66   1.0000      -0.513940       -13.9850 
  67   1.0000      -0.491074       -13.3628 
  68   1.0000      -0.471742       -12.8367 
  69   1.0000      -0.462760       -12.5923 
  70   1.0000      -0.439991       -11.9728 
  71   1.0000      -0.433719       -11.8021 
  72   1.0000      -0.431893       -11.7524 
  73   1.0000      -0.424406       -11.5487 
  74   1.0000      -0.422247       -11.4899 
  75   1.0000      -0.421960       -11.4821 
  76   1.0000      -0.364553        -9.9200 
  77   0.0000       0.011935         0.3248 
  78   0.0000       0.022558         0.6138 
  79   0.0000       0.023471         0.6387 
  80   0.0000       0.030405         0.8274 
  81   0.0000       0.039229         1.0675 
  82   0.0000       0.040694         1.1073 
  83   0.0000       0.042505         1.1566 
  84   0.0000       0.043377         1.1803 
  85   0.0000       0.044067         1.1991 
  86   0.0000       0.056467         1.5365 
  87   0.0000       0.056630         1.5410 
  88   0.0000       0.059846         1.6285 
  89   0.0000       0.064286         1.7493 
  90   0.0000       0.067426         1.8348 
  91   0.0000       0.070120         1.9081 
  92   0.0000       0.072598         1.9755 
  93   0.0000       0.075608         2.0574 
  94   0.0000       0.081368         2.2141 
  95   0.0000       0.088878         2.4185 
  96   0.0000       0.090858         2.4724 
  97   0.0000       0.092402         2.5144 
  98   0.0000       0.099485         2.7071 
  99   0.0000       0.101493         2.7618 
 100   0.0000       0.103358         2.8125 
 101   0.0000       0.109129         2.9696 
 102   0.0000       0.115276         3.1368 
 103   0.0000       0.119430         3.2499 
 104   0.0000       0.122970         3.3462 
 105   0.0000       0.125435         3.4133 
 106   0.0000       0.127661         3.4738 
 107   0.0000       0.128577         3.4988 
 108   0.0000       0.130174         3.5422 
 109   0.0000       0.133076         3.6212 
 110   0.0000       0.135318         3.6822 
 111   0.0000       0.139503         3.7961 
 112   0.0000       0.143193         3.8965 
 113   0.0000       0.146989         3.9998 
 114   0.0000       0.149454         4.0669 
 115   0.0000       0.154158         4.1948 
 116   0.0000       0.156306         4.2533 
 117   0.0000       0.159865         4.3501 
 118   0.0000       0.160919         4.3788 
 119   0.0000       0.167470         4.5571 
 120   0.0000       0.168910         4.5963 
 121   0.0000       0.173229         4.7138 
 122   0.0000       0.175669         4.7802 
 123   0.0000       0.178256         4.8506 
 124   0.0000       0.182149         4.9565 
 125   0.0000       0.184038         5.0079 
 126   0.0000       0.188862         5.1392 
 127   0.0000       0.192056         5.2261 
 128   0.0000       0.194339         5.2882 
 129   0.0000       0.198175         5.3926 
 130   0.0000       0.200462         5.4549 
 131   0.0000       0.203249         5.5307 
 132   0.0000       0.207132         5.6363 
 133   0.0000       0.210545         5.7292 
 134   0.0000       0.210993         5.7414 
 135   0.0000       0.213516         5.8101 
 136   0.0000       0.216780         5.8989 
 137   0.0000       0.221370         6.0238 
 138   0.0000       0.228163         6.2086 
 139   0.0000       0.230066         6.2604 
 140   0.0000       0.233510         6.3541 
 141   0.0000       0.236616         6.4386 
 142   0.0000       0.239793         6.5251 
 143   0.0000       0.241957         6.5840 
 144   0.0000       0.246470         6.7068 
 145   0.0000       0.251554         6.8451 
 146   0.0000       0.253765         6.9053 
 147   0.0000       0.256086         6.9685 
 148   0.0000       0.260067         7.0768 
 149   0.0000       0.264562         7.1991 
 150   0.0000       0.265588         7.2270 
 151   0.0000       0.272568         7.4169 
 152   0.0000       0.274852         7.4791 
 153   0.0000       0.280857         7.6425 
 154   0.0000       0.284305         7.7363 
 155   0.0000       0.287333         7.8187 
 156   0.0000       0.290413         7.9025 
 157   0.0000       0.296495         8.0680 
 158   0.0000       0.297322         8.0905 
 159   0.0000       0.302398         8.2287 
 160   0.0000       0.306610         8.3433 
 161   0.0000       0.310053         8.4370 
 162   0.0000       0.316579         8.6145 
 163   0.0000       0.320591         8.7237 
 164   0.0000       0.324994         8.8435 
 165   0.0000       0.332708         9.0534 
 166   0.0000       0.333879         9.0853 
 167   0.0000       0.336076         9.1451 
 168   0.0000       0.342357         9.3160 
 169   0.0000       0.342632         9.3235 
 170   0.0000       0.354314         9.6414 
 171   0.0000       0.356550         9.7022 
 172   0.0000       0.358011         9.7420 
 173   0.0000       0.361650         9.8410 
 174   0.0000       0.364937         9.9304 
 175   0.0000       0.365804         9.9540 
 176   0.0000       0.367654        10.0044 
 177   0.0000       0.369344        10.0503 
 178   0.0000       0.374463        10.1896 
 179   0.0000       0.377778        10.2799 
 180   0.0000       0.382289        10.4026 
 181   0.0000       0.383455        10.4343 
 182   0.0000       0.388311        10.5665 
 183   0.0000       0.389660        10.6032 
 184   0.0000       0.390248        10.6192 
 185   0.0000       0.392989        10.6938 
 186   0.0000       0.397731        10.8228 
 187   0.0000       0.400360        10.8943 
 188   0.0000       0.405513        11.0346 
 189   0.0000       0.410694        11.1756 
 190   0.0000       0.413661        11.2563 
 191   0.0000       0.418060        11.3760 
 192   0.0000       0.420621        11.4457 
 193   0.0000       0.424459        11.5501 
 194   0.0000       0.429338        11.6829 
 195   0.0000       0.432275        11.7628 
 196   0.0000       0.436977        11.8908 
 197   0.0000       0.438359        11.9284 
 198   0.0000       0.447289        12.1714 
 199   0.0000       0.449812        12.2400 
 200   0.0000       0.453518        12.3408 
 201   0.0000       0.454167        12.3585 
 202   0.0000       0.457887        12.4597 
 203   0.0000       0.464180        12.6310 
 204   0.0000       0.466134        12.6841 
 205   0.0000       0.470012        12.7897 
 206   0.0000       0.473476        12.8839 
 207   0.0000       0.475696        12.9443 
 208   0.0000       0.476327        12.9615 
 209   0.0000       0.479745        13.0545 
 210   0.0000       0.484444        13.1824 
 211   0.0000       0.486764        13.2455 
 212   0.0000       0.492068        13.3899 
 213   0.0000       0.494629        13.4595 
 214   0.0000       0.500965        13.6319 
 215   0.0000       0.502237        13.6666 
 216   0.0000       0.505688        13.7605 
 217   0.0000       0.508666        13.8415 
 218   0.0000       0.510667        13.8960 
 219   0.0000       0.513167        13.9640 
 220   0.0000       0.516119        14.0443 
 221   0.0000       0.520194        14.1552 
 222   0.0000       0.521420        14.1886 
 223   0.0000       0.525831        14.3086 
 224   0.0000       0.528915        14.3925 
 225   0.0000       0.531252        14.4561 
 226   0.0000       0.535877        14.5820 
 227   0.0000       0.541598        14.7376 
 228   0.0000       0.543077        14.7779 
 229   0.0000       0.543861        14.7992 
 230   0.0000       0.552332        15.0297 
 231   0.0000       0.556655        15.1473 
 232   0.0000       0.558211        15.1897 
 233   0.0000       0.562599        15.3091 
 234   0.0000       0.566988        15.4285 
 235   0.0000       0.568909        15.4808 
 236   0.0000       0.570514        15.5245 
 237   0.0000       0.574310        15.6278 
 238   0.0000       0.577913        15.7258 
 239   0.0000       0.579757        15.7760 
 240   0.0000       0.586312        15.9544 
 241   0.0000       0.598551        16.2874 
 242   0.0000       0.600671        16.3451 
 243   0.0000       0.602942        16.4069 
 244   0.0000       0.603489        16.4218 
 245   0.0000       0.611181        16.6311 
 246   0.0000       0.613928        16.7058 
 247   0.0000       0.616679        16.7807 
 248   0.0000       0.622664        16.9436 
 249   0.0000       0.623907        16.9774 
 250   0.0000       0.630587        17.1592 
 251   0.0000       0.632919        17.2226 
 252   0.0000       0.634485        17.2652 
 253   0.0000       0.638439        17.3728 
 254   0.0000       0.639605        17.4045 
 255   0.0000       0.644889        17.5483 
 256   0.0000       0.646708        17.5978 
 257   0.0000       0.650111        17.6904 
 258   0.0000       0.655789        17.8449 
 259   0.0000       0.660413        17.9707 
 260   0.0000       0.664870        18.0920 
 261   0.0000       0.666898        18.1472 
 262   0.0000       0.672136        18.2898 
 263   0.0000       0.673130        18.3168 
 264   0.0000       0.675901        18.3922 
 265   0.0000       0.682033        18.5590 
 266   0.0000       0.688888        18.7456 
 267   0.0000       0.691946        18.8288 
 268   0.0000       0.700125        19.0514 
 269   0.0000       0.704401        19.1677 
 270   0.0000       0.706337        19.2204 
 271   0.0000       0.712543        19.3893 
 272   0.0000       0.719459        19.5775 
 273   0.0000       0.720177        19.5970 
 274   0.0000       0.727235        19.7891 
 275   0.0000       0.730141        19.8682 
 276   0.0000       0.732915        19.9436 
 277   0.0000       0.738675        20.1004 
 278   0.0000       0.743879        20.2420 
 279   0.0000       0.748288        20.3620 
 280   0.0000       0.755400        20.5555 
 281   0.0000       0.758109        20.6292 
 282   0.0000       0.763105        20.7651 
 283   0.0000       0.773051        21.0358 
 284   0.0000       0.778243        21.1771 
 285   0.0000       0.784672        21.3520 
 286   0.0000       0.787000        21.4154 
 287   0.0000       0.794793        21.6274 
 288   0.0000       0.800578        21.7848 
 289   0.0000       0.805968        21.9315 
 290   0.0000       0.808408        21.9979 
 291   0.0000       0.820805        22.3352 
 292   0.0000       0.826277        22.4841 
 293   0.0000       0.829081        22.5604 
 294   0.0000       0.836258        22.7557 
 295   0.0000       0.838881        22.8271 
 296   0.0000       0.849122        23.1058 
 297   0.0000       0.854454        23.2509 
 298   0.0000       0.857485        23.3333 
 299   0.0000       0.860941        23.4274 
 300   0.0000       0.866041        23.5662 
 301   0.0000       0.874193        23.7880 
 302   0.0000       0.875235        23.8164 
 303   0.0000       0.880841        23.9689 
 304   0.0000       0.887168        24.1411 
 305   0.0000       0.890021        24.2187 
 306   0.0000       0.891840        24.2682 
 307   0.0000       0.893519        24.3139 
 308   0.0000       0.895270        24.3615 
 309   0.0000       0.901963        24.5437 
 310   0.0000       0.905614        24.6430 
 311   0.0000       0.914968        24.8975 
 312   0.0000       0.916497        24.9391 
 313   0.0000       0.918141        24.9839 
 314   0.0000       0.922459        25.1014 
 315   0.0000       0.928484        25.2653 
 316   0.0000       0.933785        25.4096 
 317   0.0000       0.940017        25.5792 
 318   0.0000       0.941519        25.6200 
 319   0.0000       0.946684        25.7606 
 320   0.0000       0.948257        25.8034 
 321   0.0000       0.953547        25.9473 
 322   0.0000       0.955964        26.0131 
 323   0.0000       0.956972        26.0405 
 324   0.0000       0.964013        26.2321 
 325   0.0000       0.968993        26.3676 
 326   0.0000       0.971873        26.4460 
 327   0.0000       0.977260        26.5926 
 328   0.0000       0.979078        26.6421 
 329   0.0000       0.983872        26.7725 
 330   0.0000       0.986616        26.8472 
 331   0.0000       0.988417        26.8962 
 332   0.0000       0.992059        26.9953 
 333   0.0000       0.994714        27.0675 
 334   0.0000       0.997448        27.1419 
 335   0.0000       1.001963        27.2648 
 336   0.0000       1.006505        27.3884 
 337   0.0000       1.010556        27.4986 
 338   0.0000       1.012889        27.5621 
 339   0.0000       1.015990        27.6465 
 340   0.0000       1.019561        27.7437 
 341   0.0000       1.022615        27.8268 
 342   0.0000       1.027512        27.9600 
 343   0.0000       1.031839        28.0778 
 344   0.0000       1.036266        28.1982 
 345   0.0000       1.037826        28.2407 
 346   0.0000       1.042068        28.3561 
 347   0.0000       1.044245        28.4154 
 348   0.0000       1.049899        28.5692 
 349   0.0000       1.053367        28.6636 
 350   0.0000       1.054633        28.6980 
 351   0.0000       1.058456        28.8021 
 352   0.0000       1.061609        28.8879 
 353   0.0000       1.062940        28.9241 
 354   0.0000       1.069505        29.1027 
 355   0.0000       1.073375        29.2080 
 356   0.0000       1.079171        29.3657 
 357   0.0000       1.082040        29.4438 
 358   0.0000       1.084028        29.4979 
 359   0.0000       1.089452        29.6455 
 360   0.0000       1.096000        29.8237 
 361   0.0000       1.098029        29.8789 
 362   0.0000       1.106323        30.1046 
 363   0.0000       1.108762        30.1710 
 364   0.0000       1.110151        30.2088 
 365   0.0000       1.116865        30.3914 
 366   0.0000       1.121525        30.5182 
 367   0.0000       1.128391        30.7051 
 368   0.0000       1.132837        30.8261 
 369   0.0000       1.134026        30.8584 
 370   0.0000       1.138708        30.9858 
 371   0.0000       1.143637        31.1200 
 372   0.0000       1.150854        31.3163 
 373   0.0000       1.153231        31.3810 
 374   0.0000       1.158101        31.5135 
 375   0.0000       1.159231        31.5443 
 376   0.0000       1.162421        31.6311 
 377   0.0000       1.169723        31.8298 
 378   0.0000       1.175259        31.9804 
 379   0.0000       1.182103        32.1666 
 380   0.0000       1.184431        32.2300 
 381   0.0000       1.189506        32.3681 
 382   0.0000       1.192170        32.4406 
 383   0.0000       1.198111        32.6022 
 384   0.0000       1.202872        32.7318 
 385   0.0000       1.207410        32.8553 
 386   0.0000       1.211165        32.9575 
 387   0.0000       1.215634        33.0791 
 388   0.0000       1.222671        33.2706 
 389   0.0000       1.228223        33.4216 
 390   0.0000       1.230637        33.4873 
 391   0.0000       1.235713        33.6255 
 392   0.0000       1.238722        33.7073 
 393   0.0000       1.241318        33.7780 
 394   0.0000       1.243786        33.8451 
 395   0.0000       1.254519        34.1372 
 396   0.0000       1.261400        34.3244 
 397   0.0000       1.267391        34.4875 
 398   0.0000       1.269391        34.5419 
 399   0.0000       1.273100        34.6428 
 400   0.0000       1.278171        34.7808 
 401   0.0000       1.282790        34.9065 
 402   0.0000       1.290069        35.1046 
 403   0.0000       1.300453        35.3871 
 404   0.0000       1.304613        35.5003 
 405   0.0000       1.308096        35.5951 
 406   0.0000       1.308810        35.6145 
 407   0.0000       1.313577        35.7443 
 408   0.0000       1.317694        35.8563 
 409   0.0000       1.326686        36.1010 
 410   0.0000       1.330634        36.2084 
 411   0.0000       1.339481        36.4491 
 412   0.0000       1.344939        36.5977 
 413   0.0000       1.346562        36.6418 
 414   0.0000       1.351521        36.7768 
 415   0.0000       1.358595        36.9692 
 416   0.0000       1.363231        37.0954 
 417   0.0000       1.365335        37.1527 
 418   0.0000       1.367962        37.2241 
 419   0.0000       1.378106        37.5002 
 420   0.0000       1.384158        37.6648 
 421   0.0000       1.392169        37.8828 
 422   0.0000       1.395623        37.9768 
 423   0.0000       1.402404        38.1613 
 424   0.0000       1.410484        38.3812 
 425   0.0000       1.412221        38.4285 
 426   0.0000       1.418473        38.5986 
 427   0.0000       1.427386        38.8412 
 428   0.0000       1.431328        38.9484 
 429   0.0000       1.433950        39.0198 
 430   0.0000       1.438733        39.1499 
 431   0.0000       1.444162        39.2977 
 432   0.0000       1.450872        39.4802 
 433   0.0000       1.454428        39.5770 
 434   0.0000       1.458899        39.6987 
 435   0.0000       1.461819        39.7781 
 436   0.0000       1.470185        40.0058 
 437   0.0000       1.480111        40.2759 
 438   0.0000       1.483623        40.3714 
 439   0.0000       1.488096        40.4932 
 440   0.0000       1.489854        40.5410 
 441   0.0000       1.496514        40.7222 
 442   0.0000       1.504356        40.9356 
 443   0.0000       1.507528        41.0219 
 444   0.0000       1.514027        41.1988 
 445   0.0000       1.518702        41.3260 
 446   0.0000       1.526480        41.5376 
 447   0.0000       1.532425        41.6994 
 448   0.0000       1.533624        41.7320 
 449   0.0000       1.538596        41.8673 
 450   0.0000       1.543805        42.0091 
 451   0.0000       1.548485        42.1364 
 452   0.0000       1.553318        42.2679 
 453   0.0000       1.559358        42.4323 
 454   0.0000       1.560200        42.4552 
 455   0.0000       1.572128        42.7798 
 456   0.0000       1.578819        42.9618 
 457   0.0000       1.584118        43.1060 
 458   0.0000       1.585164        43.1345 
 459   0.0000       1.589057        43.2404 
 460   0.0000       1.595159        43.4065 
 461   0.0000       1.595784        43.4235 
 462   0.0000       1.603965        43.6461 
 463   0.0000       1.607070        43.7306 
 464   0.0000       1.614024        43.9198 
 465   0.0000       1.618555        44.0431 
 466   0.0000       1.623747        44.1844 
 467   0.0000       1.627127        44.2764 
 468   0.0000       1.639548        44.6144 
 469   0.0000       1.644409        44.7467 
 470   0.0000       1.646295        44.7980 
 471   0.0000       1.655247        45.0416 
 472   0.0000       1.661930        45.2234 
 473   0.0000       1.664027        45.2805 
 474   0.0000       1.673576        45.5403 
 475   0.0000       1.679034        45.6888 
 476   0.0000       1.682078        45.7717 
 477   0.0000       1.686337        45.8876 
 478   0.0000       1.695623        46.1403 
 479   0.0000       1.697343        46.1871 
 480   0.0000       1.706789        46.4441 
 481   0.0000       1.713340        46.6223 
 482   0.0000       1.713601        46.6294 
 483   0.0000       1.718710        46.7685 
 484   0.0000       1.722759        46.8787 
 485   0.0000       1.729948        47.0743 
 486   0.0000       1.732637        47.1475 
 487   0.0000       1.744652        47.4744 
 488   0.0000       1.744832        47.4793 
 489   0.0000       1.746047        47.5124 
 490   0.0000       1.755887        47.7801 
 491   0.0000       1.763093        47.9762 
 492   0.0000       1.764604        48.0173 
 493   0.0000       1.770787        48.1856 
 494   0.0000       1.781546        48.4783 
 495   0.0000       1.783095        48.5205 
 496   0.0000       1.786084        48.6018 
 497   0.0000       1.788571        48.6695 
 498   0.0000       1.797585        48.9148 
 499   0.0000       1.798898        48.9505 
 500   0.0000       1.801654        49.0255 
 501   0.0000       1.805836        49.1393 
 502   0.0000       1.816495        49.4294 
 503   0.0000       1.819532        49.5120 
 504   0.0000       1.824352        49.6431 
 505   0.0000       1.828749        49.7628 
 506   0.0000       1.835521        49.9471 
 507   0.0000       1.839691        50.0605 
 508   0.0000       1.849701        50.3329 
 509   0.0000       1.854250        50.4567 
 510   0.0000       1.861959        50.6665 
 511   0.0000       1.866908        50.8012 
 512   0.0000       1.872794        50.9613 
 513   0.0000       1.875310        51.0298 
 514   0.0000       1.880090        51.1598 
 515   0.0000       1.885364        51.3034 
 516   0.0000       1.886748        51.3410 
 517   0.0000       1.891691        51.4755 
 518   0.0000       1.898011        51.6475 
 519   0.0000       1.903821        51.8056 
 520   0.0000       1.910082        51.9760 
 521   0.0000       1.915677        52.1282 
 522   0.0000       1.924065        52.3565 
 523   0.0000       1.931157        52.5495 
 524   0.0000       1.933191        52.6048 
 525   0.0000       1.938757        52.7563 
 526   0.0000       1.942017        52.8450 
 527   0.0000       1.945078        52.9283 
 528   0.0000       1.955049        53.1996 
 529   0.0000       1.959950        53.3330 
 530   0.0000       1.963791        53.4375 
 531   0.0000       1.971605        53.6501 
 532   0.0000       1.983463        53.9728 
 533   0.0000       1.991107        54.1808 
 534   0.0000       1.996020        54.3145 
 535   0.0000       1.997204        54.3467 
 536   0.0000       2.005582        54.5747 
 537   0.0000       2.017285        54.8931 
 538   0.0000       2.020812        54.9891 
 539   0.0000       2.026749        55.1506 
 540   0.0000       2.029297        55.2200 
 541   0.0000       2.035740        55.3953 
 542   0.0000       2.036680        55.4209 
 543   0.0000       2.043018        55.5934 
 544   0.0000       2.054487        55.9054 
 545   0.0000       2.058995        56.0281 
 546   0.0000       2.068085        56.2755 
 547   0.0000       2.074028        56.4372 
 548   0.0000       2.082981        56.6808 
 549   0.0000       2.086776        56.7841 
 550   0.0000       2.094017        56.9811 
 551   0.0000       2.100664        57.1620 
 552   0.0000       2.103964        57.2518 
 553   0.0000       2.108760        57.3823 
 554   0.0000       2.118225        57.6398 
 555   0.0000       2.122529        57.7570 
 556   0.0000       2.130945        57.9860 
 557   0.0000       2.142715        58.3062 
 558   0.0000       2.146980        58.4223 
 559   0.0000       2.158687        58.7409 
 560   0.0000       2.162051        58.8324 
 561   0.0000       2.170088        59.0511 
 562   0.0000       2.173510        59.1442 
 563   0.0000       2.183679        59.4209 
 564   0.0000       2.187175        59.5160 
 565   0.0000       2.193833        59.6972 
 566   0.0000       2.211601        60.1807 
 567   0.0000       2.216992        60.3274 
 568   0.0000       2.222531        60.4781 
 569   0.0000       2.231279        60.7162 
 570   0.0000       2.235288        60.8253 
 571   0.0000       2.240542        60.9682 
 572   0.0000       2.253664        61.3253 
 573   0.0000       2.260004        61.4978 
 574   0.0000       2.264301        61.6148 
 575   0.0000       2.268440        61.7274 
 576   0.0000       2.275476        61.9189 
 577   0.0000       2.284238        62.1573 
 578   0.0000       2.286233        62.2116 
 579   0.0000       2.294175        62.4277 
 580   0.0000       2.298367        62.5418 
 581   0.0000       2.300746        62.6065 
 582   0.0000       2.311730        62.9054 
 583   0.0000       2.316327        63.0305 
 584   0.0000       2.328691        63.3669 
 585   0.0000       2.341775        63.7229 
 586   0.0000       2.346140        63.8417 
 587   0.0000       2.350491        63.9601 
 588   0.0000       2.363666        64.3186 
 589   0.0000       2.371782        64.5395 
 590   0.0000       2.378923        64.7338 
 591   0.0000       2.383526        64.8590 
 592   0.0000       2.393437        65.1287 
 593   0.0000       2.397945        65.2514 
 594   0.0000       2.409001        65.5523 
 595   0.0000       2.423026        65.9339 
 596   0.0000       2.432131        66.1816 
 597   0.0000       2.440805        66.4177 
 598   0.0000       2.444135        66.5083 
 599   0.0000       2.452603        66.7387 
 600   0.0000       2.460491        66.9534 
 601   0.0000       2.473795        67.3154 
 602   0.0000       2.480289        67.4921 
 603   0.0000       2.482342        67.5479 
 604   0.0000       2.487273        67.6822 
 605   0.0000       2.501056        68.0572 
 606   0.0000       2.502970        68.1093 
 607   0.0000       2.514997        68.4366 
 608   0.0000       2.537602        69.0516 
 609   0.0000       2.551268        69.4235 
 610   0.0000       2.560879        69.6851 
 611   0.0000       2.564457        69.7824 
 612   0.0000       2.577846        70.1468 
 613   0.0000       2.594510        70.6002 
 614   0.0000       2.597507        70.6818 
 615   0.0000       2.610675        71.0401 
 616   0.0000       2.614229        71.1368 
 617   0.0000       2.627831        71.5069 
 618   0.0000       2.641268        71.8726 
 619   0.0000       2.663289        72.4718 
 620   0.0000       2.665216        72.5242 
 621   0.0000       2.678170        72.8767 
 622   0.0000       2.687520        73.1311 
 623   0.0000       2.695485        73.3479 
 624   0.0000       2.699003        73.4436 
 625   0.0000       2.702661        73.5431 
 626   0.0000       2.714864        73.8752 
 627   0.0000       2.721265        74.0494 
 628   0.0000       2.730787        74.3085 
 629   0.0000       2.742257        74.6206 
 630   0.0000       2.743700        74.6599 
 631   0.0000       2.761923        75.1558 
 632   0.0000       2.767194        75.2992 
 633   0.0000       2.774908        75.5091 
 634   0.0000       2.784842        75.7794 
 635   0.0000       2.786385        75.8214 
 636   0.0000       2.793638        76.0187 
 637   0.0000       2.821796        76.7850 
 638   0.0000       2.831955        77.0614 
 639   0.0000       2.845169        77.4210 
 640   0.0000       2.857071        77.7449 
 641   0.0000       2.872609        78.1677 
 642   0.0000       2.878495        78.3278 
 643   0.0000       2.894210        78.7555 
 644   0.0000       2.906042        79.0774 
 645   0.0000       2.911625        79.2293 
 646   0.0000       2.940031        80.0023 
 647   0.0000       2.956144        80.4408 
 648   0.0000       2.961465        80.5856 
 649   0.0000       2.976596        80.9973 
 650   0.0000       2.991639        81.4066 
 651   0.0000       3.000417        81.6455 
 652   0.0000       3.020091        82.1808 
 653   0.0000       3.024637        82.3046 
 654   0.0000       3.031234        82.4841 
 655   0.0000       3.059321        83.2484 
 656   0.0000       3.061408        83.3052 
 657   0.0000       3.080818        83.8333 
 658   0.0000       3.096326        84.2553 
 659   0.0000       3.111228        84.6608 
 660   0.0000       3.119398        84.8831 
 661   0.0000       3.123793        85.0027 
 662   0.0000       3.157248        85.9131 
 663   0.0000       3.167058        86.1800 
 664   0.0000       3.179715        86.5244 
 665   0.0000       3.199028        87.0500 
 666   0.0000       3.212615        87.4197 
 667   0.0000       3.216468        87.5245 
 668   0.0000       3.225629        87.7738 
 669   0.0000       3.232755        87.9677 
 670   0.0000       3.239400        88.1486 
 671   0.0000       3.248668        88.4007 
 672   0.0000       3.262588        88.7795 
 673   0.0000       3.269531        88.9685 
 674   0.0000       3.274687        89.1088 
 675   0.0000       3.293964        89.6333 
 676   0.0000       3.296828        89.7113 
 677   0.0000       3.309950        90.0683 
 678   0.0000       3.313648        90.1689 
 679   0.0000       3.314260        90.1856 
 680   0.0000       3.329323        90.5955 
 681   0.0000       3.337870        90.8281 
 682   0.0000       3.348358        91.1134 
 683   0.0000       3.354103        91.2698 
 684   0.0000       3.365556        91.5814 
 685   0.0000       3.378950        91.9459 
 686   0.0000       3.398934        92.4897 
 687   0.0000       3.403418        92.6117 
 688   0.0000       3.411849        92.8411 
 689   0.0000       3.423336        93.1537 
 690   0.0000       3.429991        93.3348 
 691   0.0000       3.436988        93.5252 
 692   0.0000       3.441809        93.6564 
 693   0.0000       3.456046        94.0438 
 694   0.0000       3.468900        94.3936 
 695   0.0000       3.475233        94.5659 
 696   0.0000       3.485529        94.8461 
 697   0.0000       3.490763        94.9885 
 698   0.0000       3.495522        95.1180 
 699   0.0000       3.509955        95.5107 
 700   0.0000       3.512802        95.5882 
 701   0.0000       3.529328        96.0379 
 702   0.0000       3.530183        96.0612 
 703   0.0000       3.553203        96.6876 
 704   0.0000       3.559115        96.8484 
 705   0.0000       3.564089        96.9838 
 706   0.0000       3.567152        97.0671 
 707   0.0000       3.577636        97.3524 
 708   0.0000       3.585568        97.5683 
 709   0.0000       3.596346        97.8616 
 710   0.0000       3.606497        98.1378 
 711   0.0000       3.622175        98.5644 
 712   0.0000       3.627102        98.6985 
 713   0.0000       3.636626        98.9576 
 714   0.0000       3.637389        98.9784 
 715   0.0000       3.651182        99.3537 
 716   0.0000       3.655300        99.4658 
 717   0.0000       3.661720        99.6405 
 718   0.0000       3.669088        99.8410 
 719   0.0000       3.671164        99.8975 
 720   0.0000       3.690945       100.4357 
 721   0.0000       3.694734       100.5388 
 722   0.0000       3.702564       100.7519 
 723   0.0000       3.713622       101.0528 
 724   0.0000       3.718836       101.1947 
 725   0.0000       3.723672       101.3263 
 726   0.0000       3.731588       101.5417 
 727   0.0000       3.740846       101.7936 
 728   0.0000       3.753344       102.1337 
 729   0.0000       3.758155       102.2646 
 730   0.0000       3.762029       102.3700 
 731   0.0000       3.768048       102.5338 
 732   0.0000       3.770114       102.5900 
 733   0.0000       3.781527       102.9006 
 734   0.0000       3.788480       103.0898 
 735   0.0000       3.793628       103.2299 
 736   0.0000       3.798132       103.3524 
 737   0.0000       3.808565       103.6363 
 738   0.0000       3.822254       104.0088 
 739   0.0000       3.823367       104.0391 
 740   0.0000       3.834514       104.3424 
 741   0.0000       3.838640       104.4547 
 742   0.0000       3.851650       104.8087 
 743   0.0000       3.852276       104.8258 
 744   0.0000       3.855798       104.9216 
 745   0.0000       3.865014       105.1724 
 746   0.0000       3.872947       105.3882 
 747   0.0000       3.886206       105.7491 
 748   0.0000       3.895073       105.9903 
 749   0.0000       3.904302       106.2414 
 750   0.0000       3.906158       106.2920 
 751   0.0000       3.912681       106.4695 
 752   0.0000       3.924434       106.7893 
 753   0.0000       3.930374       106.9509 
 754   0.0000       3.935646       107.0944 
 755   0.0000       3.941272       107.2475 
 756   0.0000       3.944193       107.3269 
 757   0.0000       3.949064       107.4595 
 758   0.0000       3.961162       107.7887 
 759   0.0000       3.972447       108.0958 
 760   0.0000       3.978065       108.2487 
 761   0.0000       3.990394       108.5842 
 762   0.0000       3.992814       108.6500 
 763   0.0000       3.999157       108.8226 
 764   0.0000       4.009910       109.1152 
 765   0.0000       4.011865       109.1684 
 766   0.0000       4.026973       109.5795 
 767   0.0000       4.031881       109.7131 
 768   0.0000       4.039173       109.9115 
 769   0.0000       4.046763       110.1180 
 770   0.0000       4.052864       110.2840 
 771   0.0000       4.061901       110.5299 
 772   0.0000       4.064741       110.6072 
 773   0.0000       4.078752       110.9885 
 774   0.0000       4.085236       111.1649 
 775   0.0000       4.096173       111.4625 
 776   0.0000       4.098543       111.5270 
 777   0.0000       4.108950       111.8102 
 778   0.0000       4.115305       111.9831 
 779   0.0000       4.124216       112.2256 
 780   0.0000       4.129019       112.3563 
 781   0.0000       4.132341       112.4467 
 782   0.0000       4.142977       112.7361 
 783   0.0000       4.152034       112.9826 
 784   0.0000       4.164267       113.3155 
 785   0.0000       4.169392       113.4549 
 786   0.0000       4.174378       113.5906 
 787   0.0000       4.181108       113.7737 
 788   0.0000       4.194338       114.1337 
 789   0.0000       4.209764       114.5535 
 790   0.0000       4.219256       114.8118 
 791   0.0000       4.222660       114.9044 
 792   0.0000       4.229893       115.1012 
 793   0.0000       4.241195       115.4088 
 794   0.0000       4.246081       115.5417 
 795   0.0000       4.248274       115.6014 
 796   0.0000       4.261488       115.9610 
 797   0.0000       4.266584       116.0997 
 798   0.0000       4.281219       116.4979 
 799   0.0000       4.285302       116.6090 
 800   0.0000       4.289888       116.7338 
 801   0.0000       4.302466       117.0760 
 802   0.0000       4.310576       117.2967 
 803   0.0000       4.319610       117.5426 
 804   0.0000       4.328454       117.7832 
 805   0.0000       4.336047       117.9898 
 806   0.0000       4.347255       118.2948 
 807   0.0000       4.350555       118.3846 
 808   0.0000       4.362871       118.7197 
 809   0.0000       4.374429       119.0343 
 810   0.0000       4.381184       119.2181 
 811   0.0000       4.388062       119.4052 
 812   0.0000       4.404623       119.8559 
 813   0.0000       4.413062       120.0855 
 814   0.0000       4.420099       120.2770 
 815   0.0000       4.433351       120.6376 
 816   0.0000       4.439546       120.8062 
 817   0.0000       4.444262       120.9345 
 818   0.0000       4.448159       121.0406 
 819   0.0000       4.458587       121.3243 
 820   0.0000       4.465703       121.5180 
 821   0.0000       4.480615       121.9237 
 822   0.0000       4.487997       122.1246 
 823   0.0000       4.489984       122.1787 
 824   0.0000       4.502076       122.5077 
 825   0.0000       4.511062       122.7522 
 826   0.0000       4.523194       123.0824 
 827   0.0000       4.535626       123.4207 
 828   0.0000       4.551845       123.8620 
 829   0.0000       4.558170       124.0341 
 830   0.0000       4.565359       124.2297 
 831   0.0000       4.580788       124.6496 
 832   0.0000       4.587060       124.8202 
 833   0.0000       4.601899       125.2240 
 834   0.0000       4.605601       125.3248 
 835   0.0000       4.619907       125.7141 
 836   0.0000       4.627563       125.9224 
 837   0.0000       4.635856       126.1481 
 838   0.0000       4.656775       126.7173 
 839   0.0000       4.665966       126.9674 
 840   0.0000       4.676748       127.2608 
 841   0.0000       4.688132       127.5706 
 842   0.0000       4.710792       128.1872 
 843   0.0000       4.713023       128.2479 
 844   0.0000       4.726772       128.6220 
 845   0.0000       4.732698       128.7833 
 846   0.0000       4.744267       129.0981 
 847   0.0000       4.768319       129.7526 
 848   0.0000       4.771093       129.8280 
 849   0.0000       4.785186       130.2115 
 850   0.0000       4.792858       130.4203 
 851   0.0000       4.803722       130.7159 
 852   0.0000       4.813967       130.9947 
 853   0.0000       4.823951       131.2664 
 854   0.0000       4.842294       131.7655 
 855   0.0000       4.860524       132.2616 
 856   0.0000       4.864530       132.3706 
 857   0.0000       4.871609       132.5632 
 858   0.0000       4.882961       132.8721 
 859   0.0000       4.901883       133.3870 
 860   0.0000       4.907716       133.5457 
 861   0.0000       4.921164       133.9117 
 862   0.0000       4.928183       134.1027 
 863   0.0000       4.934196       134.2663 
 864   0.0000       4.950959       134.7224 
 865   0.0000       4.964942       135.1029 
 866   0.0000       4.969541       135.2281 
 867   0.0000       4.988398       135.7412 
 868   0.0000       4.996691       135.9669 
 869   0.0000       5.003944       136.1642 
 870   0.0000       5.013807       136.4326 
 871   0.0000       5.032680       136.9462 
 872   0.0000       5.039882       137.1422 
 873   0.0000       5.047489       137.3492 
 874   0.0000       5.057157       137.6122 
 875   0.0000       5.067896       137.9045 
 876   0.0000       5.081903       138.2856 
 877   0.0000       5.087154       138.4285 
 878   0.0000       5.105638       138.9315 
 879   0.0000       5.117031       139.2415 
 880   0.0000       5.130752       139.6149 
 881   0.0000       5.136020       139.7582 
 882   0.0000       5.154578       140.2632 
 883   0.0000       5.161749       140.4583 
 884   0.0000       5.184434       141.0756 
 885   0.0000       5.193333       141.3178 
 886   0.0000       5.205413       141.6465 
 887   0.0000       5.214273       141.8876 
 888   0.0000       5.237205       142.5116 
 889   0.0000       5.240330       142.5966 
 890   0.0000       5.254256       142.9756 
 891   0.0000       5.260086       143.1342 
 892   0.0000       5.266141       143.2990 
 893   0.0000       5.298568       144.1814 
 894   0.0000       5.305966       144.3827 
 895   0.0000       5.311257       144.5267 
 896   0.0000       5.321626       144.8088 
 897   0.0000       5.332990       145.1180 
 898   0.0000       5.358965       145.8248 
 899   0.0000       5.362884       145.9315 
 900   0.0000       5.391428       146.7082 
 901   0.0000       5.394547       146.7931 
 902   0.0000       5.402066       146.9977 
 903   0.0000       5.419800       147.4803 
 904   0.0000       5.426164       147.6534 
 905   0.0000       5.428893       147.7277 
 906   0.0000       5.434773       147.8877 
 907   0.0000       5.462707       148.6478 
 908   0.0000       5.466205       148.7430 
 909   0.0000       5.479266       149.0984 
 910   0.0000       5.481744       149.1658 
 911   0.0000       5.506351       149.8354 
 912   0.0000       5.517059       150.1268 
 913   0.0000       5.543900       150.8572 
 914   0.0000       5.548532       150.9832 
 915   0.0000       5.565743       151.4516 
 916   0.0000       5.580232       151.8458 
 917   0.0000       5.580888       151.8637 
 918   0.0000       5.585236       151.9820 
 919   0.0000       5.619121       152.9041 
 920   0.0000       5.620048       152.9293 
 921   0.0000       5.634093       153.3115 
 922   0.0000       5.638969       153.4441 
 923   0.0000       5.645857       153.6316 
 924   0.0000       5.662335       154.0800 
 925   0.0000       5.670112       154.2916 
 926   0.0000       5.680698       154.5796 
 927   0.0000       5.689966       154.8319 
 928   0.0000       5.700908       155.1296 
 929   0.0000       5.722563       155.7189 
 930   0.0000       5.727971       155.8660 
 931   0.0000       5.743426       156.2866 
 932   0.0000       5.754221       156.5803 
 933   0.0000       5.758491       156.6965 
 934   0.0000       5.776457       157.1854 
 935   0.0000       5.786851       157.4682 
 936   0.0000       5.797580       157.7602 
 937   0.0000       5.822959       158.4508 
 938   0.0000       5.830763       158.6631 
 939   0.0000       5.850924       159.2117 
 940   0.0000       5.864205       159.5731 
 941   0.0000       5.884935       160.1372 
 942   0.0000       5.905776       160.7043 
 943   0.0000       5.929240       161.3428 
 944   0.0000       5.978898       162.6941 
 945   0.0000       5.982341       162.7878 
 946   0.0000       6.046598       164.5363 
 947   0.0000       6.110165       166.2660 
 948   0.0000       6.120206       166.5393 
 949   0.0000       6.138341       167.0327 
 950   0.0000       6.167632       167.8298 
 951   0.0000       6.184356       168.2849 
 952   0.0000       6.199805       168.7053 
 953   0.0000       6.209727       168.9752 
 954   0.0000       6.234205       169.6413 
 955   0.0000       6.239651       169.7895 
 956   0.0000       6.266234       170.5129 
 957   0.0000       6.272872       170.6935 
 958   0.0000       6.276176       170.7834 
 959   0.0000       6.308848       171.6725 
 960   0.0000       6.318500       171.9351 
 961   0.0000       6.325241       172.1186 
 962   0.0000       6.355315       172.9369 
 963   0.0000       6.361454       173.1040 
 964   0.0000       6.378851       173.5774 
 965   0.0000       6.413009       174.5069 
 966   0.0000       6.430973       174.9957 
 967   0.0000       6.446696       175.4235 
 968   0.0000       6.520921       177.4433 
 969   0.0000       6.537662       177.8988 
 970   0.0000       6.618372       180.0951 
 971   0.0000       6.699436       182.3009 
 972   0.0000       6.849975       186.3973 
 973   0.0000       6.873038       187.0249 
 974   0.0000       6.879748       187.2075 
 975   0.0000       6.911186       188.0629 
 976   0.0000       6.950854       189.1424 
 977   0.0000       6.974018       189.7727 
 978   0.0000       6.996454       190.3832 
 979   0.0000       7.007550       190.6851 
 980   0.0000       7.009345       190.7340 
 981   0.0000       7.036909       191.4840 
 982   0.0000       7.065142       192.2523 
 983   0.0000       7.104537       193.3243 
 984   0.0000       7.162888       194.9121 
 985   0.0000       7.260913       197.5795 
 986   0.0000       7.397598       201.2989 
 987   0.0000       7.442885       202.5312 
 988   0.0000       7.506096       204.2512 
 989   0.0000       7.561949       205.7711 
 990   0.0000       7.573707       206.0910 
 991   0.0000       7.610803       207.1005 
 992   0.0000       7.683073       209.0670 
 993   0.0000       7.747803       210.8284 
 994   0.0000       7.854534       213.7327 
 995   0.0000       7.924250       215.6298 
 996   0.0000       8.063367       219.4154 
 997   0.0000       8.124111       221.0683 
 998   0.0000       8.290581       225.5982 
 999   0.0000       9.420846       256.3542 
 1000   0.0000       9.450978       257.1742 
 1001   0.0000       9.455393       257.2943 
 1002   0.0000       9.460944       257.4454 
 1003   0.0000       9.477482       257.8954 
 1004   0.0000       9.500345       258.5175 
 1005   0.0000       9.721290       264.5298 
 1006   0.0000      10.086758       274.4746 
 1007   0.0000      10.124189       275.4932 
 1008   0.0000      10.132477       275.7187 
 1009   0.0000      10.211331       277.8645 
 1010   0.0000      10.219508       278.0869 
 1011   0.0000      10.260656       279.2066 
 1012   0.0000      10.365669       282.0642 
 1013   0.0000      10.415674       283.4249 
 1014   0.0000      10.522037       286.3192 
 1015   0.0000      17.332383       471.6381 
 1016   0.0000      18.079212       491.9604 
 1017   0.0000      18.341595       499.1002 
 1018   0.0000      18.669597       508.0256 
 1019   0.0000      18.862644       513.2786 
 1020   0.0000      19.137317       520.7529 
 1021   0.0000      19.894658       541.3612 
 1022   0.0000      20.512304       558.1682 
 1023   0.0000      21.586766       587.4058 
 1024   0.0000      21.931295       596.7809 

                 SPIN DOWN ORBITALS
  NO   OCC          E(Eh)            E(eV) 
   0   1.0000    -261.559877     -7117.4061 
   1   1.0000    -104.782887     -2851.2873 
   2   1.0000    -104.782690     -2851.2820 
   3   1.0000    -104.781822     -2851.2583 
   4   1.0000     -32.069255      -872.6488 
   5   1.0000     -27.547193      -749.5972 
   6   1.0000     -27.547144      -749.5959 
   7   1.0000     -27.546859      -749.5881 
   8   1.0000     -20.574060      -559.8486 
   9   1.0000     -11.416085      -310.6475 
  10   1.0000     -11.315623      -307.9138 
  11   1.0000     -11.269010      -306.6453 
  12   1.0000     -11.265346      -306.5456 
  13   1.0000     -11.258839      -306.3686 
  14   1.0000     -11.253258      -306.2167 
  15   1.0000     -11.250704      -306.1472 
  16   1.0000     -11.247948      -306.0722 
  17   1.0000     -10.509364      -285.9743 
  18   1.0000     -10.509215      -285.9703 
  19   1.0000     -10.508277      -285.9447 
  20   1.0000      -7.975263      -217.0179 
  21   1.0000      -7.975118      -217.0140 
  22   1.0000      -7.974627      -217.0006 
  23   1.0000      -7.974532      -216.9980 
  24   1.0000      -7.974477      -216.9966 
  25   1.0000      -7.974403      -216.9945 
  26   1.0000      -7.974267      -216.9908 
  27   1.0000      -7.973484      -216.9695 
  28   1.0000      -7.973394      -216.9671 
  29   1.0000      -4.144358      -112.7737 
  30   1.0000      -2.666028       -72.5463 
  31   1.0000      -2.665895       -72.5427 
  32   1.0000      -2.665593       -72.5345 
  33   1.0000      -1.424388       -38.7596 
  34   1.0000      -1.149981       -31.2926 
  35   1.0000      -1.093157       -29.7463 
  36   1.0000      -1.042357       -28.3640 
  37   1.0000      -1.030815       -28.0499 
  38   1.0000      -1.030377       -28.0380 
  39   1.0000      -1.029533       -28.0150 
  40   1.0000      -1.004621       -27.3371 
  41   1.0000      -0.976480       -26.5714 
  42   1.0000      -0.915579       -24.9142 
  43   1.0000      -0.812448       -22.1078 
  44   1.0000      -0.748237       -20.3606 
  45   1.0000      -0.702362       -19.1122 
  46   1.0000      -0.697724       -18.9860 
  47   1.0000      -0.685507       -18.6536 
  48   1.0000      -0.666261       -18.1299 
  49   1.0000      -0.635249       -17.2860 
  50   1.0000      -0.619605       -16.8603 
  51   1.0000      -0.601616       -16.3708 
  52   1.0000      -0.598283       -16.2801 
  53   1.0000      -0.581783       -15.8311 
  54   1.0000      -0.576136       -15.6775 
  55   1.0000      -0.570510       -15.5244 
  56   1.0000      -0.567379       -15.4392 
  57   1.0000      -0.548057       -14.9134 
  58   1.0000      -0.544240       -14.8095 
  59   1.0000      -0.541101       -14.7241 
  60   1.0000      -0.514307       -13.9950 
  61   1.0000      -0.512665       -13.9503 
  62   1.0000      -0.488083       -13.2814 
  63   1.0000      -0.476018       -12.9531 
  64   1.0000      -0.473543       -12.8857 
  65   1.0000      -0.446117       -12.1395 
  66   1.0000      -0.443630       -12.0718 
  67   1.0000      -0.441177       -12.0050 
  68   1.0000      -0.427731       -11.6392 
  69   1.0000      -0.421425       -11.4675 
  70   1.0000      -0.407805       -11.0969 
  71   1.0000      -0.363251        -9.8846 
  72   0.0000       0.011933         0.3247 
  73   0.0000       0.022513         0.6126 
  74   0.0000       0.023444         0.6379 
  75   0.0000       0.030429         0.8280 
  76   0.0000       0.039199         1.0667 
  77   0.0000       0.040584         1.1043 
  78   0.0000       0.042390         1.1535 
  79   0.0000       0.043260         1.1772 
  80   0.0000       0.044113         1.2004 
  81   0.0000       0.055364         1.5065 
  82   0.0000       0.056576         1.5395 
  83   0.0000       0.059832         1.6281 
  84   0.0000       0.064231         1.7478 
  85   0.0000       0.065945         1.7945 
  86   0.0000       0.068901         1.8749 
  87   0.0000       0.071999         1.9592 
  88   0.0000       0.075425         2.0524 
  89   0.0000       0.081239         2.2106 
  90   0.0000       0.088625         2.4116 
  91   0.0000       0.090305         2.4573 
  92   0.0000       0.092085         2.5058 
  93   0.0000       0.099354         2.7036 
  94   0.0000       0.100703         2.7403 
  95   0.0000       0.103256         2.8097 
  96   0.0000       0.107807         2.9336 
  97   0.0000       0.113374         3.0851 
  98   0.0000       0.114196         3.1074 
  99   0.0000       0.115700         3.1483 
 100   0.0000       0.116749         3.1769 
 101   0.0000       0.118422         3.2224 
 102   0.0000       0.120270         3.2727 
 103   0.0000       0.122973         3.3463 
 104   0.0000       0.125337         3.4106 
 105   0.0000       0.127095         3.4584 
 106   0.0000       0.129829         3.5328 
 107   0.0000       0.130716         3.5570 
 108   0.0000       0.132432         3.6037 
 109   0.0000       0.134871         3.6700 
 110   0.0000       0.136581         3.7165 
 111   0.0000       0.140378         3.8199 
 112   0.0000       0.145497         3.9592 
 113   0.0000       0.148116         4.0304 
 114   0.0000       0.150380         4.0920 
 115   0.0000       0.154698         4.2096 
 116   0.0000       0.157461         4.2847 
 117   0.0000       0.161342         4.3904 
 118   0.0000       0.163592         4.4516 
 119   0.0000       0.168070         4.5734 
 120   0.0000       0.170553         4.6410 
 121   0.0000       0.173572         4.7231 
 122   0.0000       0.178359         4.8534 
 123   0.0000       0.179324         4.8797 
 124   0.0000       0.183650         4.9974 
 125   0.0000       0.185167         5.0386 
 126   0.0000       0.189835         5.1657 
 127   0.0000       0.194307         5.2874 
 128   0.0000       0.195709         5.3255 
 129   0.0000       0.200750         5.4627 
 130   0.0000       0.202418         5.5081 
 131   0.0000       0.208920         5.6850 
 132   0.0000       0.209304         5.6955 
 133   0.0000       0.212979         5.7954 
 134   0.0000       0.213694         5.8149 
 135   0.0000       0.215714         5.8699 
 136   0.0000       0.226076         6.1518 
 137   0.0000       0.227022         6.1776 
 138   0.0000       0.232499         6.3266 
 139   0.0000       0.233321         6.3490 
 140   0.0000       0.237086         6.4514 
 141   0.0000       0.238617         6.4931 
 142   0.0000       0.242081         6.5874 
 143   0.0000       0.245407         6.6779 
 144   0.0000       0.250072         6.8048 
 145   0.0000       0.255112         6.9420 
 146   0.0000       0.257423         7.0048 
 147   0.0000       0.260722         7.0946 
 148   0.0000       0.261832         7.1248 
 149   0.0000       0.267671         7.2837 
 150   0.0000       0.271042         7.3754 
 151   0.0000       0.279435         7.6038 
 152   0.0000       0.281162         7.6508 
 153   0.0000       0.286053         7.7839 
 154   0.0000       0.287958         7.8357 
 155   0.0000       0.292935         7.9712 
 156   0.0000       0.299232         8.1425 
 157   0.0000       0.303618         8.2619 
 158   0.0000       0.304771         8.2932 
 159   0.0000       0.308332         8.3901 
 160   0.0000       0.311926         8.4879 
 161   0.0000       0.314623         8.5613 
 162   0.0000       0.320028         8.7084 
 163   0.0000       0.325273         8.8511 
 164   0.0000       0.331311         9.0154 
 165   0.0000       0.334463         9.1012 
 166   0.0000       0.336273         9.1505 
 167   0.0000       0.339985         9.2515 
 168   0.0000       0.343021         9.3341 
 169   0.0000       0.345216         9.3938 
 170   0.0000       0.355926         9.6852 
 171   0.0000       0.359890         9.7931 
 172   0.0000       0.361517         9.8374 
 173   0.0000       0.364969         9.9313 
 174   0.0000       0.366040         9.9605 
 175   0.0000       0.369654        10.0588 
 176   0.0000       0.370758        10.0888 
 177   0.0000       0.375442        10.2163 
 178   0.0000       0.379404        10.3241 
 179   0.0000       0.380576        10.3560 
 180   0.0000       0.387299        10.5389 
 181   0.0000       0.389361        10.5951 
 182   0.0000       0.392087        10.6692 
 183   0.0000       0.393185        10.6991 
 184   0.0000       0.395149        10.7525 
 185   0.0000       0.400922        10.9096 
 186   0.0000       0.402363        10.9489 
 187   0.0000       0.403804        10.9881 
 188   0.0000       0.411750        11.2043 
 189   0.0000       0.413474        11.2512 
 190   0.0000       0.416305        11.3282 
 191   0.0000       0.419571        11.4171 
 192   0.0000       0.424493        11.5510 
 193   0.0000       0.425631        11.5820 
 194   0.0000       0.430873        11.7247 
 195   0.0000       0.435700        11.8560 
 196   0.0000       0.439055        11.9473 
 197   0.0000       0.450094        12.2477 
 198   0.0000       0.451654        12.2901 
 199   0.0000       0.452218        12.3055 
 200   0.0000       0.456079        12.4105 
 201   0.0000       0.462599        12.5880 
 202   0.0000       0.463503        12.6126 
 203   0.0000       0.469156        12.7664 
 204   0.0000       0.471119        12.8198 
 205   0.0000       0.474019        12.8987 
 206   0.0000       0.476891        12.9769 
 207   0.0000       0.479625        13.0513 
 208   0.0000       0.481793        13.1103 
 209   0.0000       0.484189        13.1755 
 210   0.0000       0.485440        13.2095 
 211   0.0000       0.490494        13.3470 
 212   0.0000       0.494067        13.4442 
 213   0.0000       0.501560        13.6482 
 214   0.0000       0.503601        13.7037 
 215   0.0000       0.505389        13.7523 
 216   0.0000       0.507448        13.8084 
 217   0.0000       0.510814        13.9000 
 218   0.0000       0.514690        14.0054 
 219   0.0000       0.516385        14.0516 
 220   0.0000       0.518860        14.1189 
 221   0.0000       0.521958        14.2032 
 222   0.0000       0.526121        14.3165 
 223   0.0000       0.527686        14.3591 
 224   0.0000       0.532802        14.4983 
 225   0.0000       0.537365        14.6224 
 226   0.0000       0.539400        14.6778 
 227   0.0000       0.543711        14.7951 
 228   0.0000       0.546474        14.8703 
 229   0.0000       0.548428        14.9235 
 230   0.0000       0.555009        15.1026 
 231   0.0000       0.558399        15.1948 
 232   0.0000       0.562217        15.2987 
 233   0.0000       0.563730        15.3399 
 234   0.0000       0.569956        15.5093 
 235   0.0000       0.570897        15.5349 
 236   0.0000       0.571714        15.5571 
 237   0.0000       0.578006        15.7283 
 238   0.0000       0.578943        15.7539 
 239   0.0000       0.581366        15.8198 
 240   0.0000       0.588078        16.0024 
 241   0.0000       0.599526        16.3139 
 242   0.0000       0.603348        16.4179 
 243   0.0000       0.604732        16.4556 
 244   0.0000       0.607133        16.5209 
 245   0.0000       0.613086        16.6829 
 246   0.0000       0.616642        16.7797 
 247   0.0000       0.619063        16.8456 
 248   0.0000       0.625578        17.0228 
 249   0.0000       0.626824        17.0568 
 250   0.0000       0.631666        17.1885 
 251   0.0000       0.634346        17.2614 
 252   0.0000       0.636230        17.3127 
 253   0.0000       0.640401        17.4262 
 254   0.0000       0.641405        17.4535 
 255   0.0000       0.646496        17.5921 
 256   0.0000       0.649433        17.6720 
 257   0.0000       0.652281        17.7495 
 258   0.0000       0.657780        17.8991 
 259   0.0000       0.662642        18.0314 
 260   0.0000       0.666673        18.1411 
 261   0.0000       0.670854        18.2549 
 262   0.0000       0.674823        18.3629 
 263   0.0000       0.677811        18.4442 
 264   0.0000       0.678929        18.4746 
 265   0.0000       0.684955        18.6386 
 266   0.0000       0.692299        18.8384 
 267   0.0000       0.696280        18.9467 
 268   0.0000       0.701420        19.0866 
 269   0.0000       0.708383        19.2761 
 270   0.0000       0.709903        19.3174 
 271   0.0000       0.717499        19.5241 
 272   0.0000       0.722108        19.6496 
 273   0.0000       0.723954        19.6998 
 274   0.0000       0.729270        19.8444 
 275   0.0000       0.732226        19.9249 
 276   0.0000       0.737708        20.0740 
 277   0.0000       0.742981        20.2175 
 278   0.0000       0.747084        20.3292 
 279   0.0000       0.752557        20.4781 
 280   0.0000       0.759593        20.6696 
 281   0.0000       0.761806        20.7298 
 282   0.0000       0.765761        20.8374 
 283   0.0000       0.777898        21.1677 
[...]
  | sigma^2 in % of trace(Dip) retained ...   1.86e+01
  | sigma^2 in % of trace(Dpq) retained ...   1.45e-01
  | Av. % of trace(Di) retained         ...  99.998495455885
  | Av. % of trace(Dp) retained         ...  99.999999075405
  | sigma^2 in % of trace(Di) retained  ...   7.92e-07
  | sigma^2 in % of trace(Dp) retained  ...   5.30e-13
 Distributions of % trace(Dij) recovered:
  |       >= 99.9  ...   105 ( 20.3 % of all IJ-pairs)
  |   [80.0, 90.0) ...    33 (  6.4 % of all IJ-pairs)
  |   [90.0, 99.0) ...   286 ( 55.2 % of all IJ-pairs)
  |   [99.0, 99.9) ...    94 ( 18.1 % of all IJ-pairs)
 Distributions of % trace(Dip) recovered:
  |   [70.0, 80.0) ...     2 (  1.7 % of all IP-pairs)
  |   [80.0, 90.0) ...    11 (  9.3 % of all IP-pairs)
  |   [90.0, 99.0) ...    63 ( 53.4 % of all IP-pairs)
  |   [99.0, 99.9) ...    42 ( 35.6 % of all IP-pairs)
 Distributions of % trace(Dpq) recovered:
  |       >= 99.9  ...     5 ( 33.3 % of all PQ-pairs)
  |   [99.0, 99.9) ...    10 ( 66.7 % of all PQ-pairs)
 Distributions of % trace(Di) recovered :
  |       >= 99.9  ...    43 (100.0 % of all I-pairs )
 Distributions of % trace(Dp) recovered :
  |       >= 99.9  ...     5 (100.0 % of all P-pairs )

                       ===========================
                       1136 OF 1728 PAIRS ARE KEPT
                       ===========================

 Initial PAO correlation energy (all pairs)    ...  -2.6953618344 Eh
 Energy constituents in PAO basis (Eh):
  | Vijab(+0) ...  -2.2659288204
  | Viab (-1) ...  -0.1753421942
  | Vab  (-2) ...  -0.0573558038
  | Va   (-1) ...  -0.0000439715
  | Vija (+1) ...  -0.0725555598
  | Vij  (+2) ...  -0.0155283588
  | Via  (+0) ...  -0.1084456859
  | Vi   (+1) ...  -0.0001614401
 Initial PNO correlation energy                ...  -2.6604391678 Eh
 Energy constituents in PNO basis (Eh):
  | Vijab(+0) ...  -2.2473221290 (err=  0.0186066914)
  | Viab (-1) ...  -0.1607831934 (err=  0.0145590008)
  | Vab  (-2) ...  -0.0568816062 (err=  0.0004741975)
  | Va   (-1) ...  -0.0000254197 (err=  0.0000185519)
  | Vija (+1) ...  -0.0714782093 (err=  0.0010773504)
  | Vij  (+2) ...  -0.0154645168 (err=  0.0000638421)
  | Via  (+0) ...  -0.1083232602 (err=  0.0001224257)
  | Vi   (+1) ...  -0.0001608333 (err=  0.0000006067)
 Sum of total truncation errors ...   0.0349226666 Eh
  | Pair screening ...   0.0115850011 Eh
  | PNO truncation ...   0.0233376655 Eh

 UMP2 correlation energy (PAO) ...  -2.6903705290
  | alpha-alpha ...  -0.3870600167 (NP_aa=  939)
  | alpha-beta  ...  -1.9958127326 (NP_ab= 1703)
  | beta -beta  ...  -0.3074977797 (NP_bb=  731)
 UMP2 correlation energy (PNO) ...  -2.6550658471
  | alpha-alpha ...  -0.3748424782 (err=  0.0122175385, NP_aa=  603)
  | alpha-beta  ...  -1.9768095519 (err=  0.0190031807, NP_ab= 1111)
  | beta -beta  ...  -0.3034138169 (err=  0.0040839628, NP_bb=  475)
 Sum of total UMP2 truncation errors ...   0.0353046819 Eh
  | Pair screening ...   0.0115973140 Eh
  | PNO truncation ...   0.0237073679 Eh
 Timing for NEV-PNO construction (sec.)
  | Intermediate construction  ..           55.600
  | Amplitude construction     ..           74.847
  | Total time                 ..          130.446
 Making pair pair interaction lists ...      ok
 Total size for 2-ext PNO integrals ...     11.1 MB
Checking the number of SOMO/SOMO doubles PNOs ... 
 #Truncate: (72, 72)[175] -> [84] .. 
 #Truncate: (73, 73)[176] -> [84] .. 
 #Truncate: (74, 74)[177] -> [84] .. 
 #Truncate: (75, 75)[176] -> [84] .. 
 #Truncate: (76, 76)[178] -> [84] .. 

--------------------------------
LOCAL RI TRANSFORMATION (VABPAO)
--------------------------------

Number of PAOs:    1030
Basis functions:   1025 (343 shells)
Aux. functions:    2424 (644 shells)

Processing maps (0.0 sec)
Average map sizes:
   Aux shells -> PAOs           1030.0
   PAOs       -> AO shells       343.0

Calculating integrals (186.5 sec, 37370.165 MB)
Finished
-----------------------------
LOCAL RI TRANSFORMATION (IJV)
-----------------------------

Orbital window:      29 to 76
Basis functions:   1025 (343 shells)
Aux. functions:    2424 (644 shells)

Processing maps (0.0 sec)
Average map sizes:
   Aux shells -> MOs(i)           46.5
   Aux shells -> MOs(j)           48.0
   MOs        -> AO shells       340.4

Calculating integrals (22.5 sec, 41.421 MB)
Sorting integrals (0.3 sec, 41.394 MB)
Total time for the integral transformation: 22.8 sec


-------------------------------------
Pair Pair Term precalculation with     
RI-(ij|mn) and (im|jn) transformation  
ON THE FLY                             
-------------------------------------

   IBatch   1 (of   2)              ... done ( 1073.736 sec)
   IBatch   2 (of   2)              ... done ( 1158.210 sec)
Total EXT                           ...        2231.946 sec

---------------------
RI-PNO TRANSFORMATION
---------------------

Total Number of PNOs                   ... 35047
Total Number of IJ-PNOs                ... 30871
Total Number of IP-PNOs                ...  3232
Total Number of PQ-PNOs                ...   944
Total Number of IJ-pairs               ...   993
Total Number of PI-pairs               ...   118
Total Number of PQ-pairs               ...    25
Average number of PNOs per pair        ...    30
Maximal number of PNOs per pair        ...    84
>> Statistics for ij-pairs..
   #pairs with  1 -  5 PNOs   :    0
   #pairs with  6 - 10 PNOs   :    0
   #pairs with 11 - 15 PNOs   :   64
   #pairs with 16 - 20 PNOs   :  262
   #pairs with 21 - 25 PNOs   :  162
   #pairs with 26 - 30 PNOs   :  138
   #pairs with 31 - 35 PNOs   :   72
   #pairs with 36 - 40 PNOs   :   46
   #pairs with 41 - 45 PNOs   :   54
   #pairs with 46 - 50 PNOs   :   24
   #pairs with 51 - 55 PNOs   :   37
   #pairs with 56 - 60 PNOs   :   55
   #pairs with 61 - 65 PNOs   :   74
   #pairs with 66 - 70 PNOs   :    2
   #pairs with 76 - 80 PNOs   :    1
   #pairs with 81 - 85 PNOs   :    2
>> Statistics for ip-pairs..
   #pairs with  1 -  5 PNOs   :    0
   #pairs with  6 - 10 PNOs   :    2
   #pairs with 11 - 15 PNOs   :   14
   #pairs with 16 - 20 PNOs   :    5
   #pairs with 21 - 25 PNOs   :   25
   #pairs with 26 - 30 PNOs   :   14
   #pairs with 31 - 35 PNOs   :   45
   #pairs with 36 - 40 PNOs   :   12
   #pairs with 41 - 45 PNOs   :    1
   #pairs with 46 - 50 PNOs   :    0
>> Statistics for pq-pairs..
   #pairs with  1 -  5 PNOs   :    0
   #pairs with  6 - 10 PNOs   :    0
   #pairs with 11 - 15 PNOs   :    0
   #pairs with 16 - 20 PNOs   :    0
   #pairs with 21 - 25 PNOs   :   12
   #pairs with 26 - 30 PNOs   :    8
   #pairs with 31 - 35 PNOs   :    0
   #pairs with 36 - 40 PNOs   :    0
   #pairs with 41 - 45 PNOs   :    0
   #pairs with 46 - 50 PNOs   :    0
   #pairs with 81 - 85 PNOs   :    5

Generation of (ij|ab)[P] integrals            ... on
Generation of (ia|bc)[P],(ja|bc)[P] integrals ... on
Storage of 3 and 4 external integrals         ... on
Generation of ALL (ka|bc)[P] integrals        ... on
Keep RI integrals in memory                   ... off

Ibatch:  1 (of  1)
Starting 2-4 index PNO integral generation ... done

Timings:
Total PNO integral transformation time     ...       2139.387 sec
Size of the 3-external file                ...       288 MB
Size of the 4-external file                ...      1945 MB
Size of the IKJL file                      ...        19 MB
Size of the all 3-external file            ...      6916 MB
Size of the 1-external file                ...        22 MB

Size of the PAO/PNO coefficient matrices   ...     231.0 MB

Making pair/pair overlap matrices          ... done (  329.608 sec)
Size of the pair overlap file              ...    2505.0 MB
Total # unrestricted pairs ...       2189
  # of alpha-alpha pairs   ...        603
  # of alpha-beta pairs    ...       1111
  # of beta-beta pairs     ...        475
Constructing the guess amplitudes          ... done (    0.580 sec)

-------------------------
FINAL STARTUP INFORMATION
-------------------------

E(0)                                       ...  -3028.420764886
E(SL-UMP2 in NEV-PNO space)                ...     -2.691275774
Initial E(tot)                             ...  -3031.112040660
<T|T>                                      ...      0.535014685
Number of unrestricted pairs included      ... 2189
Total number of pairs                      ... 4095
----------------------------------------------------------
                     OPEN-SHELL COUPLED CLUSTER ITERATIONS
----------------------------------------------------------

Number of PNO amplitudes to be optimized        ...          2140763
Number of canonical amplitudes for strong pairs ...       1977130554
Untruncated number of canonical amplitudes      ...       3698645738

Iter       E(tot)           E(Corr)          Delta-E          Residual     Time
  0  -3031.119269376     -2.662294563      0.028981211      0.021139439 1748.63
                           *** Turning on DIIS ***
  1  -3031.231367568     -2.774392755     -0.112098192      0.009669473 1742.32
  2  -3031.295789129     -2.838814317     -0.064421562      0.008417898 1749.35
  3  -3031.317060070     -2.860085258     -0.021270941      0.003030677 1722.15
  4  -3031.324280652     -2.867305839     -0.007220582      0.002692737 1755.65
  5  -3031.328117972     -2.871143159     -0.003837320      0.001646979 1814.15
  6  -3031.329508100     -2.872533287     -0.001390128      0.000827491 1864.04
  7  -3031.330237772     -2.873262960     -0.000729672      0.000498602 1832.11
  8  -3031.330398618     -2.873423805     -0.000160846      0.000212648 1946.64
  9  -3031.330451845     -2.873477032     -0.000053227      0.000127268 2144.33
 10  -3031.330445955     -2.873471143      0.000005890      0.000078295 2179.76
 11  -3031.330457001     -2.873482189     -0.000011046      0.000056179 2142.72
 12  -3031.330462876     -2.873488063     -0.000005875      0.000030613 2137.87
 13  -3031.330465500     -2.873490688     -0.000002625      0.000014634 2165.04
 14  -3031.330466878     -2.873492065     -0.000001378      0.000007387 2152.23
               --- The CCSD iterations have converged ---

E(0)                                       ...  -3028.420764886
E(CORR)(strong-pairs)                      ...     -2.873492065
E(CORR)(weak-pairs)                        ...     -0.036209927
E(CORR)(corrected)                         ...     -2.909701992
E(TOT)                                     ...  -3031.330466878
Singles norm <S|S>**1/2                    ...      0.191815820 ( 0.064306789, 0.127509031)  
T1 diagnostic                              ...      0.020107762                              
<S**2>(linearized)                         ...      8.7508202 (ideal value:      8.7500000)

----------------------
LARGEST PNO AMPLITUDES
----------------------
  70a-> 78a  70b-> 78b       0.062646
  50b-> 76b  -1b-> -1b       0.055631
  51b-> 76b  -1b-> -1b       0.050399
  48b-> 72b  -1b-> -1b       0.049652
  70a-> 77a  70b-> 77b       0.048166
  48b-> 75b  -1b-> -1b       0.046707
  48b-> 74b  -1b-> -1b       0.046038
  65a-> 77a  65b-> 77b       0.045296
  54a-> 77a  54b-> 77b       0.045081
  55a-> 77a  55b-> 77b       0.044292
  69a-> 77a  69b-> 77b       0.043842
  38b-> 73b  -1b-> -1b       0.043603
  63a-> 77a  63b-> 77b       0.043125
  61a-> 77a  61b-> 77b       0.043100
  51b-> 73b  -1b-> -1b       0.042897
  59a-> 77a  59b-> 77b       0.042460

Total # unrestricted pairs ...       1184
  # of alpha-alpha pairs   ...        336
  # of alpha-beta pairs    ...        592
  # of beta-beta pairs     ...        256

-------------------------------------------
DLPNO BASED TRIPLES CORRECTION
-------------------------------------------

Singles multiplier          ...  1.000000
Fragment selection                          .... not used
TCutTNO                     ... 1.000e-09
TCutMP2Pairs                ... 1.000e-05
TCutDOStrong                ... 2.000e-02
TCutMKNStrong               ... 1.000e-02
TCutDOWeak                  ... 4.000e-02
TCutMKNWeak                 ... 1.000e-01
NTCutTNO                    ... 1

Number of Triples that are to be computed         ...     36276

 . . . . . . . . .
10% done  
20% done  
30% done  
40% done  
50% done  
60% done  
70% done  
80% done  
90% done  
          Batch   1   done (  18381.066 sec)

Triples-Correction TCutTNO=   1.000e-09 (NWeakPairs = 0  1  2  3)  -0.117804207454   -0.002024818713    0.000000000000    0.000000000000
Triples-Correction  -0.119829026167

Triples timings:
Total time                      ... 19146.917 sec

Triples List generation         ...     0.000 sec
TNO generation                  ...   765.593 sec
Pair density generation         ...     0.100 sec
Look up tables                  ...     0.123 sec
Generating 3-index integrals    ... 11774.709 sec
Make 4-ind.int. from 3-ind.int  ...     3.809 sec
Projecting amplitudes (D + S)   ...  6327.550 sec
Sorting integrals for spin cases...    57.500 sec
Calculate W0/W1                 ...   175.072 sec
Energy contr. (sum over a,b,c)  ...    42.266 sec

Everything after 3-index        ...  6745.560 sec

Energy contribution AAA         ...    27.269 sec
Energy contribution AAB         ...   121.882 sec
Energy contribution ABB         ...   110.813 sec
Energy contribution BBB         ...    14.923 sec
prep                ...     3.384 sec
makeTTNO            ...  6264.498 sec
copyij              ...     0.138 sec
copyil              ...     4.460 sec
transposeij         ...     0.081 sec
newMatInDoubleProj  ...    59.166 sec
BlasInDoubleProj    ...  3373.987 sec
ProjSingles         ...    52.093 sec
ProjDoubles         ...  6275.456 sec
overall Doubles for projection      ... 3340227
used Doubles for projection         ... 3340227


Number of Triples   (0, 1, 2, 3 weak pairs; overall):  17295   12803       0       0  ( 30098)
Number of Atoms     (0, 1, 2, 3 weak pairs; overall):   20.2    14.9     0.0     0.0  (    29)
Number of PAOs      (0, 1, 2, 3 weak pairs; overall):  777.4   601.9     0.0     0.0  (  1025)
Number of AuxFcns   (0, 1, 2, 3 weak pairs; overall):  912.1   576.1     0.0     0.0  (  2424)
Number of TNOs (0, 1, 2, 3 weak pairs         ):   78.8    55.9     0.0     0.0
Aver. Number of NTNO, Atoms, PAOs, AuxFcns / Triples:  30098    69.1    17.9   702.8   769.2

Triples Correction (T)                     ...     -0.119829026
    alpha-alpha-alpha ... -0.003920023 (  3.3%)
    alpha-alpha-beta  ... -0.056220995 ( 46.9%)
    alpha-beta -beta  ... -0.055527226 ( 46.3%)
    beta -beta -beta  ... -0.004160781 (  3.5%)
Final correlation energy                   ...     -3.029531018
E(CCSD)                                    ...  -3031.330466878
E(CCSD(T))                                 ...  -3031.450295904

----------------------------
STATISTICS FOR PAIR-ENERGIES
----------------------------
Minimum, maximum and average ratios of UMP and CCSD pair-energies ... 0.38, 1.44, 1.02


------------------------------------------------------------------------------- 
                                     TIMINGS                                   
------------------------------------------------------------------------------- 


Total execution time                   ...    56536.324 sec

Localization of occupied MO's          ...       11.262 sec (  0.0%)
Fock Matrix Formation                  ...     1402.467 sec (  2.5%)
Differential overlap integrals         ...        1.379 sec (  0.0%)
Organizing maps                        ...        1.704 sec (  0.0%)
RI 3-index integral generations        ...      270.767 sec (  0.5%)
RI-PNO integral transformation         ...     4993.516 sec (  8.8%)
Initial Guess                          ...     1902.820 sec (  3.4%)
DIIS Solver                            ...       17.309 sec (  0.0%)
State Vector Update                    ...        0.764 sec (  0.0%)
Sigma-vector construction              ...    29096.997 sec ( 51.5%)
  <0|H|D>                              ...        0.032 sec (  0.0% of sigma)
  <D|H|D>(0-ext)                       ...     5523.272 sec ( 19.0% of sigma)
  <D|H|D>(2-ext Fock)                  ...        1.688 sec (  0.0% of sigma)
  <D|H|D>(2-ext)                       ...     4190.458 sec ( 14.4% of sigma)
  <D|H|D>(4-ext)                       ...      165.040 sec (  0.6% of sigma)
  <D|H|D>(4-ext-corr)                  ...     1024.891 sec (  3.5% of sigma)
  CCSD doubles correction              ...      532.340 sec (  1.8% of sigma)
  <S|H|S>                              ...      647.942 sec (  2.2% of sigma)
  <S|H|D>(1-ext)                       ...      254.572 sec (  0.9% of sigma)
  <D|H|S>(1-ext)                       ...        0.738 sec (  0.0% of sigma)
  <S|H|D>(3-ext)                       ...       23.450 sec (  0.1% of sigma)
  CCSD singles correction              ...        0.004 sec (  0.0% of sigma)
  Fock-dressing                        ...     8591.788 sec ( 29.5% of sigma)
  Singles amplitudes                   ...      105.685 sec (  0.4% of sigma)
  (ik|jl)-dressing                     ...     6207.438 sec ( 21.3% of sigma)
  (ij|ab),(ia|jb)-dressing             ...     1622.470 sec (  5.6% of sigma)
  Pair energies                        ...        0.167 sec (  0.0% of sigma)
Total Time for computing (T)           ...    19186.644 sec ( 33.9% of ALL)


-------------------------   --------------------
FINAL SINGLE POINT ENERGY     -3031.450295904221
-------------------------   --------------------


                            ***************************************
                            *     ORCA property calculations      *
                            ***************************************

                                    ---------------------
                                    Active property flags
                                    ---------------------
   (+) Dipole Moment


------------------------------------------------------------------------------
                       ORCA ELECTRIC PROPERTIES CALCULATION
------------------------------------------------------------------------------

Dipole Moment Calculation                       ... on
Quadrupole Moment Calculation                   ... off
Polarizability Calculation                      ... off
GBWName                                         ... simple-grid-225-220-b3lyp_d3bj-631gd-gas-singlepoint-DLPNO_CCSD_T1-NormalPNO-augtz-gas.gbw
Electron density file                           ... simple-grid-225-220-b3lyp_d3bj-631gd-gas-singlepoint-DLPNO_CCSD_T1-NormalPNO-augtz-gas.scfp.tmp
The origin for moment calculation is the CENTER OF MASS  = ( 0.312170,  0.018152  0.017892)

-------------
DIPOLE MOMENT
-------------
                                X             Y             Z
Electronic contribution:     42.56674       2.10928       2.15257
Nuclear contribution   :    -46.51325      -2.70468      -2.66583
                        -----------------------------------------
Total Dipole Moment    :     -3.94651      -0.59540      -0.51326
                        -----------------------------------------
Magnitude (a.u.)       :      4.02404
Magnitude (Debye)      :     10.22830



--------------------
Rotational spectrum 
--------------------
 
Rotational constants in cm-1:     0.019646     0.011164     0.010463 
Rotational constants in MHz :   588.970838   334.696283   313.662292 

 Dipole components along the rotational axes: 
x,y,z [a.u.] :     3.944397    -0.615954    -0.505221 
x,y,z [Debye]:    10.025859    -1.565632    -1.284170 

 

Timings for individual modules:

Sum of individual times         ...    74069.178 sec (=1234.486 min)
GTO integral calculation        ...       12.290 sec (=   0.205 min)   0.0 %
SCF iterations                  ...    17503.726 sec (= 291.729 min)  23.6 %
MDCI module                     ...    56553.162 sec (= 942.553 min)  76.4 %
                             ****ORCA TERMINATED NORMALLY****
TOTAL RUN TIME: 0 days 20 hours 34 minutes 31 seconds 727 msec
