
                                 *****************
                                 * O   R   C   A *
                                 *****************

           --- An Ab Initio, DFT and Semiempirical electronic structure package ---

                  #######################################################
                  #                        -***-                        #
                  #          Department of theory and spectroscopy      #
                  #               Directorship: Frank Neese             #
                  #        Max Planck Institute fuer Kohlenforschung    #
                  #                Kaiser Wilhelm Platz 1               #
                  #                 D-45470 Muelheim/Ruhr               #
                  #                      Germany                        #
                  #                                                     #
                  #                  All rights reserved                #
                  #                        -***-                        #
                  #######################################################


                         Program Version 4.1.2  - RELEASE  -


 With contributions from (in alphabetic order):
   Daniel Aravena         : Magnetic Properties
   Michael Atanasov       : Ab Initio Ligand Field Theory
   Alexander A. Auer      : GIAO ZORA
   Ute Becker             : Parallelization
   Giovanni Bistoni       : ED, Open-shell LED
   Martin Brehm           : Molecular dynamics
   Dmytro Bykov           : SCF Hessian
   Vijay G. Chilkuri      : MRCI spin determinant printing
   Dipayan Datta          : RHF DLPNO-CCSD density
   Achintya Kumar Dutta   : EOM-CC, STEOM-CC
   Dmitry Ganyushin       : Spin-Orbit,Spin-Spin,Magnetic field MRCI
   Miquel Garcia          : C-PCM Hessian
   Yang Guo               : DLPNO-NEVPT2, CIM, IAO-localization
   Andreas Hansen         : Spin unrestricted coupled pair/coupled cluster methods
   Benjamin Helmich-Paris : CASSCF linear response (MC-RPA)
   Lee Huntington         : MR-EOM, pCC
   Robert Izsak           : Overlap fitted RIJCOSX, COSX-SCS-MP3, EOM
   Christian Kollmar      : KDIIS, OOCD, Brueckner-CCSD(T), CCSD density
   Simone Kossmann        : Meta GGA functionals, TD-DFT gradient, OOMP2, MP2 Hessian
   Martin Krupicka        : AUTO-CI
   Lucas Lang             : DCDCAS
   Dagmar Lenk            : GEPOL surface, SMD
   Dimitrios Liakos       : Extrapolation schemes; parallel MDCI
   Dimitrios Manganas     : ROCIS; embedding schemes
   Dimitrios Pantazis     : SARC Basis sets
   Taras Petrenko         : DFT Hessian,TD-DFT gradient, ASA, ECA, R-Raman, ABS, FL, XAS/XES, NRVS
   Peter Pinski           : DLPNO-MP2, DLPNO-MP2 Gradient
   Christoph Reimann      : Effective Core Potentials
   Marius Retegan         : Local ZFS, SOC
   Christoph Riplinger    : Optimizer, TS searches, QM/MM, DLPNO-CCSD(T), (RO)-DLPNO pert. Triples
   Tobias Risthaus        : Range-separated hybrids, TD-DFT gradient, RPA, STAB
   Michael Roemelt        : Restricted open shell CIS
   Masaaki Saitow         : Open-shell DLPNO
   Barbara Sandhoefer     : DKH picture change effects
   Avijit Sen             : IP-ROCIS
   Kantharuban Sivalingam : CASSCF convergence, NEVPT2, FIC-MRCI
   Bernardo de Souza      : ESD, SOC TD-DFT
   Georgi Stoychev        : AutoAux, RI-MP2 NMR
   Willem Van den Heuvel  : Paramagnetic NMR
   Boris Wezisla          : Elementary symmetry handling
   Frank Wennmohs         : Technical directorship


 We gratefully acknowledge several colleagues who have allowed us to
 interface, adapt or use parts of their codes:
   Stefan Grimme, W. Hujo, H. Kruse,             : VdW corrections, initial TS optimization,
                  C. Bannwarth                     DFT functionals, gCP, sTDA/sTD-DF
   Ed Valeev                                     : LibInt (2-el integral package), F12 methods
   Garnet Chan, S. Sharma, J. Yang, R. Olivares  : DMRG
   Ulf Ekstrom                                   : XCFun DFT Library
   Mihaly Kallay                                 : mrcc  (arbitrary order and MRCC methods)
   Andreas Klamt, Michael Diedenhofen            : otool_cosmo (COSMO solvation model)
   Jiri Pittner, Ondrej Demel                    : Mk-CCSD
   Frank Weinhold                                : gennbo (NPA and NBO analysis)
   Christopher J. Cramer and Donald G. Truhlar   : smd solvation model
   Lars Goerigk                                  : TD-DFT with DH, B97 family of functionals
   V. Asgeirsson, H. Jonsson                     : NEB implementation
   FAccTs GmbH                                   : IRC, NEB, NEB-TS, Multilevel


 Your calculation uses the libint2 library for the computation of 2-el integrals
 For citations please refer to: http://libint.valeyev.net

 This ORCA versions uses:
   CBLAS   interface :  Fast vector & matrix operations
   LAPACKE interface :  Fast linear algebra routines
   SCALAPACK package :  Parallel linear algebra routines


----- Orbital basis set information -----
Your calculation utilizes the basis: aug-cc-pVTZ 
    H, B-Ne : Obtained from the ccRepo (grant-hill.group.shef.ac.uk/ccrepo) Feb. 2017
              R. A. Kendall, T. H. Dunning, Jr., R. J. Harrison, J. Chem. Phys. 96, 6796 (1992)
         He : Obtained from the ccRepo (grant-hill.group.shef.ac.uk/ccrepo) Feb. 2017
              D. E. Woon, T. H. Dunning, Jr., J. Chem. Phys. 100, 2975 (1994)
  Li-Be, Na : Obtained from the ccRepo (grant-hill.group.shef.ac.uk/ccrepo) Feb. 2017
              B. P. Prascher, D. E. Woon, K. A. Peterson, T. H. Dunning, Jr., A. K. Wilson, Theor. Chem. Acc. 128, 69 (2011)
         Mg : Obtained from the Peterson Research Group Website (tyr0.chem.wsu.edu/~kipeters) Feb. 2017
              B. P. Prascher, D. E. Woon, K. A. Peterson, T. H. Dunning, Jr., A. K. Wilson, Theor. Chem. Acc. 128, 69 (2011)
      Al-Ar : Obtained from the ccRepo (grant-hill.group.shef.ac.uk/ccrepo) Feb. 2017
              D. E. Woon, T. H. Dunning, Jr., J. Chem. Phys. 98, 1358 (1993)
      Sc-Zn : Obtained from the ccRepo (grant-hill.group.shef.ac.uk/ccrepo) Feb. 2017
              N. B. Balabanov, K. A. Peterson, J. Chem. Phys. 123, 064107 (2005)
              N. B. Balabanov, K. A. Peterson, J. Chem. Phys. 125, 074110 (2006)
      Ga-Kr : Obtained from the ccRepo (grant-hill.group.shef.ac.uk/ccrepo) Feb. 2017
              A. K. Wilson, D. E. Woon, K. A. Peterson, T. H. Dunning, Jr., J. Chem. Phys. 110, 7667 (1999)
     Ag, Au : Obtained from the Peterson Research Group Website (tyr0.chem.wsu.edu/~kipeters) Feb. 2017
              K. A. Peterson, C. Puzzarini, Theor. Chem. Acc. 114, 283 (2005)

----- AuxJ basis set information -----
Your calculation utilizes the AutoAux generation procedure.
  G. L. Stoychev, A. A. Auer, F. Neese, J. Chem. Theory Comput. 13, 554 (2017)

----- AuxC basis set information -----
Your calculation utilizes the auxiliary basis: aug-cc-pVTZ/C 
  H-He, B-F, Al-Ar, Ga-Kr : Obtained from the EMSL Basis Set Exchange (bse.pnl.gov) Feb. 2017
                            F. Weigend, A. Kohn, C. Hattig, J. Chem. Phys. 116, 3175 (2002)
                   Be, Mg : Obtained from the TURBOMOLE 7.0 basis set library
                            C. Haettig, Phys. Chem. Chem. Phys. 7, 59 (2005)
                       Ne : Obtained from the EMSL Basis Set Exchange (bse.pnl.gov) Feb. 2017
                            C. Haettig, Phys. Chem. Chem. Phys. 7, 59 (2005)
                            F. Weigend, A. Kohn, C. Hattig, J. Chem. Phys. 116, 3175 (2002)
                    Sc-Zn : Obtained from the EMSL Basis Set Exchange (bse.pnl.gov) Feb. 2017
                            J. G. Hill, J. A. Platts, J. Chem. Phys. 128, 044104 (2008)

----- AuxJK basis set information -----
Your calculation utilizes the AutoAux generation procedure.
  G. L. Stoychev, A. A. Auer, F. Neese, J. Chem. Theory Comput. 13, 554 (2017)

================================================================================
                                        WARNINGS
                       Please study these warnings very carefully!
================================================================================


WARNING: your system is open-shell and RHF/RKS was chosen
  ===> : WILL SWITCH to UHF/UKS


WARNING: MDCI localization with Augmented Hessian Foster-Boys
  ===> : Switching off randomization!

WARNING: Post HF methods need fully converged wavefunctions
  ===> : Setting SCFConvForced true
         You can overwrite this default with %scf ConvForced false 


INFO   : the flag for use of LIBINT has been found!

================================================================================
                                       INPUT FILE
================================================================================
NAME = simple-grid-220-240-b3lyp_d3bj-631gd-gas-singlepoint-DLPNO_CCSD_T1-NormalPNO-augtz-gas.inp
|  1> ! aug-cc-pVTZ aug-cc-pVTZ/C DLPNO-CCSD(T1) TightSCF NormalPNO UNO MiniPrint AutoAux
|  2> %pal nproc 10 end
|  3> %maxcore 20000
|  4> %mdci
|  5>      density none
|  6> end
|  7> 
|  8> * xyz 0 6
|  9>  O     -0.31735400     -0.13243500     -0.65936300
| 10>  C     -1.21817200     -1.05084500     -0.57518700
| 11>  C     -3.05989500     -0.07641200      0.13088200
| 12>  C     -2.35055800      1.04932000     -0.18030400
| 13>  C     -2.37995200      1.65108700     -1.54828900
| 14> Fe      1.44539000      0.07603400      0.04274300
| 15> Cl      2.06122400      2.02401200     -0.74946000
| 16>  C     -1.56288300      1.81800400      0.83094000
| 17> Cl      2.50173500     -1.68489500     -0.73830600
| 18> Cl      1.30960900      0.03845000      2.24668400
| 19>  H     -3.71387200     -0.47122700     -0.64337900
| 20>  H     -2.21801100      2.59956600      1.24333300
| 21>  H     -1.20735400      1.21108600      1.66367300
| 22>  H     -0.70777500      2.31919900      0.36965700
| 23>  H     -2.69527100      2.69897300     -1.46232600
| 24>  H     -1.36929100      1.66089700     -1.97245900
| 25>  H     -3.06757100      1.14187500     -2.22700600
| 26>  C     -3.40187100     -0.51088000      1.53417600
| 27>  H     -4.30039700      0.02424400      1.86862700
| 28>  H     -3.63086500     -1.57873400      1.58235700
| 29>  H     -2.60948200     -0.29860300      2.25509100
| 30>  C     -1.08295100     -2.06993000      0.52502200
| 31>  H     -1.94997100     -2.72644300      0.60254700
| 32>  H     -0.21192600     -2.67996000      0.24355000
| 33>  H     -0.85494500     -1.60993400      1.48651900
| 34>  C     -1.74819800     -1.56214000     -1.89381800
| 35>  H     -0.93589300     -2.16964000     -2.31644400
| 36>  H     -2.63003600     -2.19485600     -1.77722900
| 37>  H     -1.94540200     -0.75169900     -2.59507200
| 38> *
| 39> 
| 40> 
| 41>                          ****END OF INPUT****
================================================================================

                       ****************************
                       * Single Point Calculation *
                       ****************************

---------------------------------
CARTESIAN COORDINATES (ANGSTROEM)
---------------------------------
  O     -0.317354   -0.132435   -0.659363
  C     -1.218172   -1.050845   -0.575187
  C     -3.059895   -0.076412    0.130882
  C     -2.350558    1.049320   -0.180304
  C     -2.379952    1.651087   -1.548289
  Fe     1.445390    0.076034    0.042743
  Cl     2.061224    2.024012   -0.749460
  C     -1.562883    1.818004    0.830940
  Cl     2.501735   -1.684895   -0.738306
  Cl     1.309609    0.038450    2.246684
  H     -3.713872   -0.471227   -0.643379
  H     -2.218011    2.599566    1.243333
  H     -1.207354    1.211086    1.663673
  H     -0.707775    2.319199    0.369657
  H     -2.695271    2.698973   -1.462326
  H     -1.369291    1.660897   -1.972459
  H     -3.067571    1.141875   -2.227006
  C     -3.401871   -0.510880    1.534176
  H     -4.300397    0.024244    1.868627
  H     -3.630865   -1.578734    1.582357
  H     -2.609482   -0.298603    2.255091
  C     -1.082951   -2.069930    0.525022
  H     -1.949971   -2.726443    0.602547
  H     -0.211926   -2.679960    0.243550
  H     -0.854945   -1.609934    1.486519
  C     -1.748198   -1.562140   -1.893818
  H     -0.935893   -2.169640   -2.316444
  H     -2.630036   -2.194856   -1.777229
  H     -1.945402   -0.751699   -2.595072

----------------------------
CARTESIAN COORDINATES (A.U.)
----------------------------
  NO LB      ZA    FRAG     MASS         X           Y           Z
   0 O     8.0000    0    15.999   -0.599712   -0.250266   -1.246015
   1 C     6.0000    0    12.011   -2.302011   -1.985809   -1.086946
   2 C     6.0000    0    12.011   -5.782364   -0.144398    0.247331
   3 C     6.0000    0    12.011   -4.441911    1.982927   -0.340725
   4 C     6.0000    0    12.011   -4.497457    3.120102   -2.925842
   5 Fe   26.0000    0    55.850    2.731391    0.143683    0.080773
   6 Cl   17.0000    0    35.453    3.895149    3.824828   -1.416274
   7 C     6.0000    0    12.011   -2.953421    3.435530    1.570249
   8 Cl   17.0000    0    35.453    4.727594   -3.183990   -1.395196
   9 Cl   17.0000    0    35.453    2.474802    0.072660    4.245617
  10 H     1.0000    0     1.008   -7.018201   -0.890490   -1.215810
  11 H     1.0000    0     1.008   -4.191433    4.912468    2.349559
  12 H     1.0000    0     1.008   -2.281568    2.288621    3.143886
  13 H     1.0000    0     1.008   -1.337501    4.382651    0.698550
  14 H     1.0000    0     1.008   -5.093324    5.100320   -2.763396
  15 H     1.0000    0     1.008   -2.587585    3.138640   -3.727407
  16 H     1.0000    0     1.008   -5.796869    2.157831   -4.208431
  17 C     6.0000    0    12.011   -6.428605   -0.965423    2.899172
  18 H     1.0000    0     1.008   -8.126573    0.045815    3.531193
  19 H     1.0000    0     1.008   -6.861340   -2.983375    2.990221
  20 H     1.0000    0     1.008   -4.931206   -0.564278    4.261504
  21 C     6.0000    0    12.011   -2.046481   -3.911601    0.992148
  22 H     1.0000    0     1.008   -3.684911   -5.152231    1.138649
  23 H     1.0000    0     1.008   -0.400482   -5.064390    0.460243
  24 H     1.0000    0     1.008   -1.615612   -3.042334    2.809114
  25 C     6.0000    0    12.011   -3.303615   -2.952017   -3.578797
  26 H     1.0000    0     1.008   -1.768581   -4.100025   -4.377445
  27 H     1.0000    0     1.008   -4.970048   -4.147677   -3.358476
  28 H     1.0000    0     1.008   -3.676277   -1.420505   -4.903975



           ************************************************************
           *        Program running with 10 parallel MPI-processes    *
           *              working on a common directory               *
           ************************************************************


           ************************************************************
           *        Program running with 10 parallel MPI-processes    *
           *              working on a common directory               *
           ************************************************************

Diagonalization of the overlap matrix:
Smallest eigenvalue                        ... 6.336e-07
Time for diagonalization                   ...    0.324 sec
Threshold for overlap eigenvalues          ... 1.000e-08
Number of eigenvalues below threshold      ... 0
Time for construction of square roots      ...    0.286 sec
Total time needed                          ...    0.614 sec

-------------------
DFT GRID GENERATION
-------------------

General Integration Accuracy     IntAcc      ...  4.340
Radial Grid Type                 RadialGrid  ... Gauss-Chebyshev
Angular Grid (max. acc.)         AngularGrid ... Lebedev-110
Angular grid pruning method      GridPruning ... 3 (G Style)
Weight generation scheme         WeightScheme... Becke
Basis function cutoff            BFCut       ...    1.0000e-11
Integration weight cutoff        WCut        ...    1.0000e-14
Grids for H and He will be reduced by one unit

# of grid points (after initial pruning)     ...  36112 (   0.0 sec)
# of grid points (after weights+screening)   ...  32329 (   0.1 sec)
nearest neighbour list constructed           ...    0.0 sec
Grid point re-assignment to atoms done       ...    0.0 sec
Grid point division into batches done        ...    0.0 sec
Reduced shell lists constructed in    0.2 sec

Total number of grid points                  ...    32329
Total number of batches                      ...      521
Average number of points per batch           ...       62
Average number of grid points per atom       ...     1115
Average number of shells per batch           ...   292.65 (85.32%)
Average number of basis functions per batch  ...   869.09 (84.79%)
Average number of large shells per batch     ...   240.76 (82.27%)
Average number of large basis fcns per batch ...   714.31 (82.19%)
Maximum spatial batch extension              ...   2.68,  3.25,  4.53 au
Average spatial batch extension              ...   0.18,  0.19,  0.18 au

Time for grid setup =    0.489 sec

Loading Hartree-Fock densities                     ... done
Calculating cut-offs                               ... done
Setting up the integral package                    ... done
Initializing the effective Hamiltonian             ... done
Starting the Coulomb interaction                   ... done (   1.1 sec)
Reading the grid                                   ... done
Mapping shells                                     ... done
Starting the XC term evaluation                    ... done (   0.8 sec)
Transforming the Hamiltonian                       ... done (   0.2 sec)
Diagonalizing the Hamiltonian                      ... done (   0.3 sec)
Back transforming the eigenvectors                 ... done (   0.1 sec)
Now organizing SCF variables                       ... done
--------------
SCF ITERATIONS
--------------
ITER       Energy         Delta-E        Max-DP      RMS-DP      [F,P]     Damp
               ***  Starting incremental Fock matrix formation  ***
  0  -3027.5713473799   0.000000000000 0.20705430  0.00113600  0.2662915 0.7000
  1  -3027.8210332523  -0.249685872433 0.15333367  0.00088635  0.1622147 0.7000
                               ***Turning on DIIS***
  2  -3027.9888271616  -0.167793909283 0.10952351  0.00065217  0.1092626 0.7000
  3  -3029.6380107949  -1.649183633271 0.25386565  0.00163152  0.0819005 0.0000
  4  -3028.2916098804   1.346400914440 0.04663632  0.00023328  0.0198574 0.0000
  5  -3028.4117989109  -0.120189030464 0.03992088  0.00017552  0.0119053 0.0000
  6  -3028.4473091120  -0.035510201122 0.02099247  0.00007074  0.0054551 0.0000
  7  -3028.4615893562  -0.014280244165 0.00914648  0.00003235  0.0034610 0.0000
  8  -3028.4554052709   0.006184085310 0.00603052  0.00001853  0.0014284 0.0000
  9  -3028.4475725548   0.007832716073 0.00232303  0.00001055  0.0007527 0.0000
 10  -3028.4360344641   0.011538090659 0.00101001  0.00000328  0.0004301 0.0000
 11  -3028.4423398761  -0.006305411922 0.00028381  0.00000188  0.0000681 0.0000
 12  -3028.4401279132   0.002211962868 0.00068345  0.00000167  0.0000223 0.0000
 13  -3028.4401309629  -0.000003049737 0.00103572  0.00000265  0.0000091 0.0000
 14  -3028.4401568514  -0.000025888494 0.00101203  0.00000259  0.0000055 0.0000
 15  -3028.4401095313   0.000047320068 0.00063713  0.00000187  0.0000028 0.0000
 16  -3028.4401248346  -0.000015303258 0.00132300  0.00000280  0.0000018 0.0000
 17  -3028.4401400832  -0.000015248637 0.00102217  0.00000229  0.0000014 0.0000
 18  -3028.4401239298   0.000016153461 0.00186209  0.00000433  0.0000012 0.0000
                            ***DIIS convergence achieved***

               *****************************************************
               *                     SUCCESS                       *
               *           SCF CONVERGED AFTER  19 CYCLES          *
               *****************************************************

Total Energy       :        -3028.44013307 Eh          -82408.04556 eV
  Last Energy change         ...   -9.1408e-06  Tolerance :   1.0000e-08
  Last MAX-Density change    ...    1.3797e-03  Tolerance :   1.0000e-07
             **** THE GBW FILE WAS UPDATED (simple-grid-220-240-b3lyp_d3bj-631gd-gas-singlepoint-DLPNO_CCSD_T1-NormalPNO-augtz-gas.gbw) ****
             **** DENSITY FILE WAS UPDATED (simple-grid-220-240-b3lyp_d3bj-631gd-gas-singlepoint-DLPNO_CCSD_T1-NormalPNO-augtz-gas.scfp.tmp) ****
             **** ENERGY FILE WAS UPDATED (simple-grid-220-240-b3lyp_d3bj-631gd-gas-singlepoint-DLPNO_CCSD_T1-NormalPNO-augtz-gas.en.tmp) ****
----------------------
UHF SPIN CONTAMINATION
----------------------

Expectation value of <S**2>     :     8.764547
Ideal value S*(S+1) for S=2.5   :     8.750000
Deviation                       :     0.014547

----------------
ORBITAL ENERGIES
----------------
                 SPIN UP ORBITALS
  NO   OCC          E(Eh)            E(eV) 
   0   1.0000    -261.562384     -7117.4743 
   1   1.0000    -104.784109     -2851.3206 
   2   1.0000    -104.781636     -2851.2533 
   3   1.0000    -104.781286     -2851.2437 
   4   1.0000     -32.230213      -877.0287 
   5   1.0000     -27.706412      -753.9298 
   6   1.0000     -27.705721      -753.9110 
   7   1.0000     -27.705561      -753.9067 
   8   1.0000     -20.579252      -559.9899 
   9   1.0000     -11.411233      -310.5154 
  10   1.0000     -11.316073      -307.9260 
  11   1.0000     -11.267735      -306.6107 
  12   1.0000     -11.264091      -306.5115 
  13   1.0000     -11.261818      -306.4496 
  14   1.0000     -11.256388      -306.3019 
  15   1.0000     -11.253263      -306.2169 
  16   1.0000     -11.247509      -306.0603 
  17   1.0000     -10.510756      -286.0122 
  18   1.0000     -10.508243      -285.9438 
  19   1.0000     -10.507860      -285.9334 
  20   1.0000      -7.977621      -217.0821 
  21   1.0000      -7.976809      -217.0600 
  22   1.0000      -7.976772      -217.0590 
  23   1.0000      -7.975108      -217.0137 
  24   1.0000      -7.974664      -217.0016 
  25   1.0000      -7.974340      -216.9928 
  26   1.0000      -7.974258      -216.9906 
  27   1.0000      -7.973974      -216.9829 
  28   1.0000      -7.973902      -216.9809 
  29   1.0000      -4.585438      -124.7761 
  30   1.0000      -3.198352       -87.0316 
  31   1.0000      -3.197185       -86.9998 
  32   1.0000      -3.196851       -86.9907 
  33   1.0000      -1.430364       -38.9222 
  34   1.0000      -1.155637       -31.4465 
  35   1.0000      -1.091414       -29.6989 
  36   1.0000      -1.056271       -28.7426 
  37   1.0000      -1.050838       -28.5948 
  38   1.0000      -1.048690       -28.5363 
  39   1.0000      -1.034803       -28.1584 
  40   1.0000      -1.001339       -27.2478 
  41   1.0000      -0.978461       -26.6253 
  42   1.0000      -0.932015       -25.3614 
  43   1.0000      -0.916927       -24.9508 
  44   1.0000      -0.914777       -24.8923 
  45   1.0000      -0.914620       -24.8881 
  46   1.0000      -0.904815       -24.6213 
  47   1.0000      -0.904572       -24.6147 
  48   1.0000      -0.797172       -21.6921 
  49   1.0000      -0.750587       -20.4245 
  50   1.0000      -0.696516       -18.9532 
  51   1.0000      -0.692302       -18.8385 
  52   1.0000      -0.684831       -18.6352 
  53   1.0000      -0.667848       -18.1731 
  54   1.0000      -0.639359       -17.3978 
  55   1.0000      -0.620343       -16.8804 
  56   1.0000      -0.603405       -16.4195 
  57   1.0000      -0.597966       -16.2715 
  58   1.0000      -0.582947       -15.8628 
  59   1.0000      -0.575210       -15.6523 
  60   1.0000      -0.570576       -15.5262 
  61   1.0000      -0.564084       -15.3495 
  62   1.0000      -0.552231       -15.0270 
  63   1.0000      -0.548905       -14.9365 
  64   1.0000      -0.542591       -14.7646 
  65   1.0000      -0.521461       -14.1897 
  66   1.0000      -0.514866       -14.0102 
  67   1.0000      -0.488270       -13.2865 
  68   1.0000      -0.469571       -12.7777 
  69   1.0000      -0.463034       -12.5998 
  70   1.0000      -0.437177       -11.8962 
  71   1.0000      -0.432212       -11.7611 
  72   1.0000      -0.430782       -11.7222 
  73   1.0000      -0.422305       -11.4915 
  74   1.0000      -0.420688       -11.4475 
  75   1.0000      -0.420299       -11.4369 
  76   1.0000      -0.373737       -10.1699 
  77   0.0000       0.011346         0.3088 
  78   0.0000       0.021794         0.5931 
  79   0.0000       0.022773         0.6197 
  80   0.0000       0.030250         0.8232 
  81   0.0000       0.038714         1.0535 
  82   0.0000       0.039717         1.0807 
  83   0.0000       0.042317         1.1515 
  84   0.0000       0.043908         1.1948 
  85   0.0000       0.044793         1.2189 
  86   0.0000       0.054271         1.4768 
  87   0.0000       0.056309         1.5322 
  88   0.0000       0.059406         1.6165 
  89   0.0000       0.063795         1.7359 
  90   0.0000       0.066799         1.8177 
  91   0.0000       0.068143         1.8543 
  92   0.0000       0.072551         1.9742 
  93   0.0000       0.074646         2.0312 
  94   0.0000       0.078558         2.1377 
  95   0.0000       0.091113         2.4793 
  96   0.0000       0.091434         2.4880 
  97   0.0000       0.092062         2.5051 
  98   0.0000       0.098623         2.6837 
  99   0.0000       0.101496         2.7618 
 100   0.0000       0.102362         2.7854 
 101   0.0000       0.109065         2.9678 
 102   0.0000       0.114935         3.1275 
 103   0.0000       0.121000         3.2926 
 104   0.0000       0.123256         3.3540 
 105   0.0000       0.125358         3.4112 
 106   0.0000       0.127731         3.4757 
 107   0.0000       0.129205         3.5158 
 108   0.0000       0.131126         3.5681 
 109   0.0000       0.133738         3.6392 
 110   0.0000       0.138476         3.7681 
 111   0.0000       0.139079         3.7845 
 112   0.0000       0.141515         3.8508 
 113   0.0000       0.148600         4.0436 
 114   0.0000       0.149086         4.0568 
 115   0.0000       0.151459         4.1214 
 116   0.0000       0.156607         4.2615 
 117   0.0000       0.159557         4.3418 
 118   0.0000       0.162529         4.4226 
 119   0.0000       0.167337         4.5535 
 120   0.0000       0.168258         4.5785 
 121   0.0000       0.171761         4.6739 
 122   0.0000       0.173593         4.7237 
 123   0.0000       0.176289         4.7971 
 124   0.0000       0.180721         4.9177 
 125   0.0000       0.186747         5.0816 
 126   0.0000       0.188045         5.1170 
 127   0.0000       0.190046         5.1714 
 128   0.0000       0.193723         5.2715 
 129   0.0000       0.200173         5.4470 
 130   0.0000       0.201497         5.4830 
 131   0.0000       0.204570         5.5666 
 132   0.0000       0.206567         5.6210 
 133   0.0000       0.209569         5.7027 
 134   0.0000       0.211891         5.7658 
 135   0.0000       0.214574         5.8389 
 136   0.0000       0.217452         5.9172 
 137   0.0000       0.223923         6.0933 
 138   0.0000       0.227361         6.1868 
 139   0.0000       0.230756         6.2792 
 140   0.0000       0.234794         6.3891 
 141   0.0000       0.235732         6.4146 
 142   0.0000       0.237427         6.4607 
 143   0.0000       0.244294         6.6476 
 144   0.0000       0.248049         6.7497 
 145   0.0000       0.251105         6.8329 
 146   0.0000       0.253072         6.8864 
 147   0.0000       0.253398         6.8953 
 148   0.0000       0.259856         7.0710 
 149   0.0000       0.262407         7.1405 
 150   0.0000       0.266994         7.2653 
 151   0.0000       0.271348         7.3838 
 152   0.0000       0.273380         7.4390 
 153   0.0000       0.279145         7.5959 
 154   0.0000       0.283822         7.7232 
 155   0.0000       0.287486         7.8229 
 156   0.0000       0.290312         7.8998 
 157   0.0000       0.297315         8.0904 
 158   0.0000       0.300938         8.1889 
 159   0.0000       0.304211         8.2780 
 160   0.0000       0.307927         8.3791 
 161   0.0000       0.312847         8.5130 
 162   0.0000       0.317536         8.6406 
 163   0.0000       0.319740         8.7006 
 164   0.0000       0.325635         8.8610 
 165   0.0000       0.329864         8.9761 
 166   0.0000       0.333106         9.0643 
 167   0.0000       0.338837         9.2202 
 168   0.0000       0.342005         9.3064 
 169   0.0000       0.344395         9.3715 
 170   0.0000       0.348944         9.4952 
 171   0.0000       0.356140         9.6911 
 172   0.0000       0.357346         9.7239 
 173   0.0000       0.360655         9.8139 
 174   0.0000       0.361888         9.8475 
 175   0.0000       0.365162         9.9366 
 176   0.0000       0.368968        10.0401 
 177   0.0000       0.370432        10.0800 
 178   0.0000       0.370908        10.0929 
 179   0.0000       0.375150        10.2083 
 180   0.0000       0.380417        10.3517 
 181   0.0000       0.385201        10.4819 
 182   0.0000       0.386984        10.5304 
 183   0.0000       0.389870        10.6089 
 184   0.0000       0.390939        10.6380 
 185   0.0000       0.397045        10.8041 
 186   0.0000       0.399962        10.8835 
 187   0.0000       0.402003        10.9391 
 188   0.0000       0.404842        11.0163 
 189   0.0000       0.407810        11.0971 
 190   0.0000       0.411519        11.1980 
 191   0.0000       0.415500        11.3063 
 192   0.0000       0.419362        11.4114 
 193   0.0000       0.423014        11.5108 
 194   0.0000       0.431866        11.7517 
 195   0.0000       0.432576        11.7710 
 196   0.0000       0.435174        11.8417 
 197   0.0000       0.440170        11.9776 
 198   0.0000       0.445291        12.1170 
 199   0.0000       0.448102        12.1935 
 200   0.0000       0.453878        12.3506 
 201   0.0000       0.454561        12.3692 
 202   0.0000       0.457975        12.4621 
 203   0.0000       0.461916        12.5694 
 204   0.0000       0.465043        12.6545 
 205   0.0000       0.470741        12.8095 
 206   0.0000       0.472728        12.8636 
 207   0.0000       0.473560        12.8862 
 208   0.0000       0.476439        12.9646 
 209   0.0000       0.480424        13.0730 
 210   0.0000       0.481638        13.1060 
 211   0.0000       0.485696        13.2165 
 212   0.0000       0.487394        13.2627 
 213   0.0000       0.495242        13.4762 
 214   0.0000       0.497036        13.5250 
 215   0.0000       0.504222        13.7206 
 216   0.0000       0.506357        13.7787 
 217   0.0000       0.509092        13.8531 
 218   0.0000       0.510708        13.8971 
 219   0.0000       0.512058        13.9338 
 220   0.0000       0.513308        13.9678 
 221   0.0000       0.514316        13.9953 
 222   0.0000       0.522084        14.2066 
 223   0.0000       0.527552        14.3554 
 224   0.0000       0.528697        14.3866 
 225   0.0000       0.533771        14.5246 
 226   0.0000       0.535399        14.5689 
 227   0.0000       0.541792        14.7429 
 228   0.0000       0.543973        14.8023 
 229   0.0000       0.546072        14.8594 
 230   0.0000       0.548315        14.9204 
 231   0.0000       0.555068        15.1042 
 232   0.0000       0.558904        15.2085 
 233   0.0000       0.561977        15.2922 
 234   0.0000       0.567295        15.4369 
 235   0.0000       0.569172        15.4879 
 236   0.0000       0.570723        15.5302 
 237   0.0000       0.576502        15.6874 
 238   0.0000       0.578653        15.7460 
 239   0.0000       0.584522        15.9056 
 240   0.0000       0.588635        16.0176 
 241   0.0000       0.594019        16.1641 
 242   0.0000       0.599471        16.3124 
 243   0.0000       0.600395        16.3376 
 244   0.0000       0.605025        16.4636 
 245   0.0000       0.607035        16.5183 
 246   0.0000       0.612482        16.6665 
 247   0.0000       0.617370        16.7995 
 248   0.0000       0.619282        16.8515 
 249   0.0000       0.622718        16.9450 
 250   0.0000       0.628645        17.1063 
 251   0.0000       0.633999        17.2520 
 252   0.0000       0.635718        17.2988 
 253   0.0000       0.642782        17.4910 
 254   0.0000       0.643070        17.4988 
 255   0.0000       0.647535        17.6203 
 256   0.0000       0.648042        17.6341 
 257   0.0000       0.652397        17.7526 
 258   0.0000       0.654652        17.8140 
 259   0.0000       0.657060        17.8795 
 260   0.0000       0.658466        17.9178 
 261   0.0000       0.664972        18.0948 
 262   0.0000       0.671845        18.2818 
 263   0.0000       0.674599        18.3568 
 264   0.0000       0.675344        18.3770 
 265   0.0000       0.683401        18.5963 
 266   0.0000       0.688416        18.7327 
 267   0.0000       0.692724        18.8500 
 268   0.0000       0.696198        18.9445 
 269   0.0000       0.699168        19.0253 
 270   0.0000       0.703006        19.1298 
 271   0.0000       0.710331        19.3291 
 272   0.0000       0.715160        19.4605 
 273   0.0000       0.719692        19.5838 
 274   0.0000       0.728306        19.8182 
 275   0.0000       0.732032        19.9196 
 276   0.0000       0.735191        20.0056 
 277   0.0000       0.737908        20.0795 
 278   0.0000       0.738749        20.1024 
 279   0.0000       0.743058        20.2196 
 280   0.0000       0.751332        20.4448 
 281   0.0000       0.755522        20.5588 
 282   0.0000       0.762651        20.7528 
 283   0.0000       0.770033        20.9537 
 284   0.0000       0.772078        21.0093 
 285   0.0000       0.775683        21.1074 
 286   0.0000       0.780599        21.2412 
 287   0.0000       0.791400        21.5351 
 288   0.0000       0.800243        21.7757 
 289   0.0000       0.808784        22.0081 
 290   0.0000       0.810722        22.0609 
 291   0.0000       0.817019        22.2322 
 292   0.0000       0.824184        22.4272 
 293   0.0000       0.828605        22.5475 
 294   0.0000       0.829718        22.5778 
 295   0.0000       0.836911        22.7735 
 296   0.0000       0.842485        22.9252 
 297   0.0000       0.851445        23.1690 
 298   0.0000       0.854696        23.2575 
 299   0.0000       0.857592        23.3363 
 300   0.0000       0.866874        23.5888 
 301   0.0000       0.872771        23.7493 
 302   0.0000       0.878595        23.9078 
 303   0.0000       0.879639        23.9362 
 304   0.0000       0.883481        24.0408 
 305   0.0000       0.887953        24.1624 
 306   0.0000       0.895276        24.3617 
 307   0.0000       0.900915        24.5151 
 308   0.0000       0.902999        24.5719 
 309   0.0000       0.905180        24.6312 
 310   0.0000       0.910627        24.7794 
 311   0.0000       0.912590        24.8328 
 312   0.0000       0.916852        24.9488 
 313   0.0000       0.919802        25.0291 
 314   0.0000       0.920934        25.0599 
 315   0.0000       0.930182        25.3116 
 316   0.0000       0.938788        25.5457 
 317   0.0000       0.940585        25.5946 
 318   0.0000       0.943269        25.6677 
 319   0.0000       0.945887        25.7389 
 320   0.0000       0.950021        25.8514 
 321   0.0000       0.953446        25.9446 
 322   0.0000       0.957133        26.0449 
 323   0.0000       0.958375        26.0787 
 324   0.0000       0.963893        26.2289 
 325   0.0000       0.966832        26.3088 
 326   0.0000       0.968221        26.3466 
 327   0.0000       0.971664        26.4403 
 328   0.0000       0.978890        26.6370 
 329   0.0000       0.981483        26.7075 
 330   0.0000       0.982799        26.7433 
 331   0.0000       0.987170        26.8623 
 332   0.0000       0.995185        27.0803 
 333   0.0000       0.997111        27.1328 
 334   0.0000       0.999023        27.1848 
 335   0.0000       1.002648        27.2834 
 336   0.0000       1.003564        27.3084 
 337   0.0000       1.007246        27.4086 
 338   0.0000       1.012412        27.5491 
 339   0.0000       1.015307        27.6279 
 340   0.0000       1.020019        27.7561 
 341   0.0000       1.023676        27.8556 
 342   0.0000       1.030551        28.0427 
 343   0.0000       1.031094        28.0575 
 344   0.0000       1.033361        28.1192 
 345   0.0000       1.039029        28.2734 
 346   0.0000       1.039363        28.2825 
 347   0.0000       1.043593        28.3976 
 348   0.0000       1.046515        28.4771 
 349   0.0000       1.054097        28.6834 
 350   0.0000       1.057962        28.7886 
 351   0.0000       1.064986        28.9797 
 352   0.0000       1.068494        29.0752 
 353   0.0000       1.069424        29.1005 
 354   0.0000       1.075413        29.2635 
 355   0.0000       1.076749        29.2998 
 356   0.0000       1.077405        29.3177 
 357   0.0000       1.083022        29.4705 
 358   0.0000       1.084683        29.5157 
 359   0.0000       1.088432        29.6177 
 360   0.0000       1.096055        29.8252 
 361   0.0000       1.100211        29.9383 
 362   0.0000       1.102576        30.0026 
 363   0.0000       1.105579        30.0843 
 364   0.0000       1.113065        30.2880 
 365   0.0000       1.117121        30.3984 
 366   0.0000       1.119598        30.4658 
 367   0.0000       1.124567        30.6010 
 368   0.0000       1.129496        30.7351 
 369   0.0000       1.133912        30.8553 
 370   0.0000       1.138261        30.9737 
 371   0.0000       1.142185        31.0804 
 372   0.0000       1.148156        31.2429 
 373   0.0000       1.151713        31.3397 
 374   0.0000       1.159708        31.5573 
 375   0.0000       1.161505        31.6062 
 376   0.0000       1.169121        31.8134 
 377   0.0000       1.171099        31.8672 
 378   0.0000       1.174842        31.9691 
 379   0.0000       1.183426        32.2026 
 380   0.0000       1.184289        32.2262 
 381   0.0000       1.188364        32.3370 
 382   0.0000       1.190993        32.4086 
 383   0.0000       1.199718        32.6460 
 384   0.0000       1.207459        32.8566 
 385   0.0000       1.212111        32.9832 
 386   0.0000       1.212427        32.9918 
 387   0.0000       1.214910        33.0594 
 388   0.0000       1.221085        33.2274 
 389   0.0000       1.228091        33.4181 
 390   0.0000       1.232140        33.5282 
 391   0.0000       1.237585        33.6764 
 392   0.0000       1.242308        33.8049 
 393   0.0000       1.244731        33.8709 
 394   0.0000       1.252820        34.0910 
 395   0.0000       1.257280        34.2123 
 396   0.0000       1.259369        34.2692 
 397   0.0000       1.264648        34.4128 
 398   0.0000       1.268651        34.5217 
 399   0.0000       1.271608        34.6022 
 400   0.0000       1.279986        34.8302 
 401   0.0000       1.283079        34.9143 
 402   0.0000       1.284946        34.9652 
 403   0.0000       1.291420        35.1413 
 404   0.0000       1.296855        35.2892 
 405   0.0000       1.302950        35.4551 
 406   0.0000       1.308235        35.5989 
 407   0.0000       1.315433        35.7948 
 408   0.0000       1.320471        35.9319 
 409   0.0000       1.325226        36.0612 
 410   0.0000       1.329636        36.1812 
 411   0.0000       1.333600        36.2891 
 412   0.0000       1.339288        36.4439 
 413   0.0000       1.344405        36.5831 
 414   0.0000       1.347579        36.6695 
 415   0.0000       1.357348        36.9353 
 416   0.0000       1.363896        37.1135 
 417   0.0000       1.370294        37.2876 
 418   0.0000       1.372461        37.3466 
 419   0.0000       1.375390        37.4263 
 420   0.0000       1.380555        37.5668 
 421   0.0000       1.386764        37.7358 
 422   0.0000       1.391029        37.8518 
 423   0.0000       1.397546        38.0291 
 424   0.0000       1.404831        38.2274 
 425   0.0000       1.408268        38.3209 
 426   0.0000       1.412444        38.4345 
 427   0.0000       1.419122        38.6163 
 428   0.0000       1.432457        38.9791 
 429   0.0000       1.434408        39.0322 
 430   0.0000       1.437769        39.1237 
 431   0.0000       1.441305        39.2199 
 432   0.0000       1.448294        39.4101 
 433   0.0000       1.456048        39.6211 
 434   0.0000       1.461196        39.7612 
 435   0.0000       1.463505        39.8240 
 436   0.0000       1.468406        39.9574 
 437   0.0000       1.473593        40.0985 
 438   0.0000       1.481280        40.3077 
 439   0.0000       1.487447        40.4755 
 440   0.0000       1.490577        40.5607 
 441   0.0000       1.494662        40.6718 
 442   0.0000       1.500376        40.8273 
 443   0.0000       1.502591        40.8876 
 444   0.0000       1.508826        41.0572 
 445   0.0000       1.514015        41.1984 
 446   0.0000       1.515562        41.2405 
 447   0.0000       1.520127        41.3648 
 448   0.0000       1.533708        41.7343 
 449   0.0000       1.536061        41.7983 
 450   0.0000       1.542142        41.9638 
 451   0.0000       1.548422        42.1347 
 452   0.0000       1.549449        42.1626 
 453   0.0000       1.558433        42.4071 
 454   0.0000       1.562370        42.5142 
 455   0.0000       1.570843        42.7448 
 456   0.0000       1.571790        42.7706 
 457   0.0000       1.577723        42.9320 
 458   0.0000       1.582100        43.0511 
 459   0.0000       1.583351        43.0852 
 460   0.0000       1.593291        43.3557 
 461   0.0000       1.601214        43.5712 
 462   0.0000       1.605042        43.6754 
 463   0.0000       1.607975        43.7552 
 464   0.0000       1.618174        44.0328 
 465   0.0000       1.621266        44.1169 
 466   0.0000       1.625346        44.2279 
 467   0.0000       1.631379        44.3921 
 468   0.0000       1.637610        44.5616 
 469   0.0000       1.640984        44.6534 
 470   0.0000       1.648269        44.8517 
 471   0.0000       1.655921        45.0599 
 472   0.0000       1.659202        45.1492 
 473   0.0000       1.662584        45.2412 
 474   0.0000       1.665622        45.3239 
 475   0.0000       1.676618        45.6231 
 476   0.0000       1.678480        45.6738 
 477   0.0000       1.686930        45.9037 
 478   0.0000       1.692335        46.0508 
 479   0.0000       1.693550        46.0838 
 480   0.0000       1.696166        46.1550 
 481   0.0000       1.705073        46.3974 
 482   0.0000       1.706429        46.4343 
 483   0.0000       1.713527        46.6274 
 484   0.0000       1.722718        46.8775 
 485   0.0000       1.726783        46.9881 
 486   0.0000       1.728937        47.0468 
 487   0.0000       1.741669        47.3932 
 488   0.0000       1.748977        47.5921 
 489   0.0000       1.749815        47.6149 
 490   0.0000       1.757955        47.8364 
 491   0.0000       1.764372        48.0110 
 492   0.0000       1.765776        48.0492 
 493   0.0000       1.769637        48.1543 
 494   0.0000       1.772282        48.2262 
 495   0.0000       1.777263        48.3618 
 496   0.0000       1.785096        48.5749 
 497   0.0000       1.790676        48.7268 
 498   0.0000       1.794891        48.8415 
 499   0.0000       1.799529        48.9677 
 500   0.0000       1.802387        49.0454 
 501   0.0000       1.809446        49.2375 
 502   0.0000       1.810175        49.2574 
 503   0.0000       1.816398        49.4267 
 504   0.0000       1.818715        49.4897 
 505   0.0000       1.822789        49.6006 
 506   0.0000       1.836358        49.9699 
 507   0.0000       1.844633        50.1950 
 508   0.0000       1.846252        50.2391 
 509   0.0000       1.849124        50.3172 
 510   0.0000       1.856640        50.5217 
 511   0.0000       1.859237        50.5924 
 512   0.0000       1.867726        50.8234 
 513   0.0000       1.876543        51.0633 
 514   0.0000       1.883541        51.2538 
 515   0.0000       1.885210        51.2992 
 516   0.0000       1.889850        51.4254 
 517   0.0000       1.892649        51.5016 
 518   0.0000       1.895291        51.5735 
 519   0.0000       1.902032        51.7569 
 520   0.0000       1.910196        51.9791 
 521   0.0000       1.911636        52.0183 
 522   0.0000       1.925423        52.3934 
 523   0.0000       1.926259        52.4162 
 524   0.0000       1.929623        52.5077 
 525   0.0000       1.934101        52.6296 
 526   0.0000       1.944009        52.8992 
 527   0.0000       1.945775        52.9472 
 528   0.0000       1.949183        53.0400 
 529   0.0000       1.958050        53.2813 
 530   0.0000       1.964068        53.4450 
 531   0.0000       1.968538        53.5666 
 532   0.0000       1.979650        53.8690 
 533   0.0000       1.983321        53.9689 
 534   0.0000       1.985976        54.0412 
 535   0.0000       1.995832        54.3093 
 536   0.0000       1.996538        54.3286 
 537   0.0000       2.001639        54.4674 
 538   0.0000       2.010019        54.6954 
 539   0.0000       2.021355        55.0039 
 540   0.0000       2.025684        55.1217 
 541   0.0000       2.034713        55.3674 
 542   0.0000       2.040098        55.5139 
 543   0.0000       2.044413        55.6313 
 544   0.0000       2.049830        55.7787 
 545   0.0000       2.060382        56.0658 
 546   0.0000       2.064893        56.1886 
 547   0.0000       2.073310        56.4176 
 548   0.0000       2.078731        56.5651 
 549   0.0000       2.080855        56.6229 
 550   0.0000       2.086923        56.7881 
 551   0.0000       2.091257        56.9060 
 552   0.0000       2.109804        57.4107 
 553   0.0000       2.114609        57.5414 
 554   0.0000       2.120347        57.6976 
 555   0.0000       2.126848        57.8745 
 556   0.0000       2.127933        57.9040 
 557   0.0000       2.137602        58.1671 
 558   0.0000       2.138225        58.1841 
 559   0.0000       2.156081        58.6699 
 560   0.0000       2.157652        58.7127 
 561   0.0000       2.162363        58.8409 
 562   0.0000       2.170630        59.0658 
 563   0.0000       2.177990        59.2661 
 564   0.0000       2.188519        59.5526 
 565   0.0000       2.197782        59.8047 
 566   0.0000       2.201927        59.9175 
 567   0.0000       2.207997        60.0826 
 568   0.0000       2.212105        60.1944 
 569   0.0000       2.222231        60.4700 
 570   0.0000       2.227143        60.6036 
 571   0.0000       2.233167        60.7676 
 572   0.0000       2.243142        61.0390 
 573   0.0000       2.247684        61.1626 
 574   0.0000       2.253460        61.3198 
 575   0.0000       2.264551        61.6216 
 576   0.0000       2.266789        61.6825 
 577   0.0000       2.273041        61.8526 
 578   0.0000       2.280315        62.0505 
 579   0.0000       2.285117        62.1812 
 580   0.0000       2.290367        62.3241 
 581   0.0000       2.292768        62.3894 
 582   0.0000       2.306260        62.7565 
 583   0.0000       2.318193        63.0812 
 584   0.0000       2.320968        63.1567 
 585   0.0000       2.336669        63.5840 
 586   0.0000       2.338452        63.6325 
 587   0.0000       2.342584        63.7450 
 588   0.0000       2.356026        64.1107 
 589   0.0000       2.369304        64.4720 
 590   0.0000       2.376991        64.6812 
 591   0.0000       2.379586        64.7518 
 592   0.0000       2.393985        65.1437 
 593   0.0000       2.395726        65.1910 
 594   0.0000       2.412814        65.6560 
 595   0.0000       2.416432        65.7545 
 596   0.0000       2.421923        65.9039 
 597   0.0000       2.431332        66.1599 
 598   0.0000       2.442268        66.4575 
 599   0.0000       2.447170        66.5909 
 600   0.0000       2.460123        66.9434 
 601   0.0000       2.466398        67.1141 
 602   0.0000       2.472409        67.2777 
 603   0.0000       2.483276        67.5734 
 604   0.0000       2.493457        67.8504 
 605   0.0000       2.495587        67.9084 
 606   0.0000       2.507031        68.2198 
 607   0.0000       2.515354        68.4463 
 608   0.0000       2.522341        68.6364 
 609   0.0000       2.545455        69.2653 
 610   0.0000       2.547489        69.3207 
 611   0.0000       2.563428        69.7544 
 612   0.0000       2.571653        69.9782 
 613   0.0000       2.577959        70.1498 
 614   0.0000       2.595742        70.6337 
 615   0.0000       2.600418        70.7610 
 616   0.0000       2.609599        71.0108 
 617   0.0000       2.627623        71.5012 
 618   0.0000       2.641144        71.8692 
 619   0.0000       2.649009        72.0832 
 620   0.0000       2.666126        72.5490 
 621   0.0000       2.673305        72.7443 
 622   0.0000       2.675907        72.8151 
 623   0.0000       2.680905        72.9511 
 624   0.0000       2.693598        73.2965 
 625   0.0000       2.702233        73.5315 
 626   0.0000       2.708676        73.7068 
 627   0.0000       2.716569        73.9216 
 628   0.0000       2.728231        74.2389 
 629   0.0000       2.736291        74.4583 
 630   0.0000       2.748810        74.7989 
 631   0.0000       2.758668        75.0672 
 632   0.0000       2.774872        75.5081 
 633   0.0000       2.778536        75.6078 
 634   0.0000       2.785629        75.8008 
 635   0.0000       2.787124        75.8415 
 636   0.0000       2.806938        76.3807 
 637   0.0000       2.811655        76.5090 
 638   0.0000       2.817428        76.6661 
 639   0.0000       2.850583        77.5683 
 640   0.0000       2.857548        77.7578 
 641   0.0000       2.873170        78.1829 
 642   0.0000       2.878742        78.3346 
 643   0.0000       2.890458        78.6534 
 644   0.0000       2.907602        79.1199 
 645   0.0000       2.922237        79.5181 
 646   0.0000       2.931339        79.7658 
 647   0.0000       2.934237        79.8446 
 648   0.0000       2.945171        80.1422 
 649   0.0000       2.960367        80.5557 
 650   0.0000       2.985600        81.2423 
 651   0.0000       2.991363        81.3991 
 652   0.0000       3.008017        81.8523 
 653   0.0000       3.022426        82.2444 
 654   0.0000       3.041192        82.7550 
 655   0.0000       3.054226        83.1097 
 656   0.0000       3.060302        83.2751 
 657   0.0000       3.076988        83.7291 
 658   0.0000       3.090963        84.1094 
 659   0.0000       3.099663        84.3461 
 660   0.0000       3.116665        84.8088 
 661   0.0000       3.129431        85.1561 
 662   0.0000       3.146460        85.6195 
 663   0.0000       3.162409        86.0535 
 664   0.0000       3.181945        86.5851 
 665   0.0000       3.189676        86.7955 
 666   0.0000       3.202030        87.1317 
 667   0.0000       3.213428        87.4418 
 668   0.0000       3.219123        87.5968 
 669   0.0000       3.240356        88.1746 
 670   0.0000       3.241647        88.2097 
 671   0.0000       3.250433        88.4488 
 672   0.0000       3.261025        88.7370 
 673   0.0000       3.267698        88.9186 
 674   0.0000       3.277442        89.1837 
 675   0.0000       3.287132        89.4474 
 676   0.0000       3.295866        89.6851 
 677   0.0000       3.302324        89.8608 
 678   0.0000       3.311667        90.1150 
 679   0.0000       3.327865        90.5558 
 680   0.0000       3.330281        90.6215 
 681   0.0000       3.338264        90.8388 
 682   0.0000       3.342489        90.9538 
 683   0.0000       3.346442        91.0613 
 684   0.0000       3.363045        91.5131 
 685   0.0000       3.366355        91.6032 
 686   0.0000       3.380506        91.9882 
 687   0.0000       3.394742        92.3756 
 688   0.0000       3.408824        92.7588 
 689   0.0000       3.423813        93.1667 
 690   0.0000       3.430818        93.3573 
 691   0.0000       3.443053        93.6902 
 692   0.0000       3.451145        93.9104 
 693   0.0000       3.456082        94.0448 
 694   0.0000       3.470287        94.4313 
 695   0.0000       3.479766        94.6893 
 696   0.0000       3.490007        94.9679 
 697   0.0000       3.493549        95.0643 
 698   0.0000       3.506861        95.4265 
 699   0.0000       3.511389        95.5498 
 700   0.0000       3.519343        95.7662 
 701   0.0000       3.527070        95.9764 
 702   0.0000       3.537411        96.2579 
 703   0.0000       3.546385        96.5020 
 704   0.0000       3.551458        96.6401 
 705   0.0000       3.563108        96.9571 
 706   0.0000       3.573631        97.2434 
 707   0.0000       3.580944        97.4424 
 708   0.0000       3.587321        97.6160 
 709   0.0000       3.593419        97.7819 
 710   0.0000       3.600562        97.9763 
 711   0.0000       3.612226        98.2937 
 712   0.0000       3.620533        98.5197 
 713   0.0000       3.625613        98.6579 
 714   0.0000       3.635017        98.9139 
 715   0.0000       3.635827        98.9359 
 716   0.0000       3.644813        99.1804 
 717   0.0000       3.657580        99.5278 
 718   0.0000       3.672259        99.9272 
 719   0.0000       3.676621       100.0459 
 720   0.0000       3.682323       100.2011 
 721   0.0000       3.688572       100.3712 
 722   0.0000       3.701467       100.7220 
 723   0.0000       3.712633       101.0259 
 724   0.0000       3.718233       101.1783 
 725   0.0000       3.721487       101.2668 
 726   0.0000       3.725461       101.3749 
 727   0.0000       3.734790       101.6288 
 728   0.0000       3.751333       102.0789 
 729   0.0000       3.753869       102.1480 
 730   0.0000       3.761967       102.3683 
 731   0.0000       3.763525       102.4107 
 732   0.0000       3.773413       102.6798 
 733   0.0000       3.781423       102.8978 
 734   0.0000       3.794533       103.2545 
 735   0.0000       3.800021       103.4038 
 736   0.0000       3.805813       103.5614 
 737   0.0000       3.812412       103.7410 
 738   0.0000       3.817145       103.8698 
 739   0.0000       3.820817       103.9697 
 740   0.0000       3.823220       104.0351 
 741   0.0000       3.832285       104.2818 
 742   0.0000       3.842267       104.5534 
 743   0.0000       3.852752       104.8387 
 744   0.0000       3.863317       105.1262 
 745   0.0000       3.873675       105.4081 
 746   0.0000       3.881828       105.6299 
 747   0.0000       3.885899       105.7407 
 748   0.0000       3.895722       106.0080 
 749   0.0000       3.907407       106.3260 
 750   0.0000       3.910407       106.4076 
 751   0.0000       3.913088       106.4805 
 752   0.0000       3.918133       106.6178 
 753   0.0000       3.920348       106.6781 
 754   0.0000       3.930170       106.9454 
 755   0.0000       3.936361       107.1138 
 756   0.0000       3.948213       107.4363 
 757   0.0000       3.953725       107.5863 
 758   0.0000       3.959862       107.7533 
 759   0.0000       3.962944       107.8372 
 760   0.0000       3.973542       108.1256 
 761   0.0000       3.982929       108.3810 
 762   0.0000       3.988388       108.5296 
 763   0.0000       3.994601       108.6986 
 764   0.0000       4.000014       108.8459 
 765   0.0000       4.009515       109.1044 
 766   0.0000       4.012470       109.1849 
 767   0.0000       4.024917       109.5236 
 768   0.0000       4.030477       109.6748 
 769   0.0000       4.035943       109.8236 
 770   0.0000       4.040595       109.9502 
 771   0.0000       4.053571       110.3033 
 772   0.0000       4.060890       110.5024 
 773   0.0000       4.070275       110.7578 
 774   0.0000       4.080920       111.0475 
 775   0.0000       4.093867       111.3998 
 776   0.0000       4.099159       111.5438 
 777   0.0000       4.101000       111.5939 
 778   0.0000       4.107298       111.7653 
 779   0.0000       4.117645       112.0468 
 780   0.0000       4.128535       112.3431 
 781   0.0000       4.129800       112.3776 
 782   0.0000       4.135958       112.5451 
 783   0.0000       4.147526       112.8599 
 784   0.0000       4.153723       113.0285 
 785   0.0000       4.157952       113.1436 
 786   0.0000       4.175643       113.6250 
 787   0.0000       4.180624       113.7606 
 788   0.0000       4.190664       114.0338 
 789   0.0000       4.203863       114.3929 
 790   0.0000       4.205784       114.4452 
 791   0.0000       4.209435       114.5446 
 792   0.0000       4.220296       114.8401 
 793   0.0000       4.227841       115.0454 
 794   0.0000       4.238394       115.3326 
 795   0.0000       4.256313       115.8202 
 796   0.0000       4.259452       115.9056 
 797   0.0000       4.262737       115.9950 
 798   0.0000       4.269177       116.1702 
 799   0.0000       4.280674       116.4831 
 800   0.0000       4.286452       116.6403 
 801   0.0000       4.298057       116.9561 
 802   0.0000       4.309679       117.2723 
 803   0.0000       4.312984       117.3623 
 804   0.0000       4.316259       117.4514 
 805   0.0000       4.333698       117.9259 
 806   0.0000       4.342008       118.1520 
 807   0.0000       4.351779       118.4179 
 808   0.0000       4.359538       118.6291 
 809   0.0000       4.369904       118.9111 
 810   0.0000       4.381563       119.2284 
 811   0.0000       4.387901       119.4009 
 812   0.0000       4.398164       119.6801 
 813   0.0000       4.411664       120.0475 
 814   0.0000       4.416820       120.1878 
 815   0.0000       4.424063       120.3849 
 816   0.0000       4.436154       120.7139 
 817   0.0000       4.441462       120.8583 
 818   0.0000       4.452351       121.1546 
 819   0.0000       4.458842       121.3313 
 820   0.0000       4.465798       121.5205 
 821   0.0000       4.477940       121.8509 
 822   0.0000       4.483754       122.0092 
 823   0.0000       4.502632       122.5229 
 824   0.0000       4.513889       122.8292 
 825   0.0000       4.525310       123.1400 
 826   0.0000       4.531466       123.3075 
 827   0.0000       4.535728       123.4234 
 828   0.0000       4.546389       123.7135 
 829   0.0000       4.556540       123.9898 
 830   0.0000       4.560351       124.0935 
 831   0.0000       4.571400       124.3941 
 832   0.0000       4.592738       124.9747 
 833   0.0000       4.595149       125.0404 
 834   0.0000       4.609843       125.4402 
 835   0.0000       4.615406       125.5916 
 836   0.0000       4.628850       125.9574 
 837   0.0000       4.643702       126.3615 
 838   0.0000       4.655784       126.6903 
 839   0.0000       4.657671       126.7417 
 840   0.0000       4.682048       127.4050 
 841   0.0000       4.685243       127.4919 
 842   0.0000       4.697763       127.8326 
 843   0.0000       4.712845       128.2430 
 844   0.0000       4.720893       128.4620 
 845   0.0000       4.727698       128.6472 
 846   0.0000       4.745449       129.1302 
 847   0.0000       4.754772       129.3839 
 848   0.0000       4.764613       129.6517 
 849   0.0000       4.772616       129.8695 
 850   0.0000       4.789731       130.3352 
 851   0.0000       4.798276       130.5677 
 852   0.0000       4.805628       130.7678 
 853   0.0000       4.810735       130.9068 
 854   0.0000       4.825464       131.3075 
 855   0.0000       4.845415       131.8504 
 856   0.0000       4.848427       131.9324 
 857   0.0000       4.868131       132.4686 
 858   0.0000       4.871235       132.5530 
 859   0.0000       4.887853       133.0052 
 860   0.0000       4.897825       133.2766 
 861   0.0000       4.913713       133.7089 
 862   0.0000       4.923621       133.9785 
 863   0.0000       4.928994       134.1248 
 864   0.0000       4.941604       134.4679 
 865   0.0000       4.949156       134.6734 
 866   0.0000       4.959336       134.9504 
 867   0.0000       4.981813       135.5620 
 868   0.0000       4.996033       135.9490 
 869   0.0000       5.004416       136.1771 
 870   0.0000       5.014016       136.4383 
 871   0.0000       5.020296       136.6092 
 872   0.0000       5.037470       137.0765 
 873   0.0000       5.041785       137.1940 
 874   0.0000       5.053259       137.5062 
 875   0.0000       5.058781       137.6564 
 876   0.0000       5.074328       138.0795 
 877   0.0000       5.088147       138.4555 
 878   0.0000       5.100112       138.7811 
 879   0.0000       5.111311       139.0858 
 880   0.0000       5.129875       139.5910 
 881   0.0000       5.141434       139.9055 
 882   0.0000       5.150046       140.1399 
 883   0.0000       5.160867       140.4343 
 884   0.0000       5.167246       140.6079 
 885   0.0000       5.185328       141.1000 
 886   0.0000       5.207012       141.6900 
 887   0.0000       5.211723       141.8182 
 888   0.0000       5.226335       142.2158 
 889   0.0000       5.228577       142.2768 
 890   0.0000       5.241305       142.6232 
 891   0.0000       5.256484       143.0362 
 892   0.0000       5.280153       143.6803 
 893   0.0000       5.295253       144.0912 
 894   0.0000       5.300886       144.2444 
 895   0.0000       5.327798       144.9768 
 896   0.0000       5.330687       145.0554 
 897   0.0000       5.338048       145.2557 
 898   0.0000       5.359758       145.8464 
 899   0.0000       5.373452       146.2191 
 900   0.0000       5.379479       146.3831 
 901   0.0000       5.385505       146.5470 
 902   0.0000       5.391930       146.7219 
 903   0.0000       5.406844       147.1277 
 904   0.0000       5.413835       147.3180 
 905   0.0000       5.419075       147.4605 
 906   0.0000       5.427351       147.6857 
 907   0.0000       5.439456       148.0151 
 908   0.0000       5.458199       148.5251 
 909   0.0000       5.461456       148.6138 
 910   0.0000       5.495418       149.5379 
 911   0.0000       5.506593       149.8420 
 912   0.0000       5.517705       150.1444 
 913   0.0000       5.531660       150.5241 
 914   0.0000       5.543396       150.8435 
 915   0.0000       5.555028       151.1600 
 916   0.0000       5.564908       151.4288 
 917   0.0000       5.576796       151.7523 
 918   0.0000       5.586471       152.0156 
 919   0.0000       5.595074       152.2497 
 920   0.0000       5.614465       152.7774 
 921   0.0000       5.622383       152.9928 
 922   0.0000       5.628292       153.1536 
 923   0.0000       5.650626       153.7614 
 924   0.0000       5.654939       153.8787 
 925   0.0000       5.674195       154.4027 
 926   0.0000       5.676999       154.4790 
 927   0.0000       5.691630       154.8771 
 928   0.0000       5.692168       154.8918 
 929   0.0000       5.711208       155.4099 
 930   0.0000       5.717968       155.5938 
 931   0.0000       5.728378       155.8771 
 932   0.0000       5.738244       156.1456 
 933   0.0000       5.749363       156.4481 
 934   0.0000       5.769509       156.9963 
 935   0.0000       5.782121       157.3395 
 936   0.0000       5.795696       157.7089 
 937   0.0000       5.811736       158.1454 
 938   0.0000       5.820495       158.3837 
 939   0.0000       5.836022       158.8062 
 940   0.0000       5.853273       159.2756 
 941   0.0000       5.879483       159.9889 
 942   0.0000       5.904562       160.6713 
 943   0.0000       5.929817       161.3585 
 944   0.0000       5.947798       161.8478 
 945   0.0000       5.997816       163.2089 
 946   0.0000       6.031783       164.1332 
 947   0.0000       6.111299       166.2969 
 948   0.0000       6.122630       166.6052 
 949   0.0000       6.128822       166.7737 
 950   0.0000       6.164039       167.7320 
 951   0.0000       6.172090       167.9511 
 952   0.0000       6.197205       168.6345 
 953   0.0000       6.209175       168.9603 
 954   0.0000       6.225403       169.4018 
 955   0.0000       6.234037       169.6368 
 956   0.0000       6.251701       170.1174 
 957   0.0000       6.260387       170.3538 
 958   0.0000       6.273649       170.7147 
 959   0.0000       6.304903       171.5651 
 960   0.0000       6.316645       171.8847 
 961   0.0000       6.325982       172.1387 
 962   0.0000       6.334837       172.3797 
 963   0.0000       6.361943       173.1173 
 964   0.0000       6.393946       173.9881 
 965   0.0000       6.402031       174.2081 
 966   0.0000       6.438710       175.2062 
 967   0.0000       6.460508       175.7994 
 968   0.0000       6.519469       177.4038 
 969   0.0000       6.541864       178.0132 
 970   0.0000       6.601968       179.6487 
 971   0.0000       6.693401       182.1367 
 972   0.0000       6.839307       186.1070 
 973   0.0000       6.864618       186.7958 
 974   0.0000       6.878495       187.1734 
 975   0.0000       6.899982       187.7581 
 976   0.0000       6.947291       189.0454 
 977   0.0000       6.954757       189.2486 
 978   0.0000       6.963612       189.4895 
 979   0.0000       6.999018       190.4530 
 980   0.0000       7.021595       191.0673 
 981   0.0000       7.031681       191.3418 
 982   0.0000       7.057584       192.0466 
 983   0.0000       7.078614       192.6189 
 984   0.0000       7.172219       195.1660 
 985   0.0000       7.185953       195.5397 
 986   0.0000       7.347067       199.9239 
 987   0.0000       7.390764       201.1129 
 988   0.0000       7.457724       202.9350 
 989   0.0000       7.507228       204.2821 
 990   0.0000       7.559154       205.6950 
 991   0.0000       7.629877       207.6195 
 992   0.0000       7.664689       208.5668 
 993   0.0000       7.735317       210.4887 
 994   0.0000       7.828303       213.0189 
 995   0.0000       7.917078       215.4346 
 996   0.0000       8.021992       218.2895 
 997   0.0000       8.094837       220.2717 
 998   0.0000       8.302464       225.9215 
 999   0.0000       9.424100       256.4428 
 1000   0.0000       9.447331       257.0750 
 1001   0.0000       9.451938       257.2003 
 1002   0.0000       9.461678       257.4653 
 1003   0.0000       9.478249       257.9163 
 1004   0.0000       9.502478       258.5756 
 1005   0.0000       9.711953       264.2757 
 1006   0.0000      10.093314       274.6530 
 1007   0.0000      10.114480       275.2290 
 1008   0.0000      10.128471       275.6097 
 1009   0.0000      10.212296       277.8907 
 1010   0.0000      10.217511       278.0326 
 1011   0.0000      10.255732       279.0727 
 1012   0.0000      10.370083       282.1843 
 1013   0.0000      10.413188       283.3572 
 1014   0.0000      10.520478       286.2768 
 1015   0.0000      16.397348       446.1945 
 1016   0.0000      17.625352       479.6102 
 1017   0.0000      18.145288       493.7584 
 1018   0.0000      18.366589       499.7803 
 1019   0.0000      18.693432       508.6742 
 1020   0.0000      18.812012       511.9009 
 1021   0.0000      18.972943       516.2800 
 1022   0.0000      20.443730       556.3022 
 1023   0.0000      21.038306       572.4814 
 1024   0.0000      21.989854       598.3744 

                 SPIN DOWN ORBITALS
  NO   OCC          E(Eh)            E(eV) 
   0   1.0000    -261.558828     -7117.3776 
   1   1.0000    -104.782683     -2851.2818 
   2   1.0000    -104.780155     -2851.2130 
   3   1.0000    -104.779836     -2851.2043 
   4   1.0000     -32.068172      -872.6193 
   5   1.0000     -27.546132      -749.5684 
   6   1.0000     -27.546061      -749.5664 
   7   1.0000     -27.545763      -749.5583 
   8   1.0000     -20.574857      -559.8703 
   9   1.0000     -11.411123      -310.5124 
  10   1.0000     -11.316026      -307.9247 
  11   1.0000     -11.267629      -306.6078 
  12   1.0000     -11.263911      -306.5066 
  13   1.0000     -11.261799      -306.4491 
  14   1.0000     -11.256387      -306.3019 
  15   1.0000     -11.253282      -306.2174 
  16   1.0000     -11.247538      -306.0611 
  17   1.0000     -10.509228      -285.9706 
  18   1.0000     -10.506658      -285.9007 
  19   1.0000     -10.506314      -285.8913 
  20   1.0000      -7.975119      -217.0140 
  21   1.0000      -7.974506      -216.9973 
  22   1.0000      -7.974439      -216.9955 
  23   1.0000      -7.972558      -216.9443 
  24   1.0000      -7.972295      -216.9372 
  25   1.0000      -7.971904      -216.9265 
  26   1.0000      -7.971811      -216.9240 
  27   1.0000      -7.971524      -216.9162 
  28   1.0000      -7.971435      -216.9138 
  29   1.0000      -4.143159      -112.7411 
  30   1.0000      -2.664808       -72.5131 
  31   1.0000      -2.664774       -72.5122 
  32   1.0000      -2.664205       -72.4967 
  33   1.0000      -1.419220       -38.6189 
  34   1.0000      -1.154875       -31.4257 
  35   1.0000      -1.088736       -29.6260 
  36   1.0000      -1.041439       -28.3390 
  37   1.0000      -1.034385       -28.1471 
  38   1.0000      -1.029403       -28.0115 
  39   1.0000      -1.027485       -27.9593 
  40   1.0000      -1.000520       -27.2255 
  41   1.0000      -0.978363       -26.6226 
  42   1.0000      -0.918382       -24.9904 
  43   1.0000      -0.811019       -22.0690 
  44   1.0000      -0.750680       -20.4270 
  45   1.0000      -0.698107       -18.9965 
  46   1.0000      -0.693474       -18.8704 
  47   1.0000      -0.683540       -18.6001 
  48   1.0000      -0.667370       -18.1600 
  49   1.0000      -0.639268       -17.3954 
  50   1.0000      -0.620035       -16.8720 
  51   1.0000      -0.602797       -16.4029 
  52   1.0000      -0.597922       -16.2703 
  53   1.0000      -0.582705       -15.8562 
  54   1.0000      -0.574879       -15.6433 
  55   1.0000      -0.570362       -15.5203 
  56   1.0000      -0.563851       -15.3432 
  57   1.0000      -0.551932       -15.0188 
  58   1.0000      -0.547248       -14.8914 
  59   1.0000      -0.539844       -14.6899 
  60   1.0000      -0.514892       -14.0109 
  61   1.0000      -0.512269       -13.9395 
  62   1.0000      -0.486819       -13.2470 
  63   1.0000      -0.474448       -12.9104 
  64   1.0000      -0.473185       -12.8760 
  65   1.0000      -0.444975       -12.1084 
  66   1.0000      -0.441924       -12.0254 
  67   1.0000      -0.439944       -11.9715 
  68   1.0000      -0.425458       -11.5773 
  69   1.0000      -0.420473       -11.4417 
  70   1.0000      -0.406132       -11.0514 
  71   1.0000      -0.371953       -10.1214 
  72   0.0000       0.011340         0.3086 
  73   0.0000       0.021769         0.5924 
  74   0.0000       0.022750         0.6191 
  75   0.0000       0.030258         0.8234 
  76   0.0000       0.038630         1.0512 
  77   0.0000       0.039589         1.0773 
  78   0.0000       0.042205         1.1485 
  79   0.0000       0.043800         1.1919 
  80   0.0000       0.044831         1.2199 
  81   0.0000       0.052611         1.4316 
  82   0.0000       0.056306         1.5322 
  83   0.0000       0.059379         1.6158 
  84   0.0000       0.063417         1.7257 
  85   0.0000       0.065879         1.7926 
  86   0.0000       0.067895         1.8475 
  87   0.0000       0.072493         1.9726 
  88   0.0000       0.074627         2.0307 
  89   0.0000       0.078374         2.1327 
  90   0.0000       0.090535         2.4636 
  91   0.0000       0.091307         2.4846 
  92   0.0000       0.091787         2.4977 
  93   0.0000       0.098594         2.6829 
  94   0.0000       0.101227         2.7545 
  95   0.0000       0.102231         2.7818 
  96   0.0000       0.107933         2.9370 
  97   0.0000       0.113697         3.0938 
  98   0.0000       0.114868         3.1257 
  99   0.0000       0.116358         3.1663 
 100   0.0000       0.117352         3.1933 
 101   0.0000       0.120700         3.2844 
 102   0.0000       0.121198         3.2980 
 103   0.0000       0.123194         3.3523 
 104   0.0000       0.125352         3.4110 
 105   0.0000       0.127102         3.4586 
 106   0.0000       0.128809         3.5051 
 107   0.0000       0.131535         3.5792 
 108   0.0000       0.134287         3.6541 
 109   0.0000       0.135161         3.6779 
 110   0.0000       0.139500         3.7960 
 111   0.0000       0.140607         3.8261 
 112   0.0000       0.143209         3.8969 
 113   0.0000       0.149054         4.0560 
 114   0.0000       0.151181         4.1138 
 115   0.0000       0.152745         4.1564 
 116   0.0000       0.156822         4.2674 
 117   0.0000       0.161467         4.3937 
 118   0.0000       0.165827         4.5124 
 119   0.0000       0.168024         4.5722 
 120   0.0000       0.169450         4.6110 
 121   0.0000       0.172220         4.6863 
 122   0.0000       0.176415         4.8005 
 123   0.0000       0.177944         4.8421 
 124   0.0000       0.182155         4.9567 
 125   0.0000       0.188778         5.1369 
 126   0.0000       0.189376         5.1532 
 127   0.0000       0.191505         5.2111 
 128   0.0000       0.196918         5.3584 
 129   0.0000       0.202658         5.5146 
 130   0.0000       0.203200         5.5294 
 131   0.0000       0.206464         5.6182 
 132   0.0000       0.210255         5.7213 
 133   0.0000       0.210935         5.7398 
 134   0.0000       0.214305         5.8315 
 135   0.0000       0.218641         5.9495 
 136   0.0000       0.222605         6.0574 
 137   0.0000       0.227271         6.1844 
 138   0.0000       0.230328         6.2675 
 139   0.0000       0.233194         6.3455 
 140   0.0000       0.236814         6.4440 
 141   0.0000       0.240105         6.5336 
 142   0.0000       0.244893         6.6639 
 143   0.0000       0.245975         6.6933 
 144   0.0000       0.250628         6.8199 
 145   0.0000       0.254396         6.9225 
 146   0.0000       0.255771         6.9599 
 147   0.0000       0.259295         7.0558 
 148   0.0000       0.264146         7.1878 
 149   0.0000       0.267213         7.2712 
 150   0.0000       0.273768         7.4496 
 151   0.0000       0.275226         7.4893 
 152   0.0000       0.280186         7.6242 
 153   0.0000       0.286190         7.7876 
 154   0.0000       0.289141         7.8679 
 155   0.0000       0.293006         7.9731 
 156   0.0000       0.300619         8.1803 
 157   0.0000       0.302554         8.2329 
 158   0.0000       0.304222         8.2783 
 159   0.0000       0.308417         8.3924 
 160   0.0000       0.311824         8.4852 
 161   0.0000       0.318055         8.6547 
 162   0.0000       0.320912         8.7325 
 163   0.0000       0.327615         8.9148 
 164   0.0000       0.330518         8.9939 
 165   0.0000       0.333080         9.0636 
 166   0.0000       0.334711         9.1079 
 167   0.0000       0.340899         9.2763 
 168   0.0000       0.344076         9.3628 
 169   0.0000       0.348164         9.4740 
 170   0.0000       0.350457         9.5364 
 171   0.0000       0.359289         9.7767 
 172   0.0000       0.362227         9.8567 
 173   0.0000       0.364087         9.9073 
 174   0.0000       0.365110         9.9351 
 175   0.0000       0.368185        10.0188 
 176   0.0000       0.369774        10.0621 
 177   0.0000       0.372612        10.1393 
 178   0.0000       0.376125        10.2349 
 179   0.0000       0.380265        10.3475 
 180   0.0000       0.387634        10.5481 
 181   0.0000       0.388466        10.5707 
 182   0.0000       0.392091        10.6693 
 183   0.0000       0.395633        10.7657 
 184   0.0000       0.399793        10.8789 
 185   0.0000       0.400591        10.9006 
 186   0.0000       0.403862        10.9897 
 187   0.0000       0.405798        11.0423 
 188   0.0000       0.408978        11.1289 
 189   0.0000       0.409726        11.1492 
 190   0.0000       0.415180        11.2976 
 191   0.0000       0.418803        11.3962 
 192   0.0000       0.421462        11.4686 
 193   0.0000       0.425469        11.5776 
 194   0.0000       0.433483        11.7957 
 195   0.0000       0.435464        11.8496 
 196   0.0000       0.440326        11.9819 
 197   0.0000       0.441855        12.0235 
 198   0.0000       0.451648        12.2900 
 199   0.0000       0.453766        12.3476 
 200   0.0000       0.456108        12.4113 
 201   0.0000       0.460092        12.5197 
 202   0.0000       0.462892        12.5959 
 203   0.0000       0.467299        12.7158 
 204   0.0000       0.469218        12.7681 
 205   0.0000       0.473668        12.8892 
 206   0.0000       0.477314        12.9884 
 207   0.0000       0.478654        13.0248 
 208   0.0000       0.482216        13.1218 
 209   0.0000       0.485098        13.2002 
 210   0.0000       0.487287        13.2598 
 211   0.0000       0.487671        13.2702 
 212   0.0000       0.495784        13.4910 
 213   0.0000       0.496544        13.5117 
 214   0.0000       0.501859        13.6563 
 215   0.0000       0.506345        13.7783 
 216   0.0000       0.508381        13.8338 
 217   0.0000       0.513346        13.9689 
 218   0.0000       0.514357        13.9964 
 219   0.0000       0.514763        14.0074 
 220   0.0000       0.517778        14.0895 
 221   0.0000       0.520456        14.1623 
 222   0.0000       0.524433        14.2706 
 223   0.0000       0.529748        14.4152 
 224   0.0000       0.532982        14.5032 
 225   0.0000       0.534663        14.5489 
 226   0.0000       0.538556        14.6549 
 227   0.0000       0.545089        14.8326 
 228   0.0000       0.546290        14.8653 
 229   0.0000       0.550655        14.9841 
 230   0.0000       0.552117        15.0239 
 231   0.0000       0.556743        15.1497 
 232   0.0000       0.560745        15.2587 
 233   0.0000       0.562783        15.3141 
 234   0.0000       0.568817        15.4783 
 235   0.0000       0.570504        15.5242 
 236   0.0000       0.572171        15.5696 
 237   0.0000       0.579075        15.7574 
 238   0.0000       0.581450        15.8221 
 239   0.0000       0.585761        15.9394 
 240   0.0000       0.592343        16.1185 
 241   0.0000       0.595034        16.1917 
 242   0.0000       0.601695        16.3730 
 243   0.0000       0.602641        16.3987 
 244   0.0000       0.606952        16.5160 
 245   0.0000       0.611369        16.6362 
 246   0.0000       0.614624        16.7248 
 247   0.0000       0.618613        16.8333 
 248   0.0000       0.622216        16.9314 
 249   0.0000       0.623451        16.9650 
 250   0.0000       0.631314        17.1789 
 251   0.0000       0.635886        17.3033 
 252   0.0000       0.638549        17.3758 
 253   0.0000       0.644488        17.5374 
 254   0.0000       0.645749        17.5717 
 255   0.0000       0.649232        17.6665 
 256   0.0000       0.649960        17.6863 
 257   0.0000       0.653656        17.7869 
 258   0.0000       0.655888        17.8476 
 259   0.0000       0.659282        17.9400 
 260   0.0000       0.663254        18.0481 
 261   0.0000       0.668348        18.1867 
 262   0.0000       0.674612        18.3571 
 263   0.0000       0.678109        18.4523 
 264   0.0000       0.679441        18.4885 
 265   0.0000       0.687151        18.6983 
 266   0.0000       0.691260        18.8102 
 267   0.0000       0.695515        18.9259 
 268   0.0000       0.698499        19.0071 
 269   0.0000       0.704102        19.1596 
 270   0.0000       0.705533        19.1985 
 271   0.0000       0.714913        19.4538 
 272   0.0000       0.717029        19.5114 
 273   0.0000       0.722713        19.6660 
 274   0.0000       0.731651        19.9092 
 275   0.0000       0.736037        20.0286 
 276   0.0000       0.739161        20.1136 
 277   0.0000       0.741089        20.1661 
 278   0.0000       0.746075        20.3017 
 279   0.0000       0.748633        20.3713 
 280   0.0000       0.754503        20.5311 
 281   0.0000       0.760310        20.6891 
 282   0.0000       0.765312        20.8252 
 283   0.0000       0.772191        21.0124 
[...]
  | sigma^2 in % of trace(Dpq) retained ...   1.34e-01
  | Av. % of trace(Di) retained         ...  99.998508125189
  | Av. % of trace(Dp) retained         ...  99.999997433861
  | sigma^2 in % of trace(Di) retained  ...   7.58e-07
  | sigma^2 in % of trace(Dp) retained  ...   4.35e-12
 Distributions of % trace(Dij) recovered:
  |       >= 99.9  ...   105 ( 20.8 % of all IJ-pairs)
  |   [80.0, 90.0) ...    32 (  6.3 % of all IJ-pairs)
  |   [90.0, 99.0) ...   273 ( 54.0 % of all IJ-pairs)
  |   [99.0, 99.9) ...    96 ( 19.0 % of all IJ-pairs)
 Distributions of % trace(Dip) recovered:
  |   [70.0, 80.0) ...     1 (  0.8 % of all IP-pairs)
  |   [80.0, 90.0) ...    15 ( 12.7 % of all IP-pairs)
  |   [90.0, 99.0) ...    60 ( 50.8 % of all IP-pairs)
  |   [99.0, 99.9) ...    42 ( 35.6 % of all IP-pairs)
 Distributions of % trace(Dpq) recovered:
  |       >= 99.9  ...     5 ( 33.3 % of all PQ-pairs)
  |   [99.0, 99.9) ...    10 ( 66.7 % of all PQ-pairs)
 Distributions of % trace(Di) recovered :
  |       >= 99.9  ...    43 (100.0 % of all I-pairs )
 Distributions of % trace(Dp) recovered :
  |       >= 99.9  ...     5 (100.0 % of all P-pairs )

                       ===========================
                       1112 OF 1720 PAIRS ARE KEPT
                       ===========================

 Initial PAO correlation energy (all pairs)    ...  -2.6947383595 Eh
 Energy constituents in PAO basis (Eh):
  | Vijab(+0) ...  -2.2661674618
  | Viab (-1) ...  -0.1749722679
  | Vab  (-2) ...  -0.0573585870
  | Va   (-1) ...  -0.0000428344
  | Vija (+1) ...  -0.0721907523
  | Vij  (+2) ...  -0.0155110909
  | Via  (+0) ...  -0.1083355884
  | Vi   (+1) ...  -0.0001597768
 Initial PNO correlation energy                ...  -2.6596414826 Eh
 Energy constituents in PNO basis (Eh):
  | Vijab(+0) ...  -2.2471144301 (err=  0.0190530316)
  | Viab (-1) ...  -0.1605856077 (err=  0.0143866601)
  | Vab  (-2) ...  -0.0569072305 (err=  0.0004513565)
  | Va   (-1) ...  -0.0000248597 (err=  0.0000179747)
  | Vija (+1) ...  -0.0711671273 (err=  0.0010236250)
  | Vij  (+2) ...  -0.0154555333 (err=  0.0000555576)
  | Via  (+0) ...  -0.1082273752 (err=  0.0001082131)
  | Vi   (+1) ...  -0.0001593187 (err=  0.0000004581)
 Sum of total truncation errors ...   0.0350968769 Eh
  | Pair screening ...   0.0120234010 Eh
  | PNO truncation ...   0.0230734759 Eh

 UMP2 correlation energy (PAO) ...  -2.6897801558
  | alpha-alpha ...  -0.3869229532 (NP_aa=  933)
  | alpha-beta  ...  -1.9955498805 (NP_ab= 1695)
  | beta -beta  ...  -0.3073073221 (NP_bb=  729)
 UMP2 correlation energy (PNO) ...  -2.6543047689
  | alpha-alpha ...  -0.3746877542 (err=  0.0122351990, NP_aa=  591)
  | alpha-beta  ...  -1.9764810198 (err=  0.0190688607, NP_ab= 1087)
  | beta -beta  ...  -0.3031359949 (err=  0.0041713272, NP_bb=  463)
 Sum of total UMP2 truncation errors ...   0.0354753869 Eh
  | Pair screening ...   0.0120358311 Eh
  | PNO truncation ...   0.0234395558 Eh
 Timing for NEV-PNO construction (sec.)
  | Intermediate construction  ..           45.874
  | Amplitude construction     ..           66.821
  | Total time                 ..          112.695
 Making pair pair interaction lists ...      ok
 Total size for 2-ext PNO integrals ...     11.1 MB
Checking the number of SOMO/SOMO doubles PNOs ... 
 #Truncate: (72, 72)[175] -> [85] .. 
 #Truncate: (73, 73)[180] -> [85] .. 
 #Truncate: (74, 74)[175] -> [85] .. 
 #Truncate: (75, 75)[175] -> [85] .. 
 #Truncate: (76, 76)[177] -> [85] .. 

--------------------------------
LOCAL RI TRANSFORMATION (VABPAO)
--------------------------------

Number of PAOs:    1030
Basis functions:   1025 (343 shells)
Aux. functions:    2424 (644 shells)

Processing maps (0.0 sec)
Average map sizes:
   Aux shells -> PAOs           1030.0
   PAOs       -> AO shells       343.0

Calculating integrals (191.1 sec, 37370.165 MB)
Finished
-----------------------------
LOCAL RI TRANSFORMATION (IJV)
-----------------------------

Orbital window:      29 to 76
Basis functions:   1025 (343 shells)
Aux. functions:    2424 (644 shells)

Processing maps (0.0 sec)
Average map sizes:
   Aux shells -> MOs(i)           46.9
   Aux shells -> MOs(j)           48.0
   MOs        -> AO shells       341.1

Calculating integrals (23.3 sec, 41.731 MB)
Sorting integrals (0.3 sec, 41.704 MB)
Total time for the integral transformation: 23.7 sec


-------------------------------------
Pair Pair Term precalculation with     
RI-(ij|mn) and (im|jn) transformation  
ON THE FLY                             
-------------------------------------

   IBatch   1 (of   3)              ... done ( 1093.910 sec)
   IBatch   2 (of   3)              ... done ( 1375.257 sec)
   IBatch   3 (of   3)              ... done (   41.858 sec)
Total EXT                           ...        2511.026 sec

---------------------
RI-PNO TRANSFORMATION
---------------------

Total Number of PNOs                   ... 34633
Total Number of IJ-PNOs                ... 30456
Total Number of IP-PNOs                ...  3224
Total Number of PQ-PNOs                ...   953
Total Number of IJ-pairs               ...   969
Total Number of PI-pairs               ...   118
Total Number of PQ-pairs               ...    25
Average number of PNOs per pair        ...    31
Maximal number of PNOs per pair        ...    85
>> Statistics for ij-pairs..
   #pairs with  1 -  5 PNOs   :    0
   #pairs with  6 - 10 PNOs   :    0
   #pairs with 11 - 15 PNOs   :   56
   #pairs with 16 - 20 PNOs   :  248
   #pairs with 21 - 25 PNOs   :  152
   #pairs with 26 - 30 PNOs   :  152
   #pairs with 31 - 35 PNOs   :   68
   #pairs with 36 - 40 PNOs   :   42
   #pairs with 41 - 45 PNOs   :   60
   #pairs with 46 - 50 PNOs   :   20
   #pairs with 51 - 55 PNOs   :   35
   #pairs with 56 - 60 PNOs   :   55
   #pairs with 61 - 65 PNOs   :   76
   #pairs with 66 - 70 PNOs   :    2
   #pairs with 76 - 80 PNOs   :    1
   #pairs with 81 - 85 PNOs   :    2
>> Statistics for ip-pairs..
   #pairs with  1 -  5 PNOs   :    0
   #pairs with  6 - 10 PNOs   :    1
   #pairs with 11 - 15 PNOs   :   16
   #pairs with 16 - 20 PNOs   :    4
   #pairs with 21 - 25 PNOs   :   27
   #pairs with 26 - 30 PNOs   :   12
   #pairs with 31 - 35 PNOs   :   45
   #pairs with 36 - 40 PNOs   :   13
   #pairs with 41 - 45 PNOs   :    0
   #pairs with 46 - 50 PNOs   :    0
>> Statistics for pq-pairs..
   #pairs with  1 -  5 PNOs   :    0
   #pairs with  6 - 10 PNOs   :    0
   #pairs with 11 - 15 PNOs   :    0
   #pairs with 16 - 20 PNOs   :    0
   #pairs with 21 - 25 PNOs   :   10
   #pairs with 26 - 30 PNOs   :   10
   #pairs with 31 - 35 PNOs   :    0
   #pairs with 36 - 40 PNOs   :    0
   #pairs with 41 - 45 PNOs   :    0
   #pairs with 46 - 50 PNOs   :    0
   #pairs with 81 - 85 PNOs   :    5

Generation of (ij|ab)[P] integrals            ... on
Generation of (ia|bc)[P],(ja|bc)[P] integrals ... on
Storage of 3 and 4 external integrals         ... on
Generation of ALL (ka|bc)[P] integrals        ... on
Keep RI integrals in memory                   ... off

Ibatch:  1 (of  1)
Starting 2-4 index PNO integral generation ... done

Timings:
Total PNO integral transformation time     ...       2322.922 sec
Size of the 3-external file                ...       289 MB
Size of the 4-external file                ...      1963 MB
Size of the IKJL file                      ...        18 MB
Size of the all 3-external file            ...      6938 MB
Size of the 1-external file                ...        22 MB

Size of the PAO/PNO coefficient matrices   ...     226.2 MB

Making pair/pair overlap matrices          ... done (  358.591 sec)
Size of the pair overlap file              ...    2464.0 MB
Total # unrestricted pairs ...       2141
  # of alpha-alpha pairs   ...        591
  # of alpha-beta pairs    ...       1087
  # of beta-beta pairs     ...        463
Constructing the guess amplitudes          ... done (    0.672 sec)

-------------------------
FINAL STARTUP INFORMATION
-------------------------

E(0)                                       ...  -3028.432129244
E(SL-UMP2 in NEV-PNO space)                ...     -2.690686472
Initial E(tot)                             ...  -3031.122815715
<T|T>                                      ...      0.535261301
Number of unrestricted pairs included      ... 2141
Total number of pairs                      ... 4095
----------------------------------------------------------
                     OPEN-SHELL COUPLED CLUSTER ITERATIONS
----------------------------------------------------------

Number of PNO amplitudes to be optimized        ...          2131378
Number of canonical amplitudes for strong pairs ...       1933764942
Untruncated number of canonical amplitudes      ...       3698645738

Iter       E(tot)           E(Corr)          Delta-E          Residual     Time
  0  -3031.130003495     -2.661492549      0.029193923      0.020914440 2014.98
                           *** Turning on DIIS ***
  1  -3031.242161566     -2.773650620     -0.112158071      0.009961396 2010.97
  2  -3031.306569925     -2.838058978     -0.064408358      0.008340869 2029.56
  3  -3031.327784670     -2.859273724     -0.021214745      0.003012157 2004.33
  4  -3031.334966447     -2.866455501     -0.007181777      0.002683275 2002.73
  5  -3031.338793303     -2.870282356     -0.003826855      0.001649390 1977.20
  6  -3031.340185027     -2.871674080     -0.001391724      0.000816880 1999.79
  7  -3031.340912807     -2.872401861     -0.000727781      0.000506895 2031.09
  8  -3031.341075157     -2.872564211     -0.000162350      0.000218861 1999.40
  9  -3031.341128212     -2.872617266     -0.000053055      0.000178900 2019.93
 10  -3031.341122379     -2.872611433      0.000005833      0.000089504 2016.13
 11  -3031.341133900     -2.872622954     -0.000011521      0.000073464 2031.02
 12  -3031.341140358     -2.872629412     -0.000006458      0.000032780 1997.53
 13  -3031.341143000     -2.872632054     -0.000002642      0.000015454 2049.36
 14  -3031.341144407     -2.872633461     -0.000001407      0.000007196 1988.80
               --- The CCSD iterations have converged ---

E(0)                                       ...  -3028.432129244
E(CORR)(strong-pairs)                      ...     -2.872633461
E(CORR)(weak-pairs)                        ...     -0.036381703
E(CORR)(corrected)                         ...     -2.909015163
E(TOT)                                     ...  -3031.341144407
Singles norm <S|S>**1/2                    ...      0.192233238 ( 0.064697830, 0.127535408)  
T1 diagnostic                              ...      0.020151519                              
<S**2>(linearized)                         ...      8.7508005 (ideal value:      8.7500000)

----------------------
LARGEST PNO AMPLITUDES
----------------------
  70a-> 78a  70b-> 78b       0.056651
  50b-> 76b  -1b-> -1b       0.055319
  70a-> 77a  70b-> 77b       0.054431
  51b-> 76b  -1b-> -1b       0.052658
  48b-> 72b  -1b-> -1b       0.051730
  43a-> 77a  -1a-> -1a       0.046618
  48b-> 74b  -1b-> -1b       0.046138
  48b-> 75b  -1b-> -1b       0.045669
  65a-> 77a  65b-> 77b       0.045664
  54a-> 77a  54b-> 77b       0.045613
  55a-> 77a  55b-> 77b       0.045389
  69a-> 77a  69b-> 77b       0.043829
  43b-> 77b  -1b-> -1b       0.043802
  61a-> 77a  61b-> 77b       0.043350
  38b-> 73b  -1b-> -1b       0.043307
  63a-> 77a  63b-> 77b       0.042924

Total # unrestricted pairs ...       1216
  # of alpha-alpha pairs   ...        342
  # of alpha-beta pairs    ...        608
  # of beta-beta pairs     ...        266

-------------------------------------------
DLPNO BASED TRIPLES CORRECTION
-------------------------------------------

Singles multiplier          ...  1.000000
Fragment selection                          .... not used
TCutTNO                     ... 1.000e-09
TCutMP2Pairs                ... 1.000e-05
TCutDOStrong                ... 2.000e-02
TCutMKNStrong               ... 1.000e-02
TCutDOWeak                  ... 4.000e-02
TCutMKNWeak                 ... 1.000e-01
NTCutTNO                    ... 1

Number of Triples that are to be computed         ...     34882

 . . . . . . . . .
10% done  
20% done  
30% done  
40% done  
50% done  
60% done  
70% done  
80% done  
90% done  
          Batch   1   done (  16093.337 sec)

Triples-Correction TCutTNO=   1.000e-09 (NWeakPairs = 0  1  2  3)  -0.117710184964   -0.001988886283    0.000000000000    0.000000000000
Triples-Correction  -0.119699071247

Triples timings:
Total time                      ... 16804.251 sec

Triples List generation         ...     0.000 sec
TNO generation                  ...   710.603 sec
Pair density generation         ...     0.100 sec
Look up tables                  ...     0.119 sec
Generating 3-index integrals    ...  9998.225 sec
Make 4-ind.int. from 3-ind.int  ...     3.740 sec
Projecting amplitudes (D + S)   ...  5821.797 sec
Sorting integrals for spin cases...    55.132 sec
Calculate W0/W1                 ...   172.914 sec
Energy contr. (sum over a,b,c)  ...    41.417 sec

Everything after 3-index        ...  6232.714 sec

Energy contribution AAA         ...    26.231 sec
Energy contribution AAB         ...   119.175 sec
Energy contribution ABB         ...   109.126 sec
Energy contribution BBB         ...    14.974 sec
prep                ...     3.271 sec
makeTTNO            ...  5762.903 sec
copyij              ...     0.131 sec
copyil              ...     4.244 sec
transposeij         ...     0.080 sec
newMatInDoubleProj  ...    56.440 sec
BlasInDoubleProj    ...  3108.861 sec
ProjSingles         ...    48.634 sec
ProjDoubles         ...  5773.162 sec
overall Doubles for projection      ... 3199578
used Doubles for projection         ... 3199578


Number of Triples   (0, 1, 2, 3 weak pairs; overall):  16641   12283       0       0  ( 28924)
Number of Atoms     (0, 1, 2, 3 weak pairs; overall):   20.1    14.7     0.0     0.0  (    29)
Number of PAOs      (0, 1, 2, 3 weak pairs; overall):  776.3   590.4     0.0     0.0  (  1025)
Number of AuxFcns   (0, 1, 2, 3 weak pairs; overall):  943.9   582.2     0.0     0.0  (  2424)
Number of TNOs (0, 1, 2, 3 weak pairs         ):   79.1    56.2     0.0     0.0
Aver. Number of NTNO, Atoms, PAOs, AuxFcns / Triples:  28924    69.4    17.8   697.3   790.3

Triples Correction (T)                     ...     -0.119699071
    alpha-alpha-alpha ... -0.003907792 (  3.3%)
    alpha-alpha-beta  ... -0.056177205 ( 46.9%)
    alpha-beta -beta  ... -0.055471530 ( 46.3%)
    beta -beta -beta  ... -0.004142544 (  3.5%)
Final correlation energy                   ...     -3.028714235
E(CCSD)                                    ...  -3031.341144407
E(CCSD(T))                                 ...  -3031.460843478

----------------------------
STATISTICS FOR PAIR-ENERGIES
----------------------------
Minimum, maximum and average ratios of UMP and CCSD pair-energies ... 0.48, 1.44, 1.02


------------------------------------------------------------------------------- 
                                     TIMINGS                                   
------------------------------------------------------------------------------- 


Total execution time                   ...    56295.458 sec

Localization of occupied MO's          ...        9.947 sec (  0.0%)
Fock Matrix Formation                  ...     1439.498 sec (  2.6%)
Differential overlap integrals         ...        1.497 sec (  0.0%)
Organizing maps                        ...        1.703 sec (  0.0%)
RI 3-index integral generations        ...      277.827 sec (  0.5%)
RI-PNO integral transformation         ...     5217.347 sec (  9.3%)
Initial Guess                          ...     1871.073 sec (  3.3%)
DIIS Solver                            ...       16.515 sec (  0.0%)
State Vector Update                    ...        0.793 sec (  0.0%)
Sigma-vector construction              ...    30172.829 sec ( 53.6%)
  <0|H|D>                              ...        0.029 sec (  0.0% of sigma)
  <D|H|D>(0-ext)                       ...     5937.564 sec ( 19.7% of sigma)
  <D|H|D>(2-ext Fock)                  ...        1.721 sec (  0.0% of sigma)
  <D|H|D>(2-ext)                       ...     4306.540 sec ( 14.3% of sigma)
  <D|H|D>(4-ext)                       ...      153.691 sec (  0.5% of sigma)
  <D|H|D>(4-ext-corr)                  ...      957.922 sec (  3.2% of sigma)
  CCSD doubles correction              ...      594.577 sec (  2.0% of sigma)
  <S|H|S>                              ...      683.821 sec (  2.3% of sigma)
  <S|H|D>(1-ext)                       ...      293.302 sec (  1.0% of sigma)
  <D|H|S>(1-ext)                       ...        1.153 sec (  0.0% of sigma)
  <S|H|D>(3-ext)                       ...       23.671 sec (  0.1% of sigma)
  CCSD singles correction              ...        0.006 sec (  0.0% of sigma)
  Fock-dressing                        ...     8648.917 sec ( 28.7% of sigma)
  Singles amplitudes                   ...      114.685 sec (  0.4% of sigma)
  (ik|jl)-dressing                     ...     6645.183 sec ( 22.0% of sigma)
  (ij|ab),(ia|jb)-dressing             ...     1578.184 sec (  5.2% of sigma)
  Pair energies                        ...        0.189 sec (  0.0% of sigma)
Total Time for computing (T)           ...    17628.911 sec ( 31.3% of ALL)


-------------------------   --------------------
FINAL SINGLE POINT ENERGY     -3031.460843478335
-------------------------   --------------------


                            ***************************************
                            *     ORCA property calculations      *
                            ***************************************

                                    ---------------------
                                    Active property flags
                                    ---------------------
   (+) Dipole Moment


------------------------------------------------------------------------------
                       ORCA ELECTRIC PROPERTIES CALCULATION
------------------------------------------------------------------------------

Dipole Moment Calculation                       ... on
Quadrupole Moment Calculation                   ... off
Polarizability Calculation                      ... off
GBWName                                         ... simple-grid-220-240-b3lyp_d3bj-631gd-gas-singlepoint-DLPNO_CCSD_T1-NormalPNO-augtz-gas.gbw
Electron density file                           ... simple-grid-220-240-b3lyp_d3bj-631gd-gas-singlepoint-DLPNO_CCSD_T1-NormalPNO-augtz-gas.scfp.tmp
The origin for moment calculation is the CENTER OF MASS  = ( 0.310301,  0.023658  0.019000)

-------------
DIPOLE MOMENT
-------------
                                X             Y             Z
Electronic contribution:     42.12603       2.95436       2.27197
Nuclear contribution   :    -46.23475      -3.52500      -2.83109
                        -----------------------------------------
Total Dipole Moment    :     -4.10872      -0.57064      -0.55912
                        -----------------------------------------
Magnitude (a.u.)       :      4.18567
Magnitude (Debye)      :     10.63912



--------------------
Rotational spectrum 
--------------------
 
Rotational constants in cm-1:     0.019341     0.011172     0.010489 
Rotational constants in MHz :   579.832723   334.924862   314.466860 

 Dipole components along the rotational axes: 
x,y,z [a.u.] :     4.104958    -0.589408    -0.567213 
x,y,z [Debye]:    10.433974    -1.498157    -1.441740 

 

Timings for individual modules:

Sum of individual times         ...    73139.892 sec (=1218.998 min)
GTO integral calculation        ...       14.612 sec (=   0.244 min)   0.0 %
SCF iterations                  ...    16811.917 sec (= 280.199 min)  23.0 %
MDCI module                     ...    56313.364 sec (= 938.556 min)  77.0 %
                             ****ORCA TERMINATED NORMALLY****
TOTAL RUN TIME: 0 days 20 hours 19 minutes 2 seconds 789 msec
