
                                 *****************
                                 * O   R   C   A *
                                 *****************

           --- An Ab Initio, DFT and Semiempirical electronic structure package ---

                  #######################################################
                  #                        -***-                        #
                  #          Department of theory and spectroscopy      #
                  #               Directorship: Frank Neese             #
                  #        Max Planck Institute fuer Kohlenforschung    #
                  #                Kaiser Wilhelm Platz 1               #
                  #                 D-45470 Muelheim/Ruhr               #
                  #                      Germany                        #
                  #                                                     #
                  #                  All rights reserved                #
                  #                        -***-                        #
                  #######################################################


                         Program Version 4.1.2  - RELEASE  -


 With contributions from (in alphabetic order):
   Daniel Aravena         : Magnetic Properties
   Michael Atanasov       : Ab Initio Ligand Field Theory
   Alexander A. Auer      : GIAO ZORA
   Ute Becker             : Parallelization
   Giovanni Bistoni       : ED, Open-shell LED
   Martin Brehm           : Molecular dynamics
   Dmytro Bykov           : SCF Hessian
   Vijay G. Chilkuri      : MRCI spin determinant printing
   Dipayan Datta          : RHF DLPNO-CCSD density
   Achintya Kumar Dutta   : EOM-CC, STEOM-CC
   Dmitry Ganyushin       : Spin-Orbit,Spin-Spin,Magnetic field MRCI
   Miquel Garcia          : C-PCM Hessian
   Yang Guo               : DLPNO-NEVPT2, CIM, IAO-localization
   Andreas Hansen         : Spin unrestricted coupled pair/coupled cluster methods
   Benjamin Helmich-Paris : CASSCF linear response (MC-RPA)
   Lee Huntington         : MR-EOM, pCC
   Robert Izsak           : Overlap fitted RIJCOSX, COSX-SCS-MP3, EOM
   Christian Kollmar      : KDIIS, OOCD, Brueckner-CCSD(T), CCSD density
   Simone Kossmann        : Meta GGA functionals, TD-DFT gradient, OOMP2, MP2 Hessian
   Martin Krupicka        : AUTO-CI
   Lucas Lang             : DCDCAS
   Dagmar Lenk            : GEPOL surface, SMD
   Dimitrios Liakos       : Extrapolation schemes; parallel MDCI
   Dimitrios Manganas     : ROCIS; embedding schemes
   Dimitrios Pantazis     : SARC Basis sets
   Taras Petrenko         : DFT Hessian,TD-DFT gradient, ASA, ECA, R-Raman, ABS, FL, XAS/XES, NRVS
   Peter Pinski           : DLPNO-MP2, DLPNO-MP2 Gradient
   Christoph Reimann      : Effective Core Potentials
   Marius Retegan         : Local ZFS, SOC
   Christoph Riplinger    : Optimizer, TS searches, QM/MM, DLPNO-CCSD(T), (RO)-DLPNO pert. Triples
   Tobias Risthaus        : Range-separated hybrids, TD-DFT gradient, RPA, STAB
   Michael Roemelt        : Restricted open shell CIS
   Masaaki Saitow         : Open-shell DLPNO
   Barbara Sandhoefer     : DKH picture change effects
   Avijit Sen             : IP-ROCIS
   Kantharuban Sivalingam : CASSCF convergence, NEVPT2, FIC-MRCI
   Bernardo de Souza      : ESD, SOC TD-DFT
   Georgi Stoychev        : AutoAux, RI-MP2 NMR
   Willem Van den Heuvel  : Paramagnetic NMR
   Boris Wezisla          : Elementary symmetry handling
   Frank Wennmohs         : Technical directorship


 We gratefully acknowledge several colleagues who have allowed us to
 interface, adapt or use parts of their codes:
   Stefan Grimme, W. Hujo, H. Kruse,             : VdW corrections, initial TS optimization,
                  C. Bannwarth                     DFT functionals, gCP, sTDA/sTD-DF
   Ed Valeev                                     : LibInt (2-el integral package), F12 methods
   Garnet Chan, S. Sharma, J. Yang, R. Olivares  : DMRG
   Ulf Ekstrom                                   : XCFun DFT Library
   Mihaly Kallay                                 : mrcc  (arbitrary order and MRCC methods)
   Andreas Klamt, Michael Diedenhofen            : otool_cosmo (COSMO solvation model)
   Jiri Pittner, Ondrej Demel                    : Mk-CCSD
   Frank Weinhold                                : gennbo (NPA and NBO analysis)
   Christopher J. Cramer and Donald G. Truhlar   : smd solvation model
   Lars Goerigk                                  : TD-DFT with DH, B97 family of functionals
   V. Asgeirsson, H. Jonsson                     : NEB implementation
   FAccTs GmbH                                   : IRC, NEB, NEB-TS, Multilevel


 Your calculation uses the libint2 library for the computation of 2-el integrals
 For citations please refer to: http://libint.valeyev.net

 This ORCA versions uses:
   CBLAS   interface :  Fast vector & matrix operations
   LAPACKE interface :  Fast linear algebra routines
   SCALAPACK package :  Parallel linear algebra routines


----- Orbital basis set information -----
Your calculation utilizes the basis: aug-cc-pVTZ 
    H, B-Ne : Obtained from the ccRepo (grant-hill.group.shef.ac.uk/ccrepo) Feb. 2017
              R. A. Kendall, T. H. Dunning, Jr., R. J. Harrison, J. Chem. Phys. 96, 6796 (1992)
         He : Obtained from the ccRepo (grant-hill.group.shef.ac.uk/ccrepo) Feb. 2017
              D. E. Woon, T. H. Dunning, Jr., J. Chem. Phys. 100, 2975 (1994)
  Li-Be, Na : Obtained from the ccRepo (grant-hill.group.shef.ac.uk/ccrepo) Feb. 2017
              B. P. Prascher, D. E. Woon, K. A. Peterson, T. H. Dunning, Jr., A. K. Wilson, Theor. Chem. Acc. 128, 69 (2011)
         Mg : Obtained from the Peterson Research Group Website (tyr0.chem.wsu.edu/~kipeters) Feb. 2017
              B. P. Prascher, D. E. Woon, K. A. Peterson, T. H. Dunning, Jr., A. K. Wilson, Theor. Chem. Acc. 128, 69 (2011)
      Al-Ar : Obtained from the ccRepo (grant-hill.group.shef.ac.uk/ccrepo) Feb. 2017
              D. E. Woon, T. H. Dunning, Jr., J. Chem. Phys. 98, 1358 (1993)
      Sc-Zn : Obtained from the ccRepo (grant-hill.group.shef.ac.uk/ccrepo) Feb. 2017
              N. B. Balabanov, K. A. Peterson, J. Chem. Phys. 123, 064107 (2005)
              N. B. Balabanov, K. A. Peterson, J. Chem. Phys. 125, 074110 (2006)
      Ga-Kr : Obtained from the ccRepo (grant-hill.group.shef.ac.uk/ccrepo) Feb. 2017
              A. K. Wilson, D. E. Woon, K. A. Peterson, T. H. Dunning, Jr., J. Chem. Phys. 110, 7667 (1999)
     Ag, Au : Obtained from the Peterson Research Group Website (tyr0.chem.wsu.edu/~kipeters) Feb. 2017
              K. A. Peterson, C. Puzzarini, Theor. Chem. Acc. 114, 283 (2005)

----- AuxJ basis set information -----
Your calculation utilizes the AutoAux generation procedure.
  G. L. Stoychev, A. A. Auer, F. Neese, J. Chem. Theory Comput. 13, 554 (2017)

----- AuxC basis set information -----
Your calculation utilizes the auxiliary basis: aug-cc-pVTZ/C 
  H-He, B-F, Al-Ar, Ga-Kr : Obtained from the EMSL Basis Set Exchange (bse.pnl.gov) Feb. 2017
                            F. Weigend, A. Kohn, C. Hattig, J. Chem. Phys. 116, 3175 (2002)
                   Be, Mg : Obtained from the TURBOMOLE 7.0 basis set library
                            C. Haettig, Phys. Chem. Chem. Phys. 7, 59 (2005)
                       Ne : Obtained from the EMSL Basis Set Exchange (bse.pnl.gov) Feb. 2017
                            C. Haettig, Phys. Chem. Chem. Phys. 7, 59 (2005)
                            F. Weigend, A. Kohn, C. Hattig, J. Chem. Phys. 116, 3175 (2002)
                    Sc-Zn : Obtained from the EMSL Basis Set Exchange (bse.pnl.gov) Feb. 2017
                            J. G. Hill, J. A. Platts, J. Chem. Phys. 128, 044104 (2008)

----- AuxJK basis set information -----
Your calculation utilizes the AutoAux generation procedure.
  G. L. Stoychev, A. A. Auer, F. Neese, J. Chem. Theory Comput. 13, 554 (2017)

================================================================================
                                        WARNINGS
                       Please study these warnings very carefully!
================================================================================


WARNING: your system is open-shell and RHF/RKS was chosen
  ===> : WILL SWITCH to UHF/UKS


WARNING: MDCI localization with Augmented Hessian Foster-Boys
  ===> : Switching off randomization!

WARNING: Post HF methods need fully converged wavefunctions
  ===> : Setting SCFConvForced true
         You can overwrite this default with %scf ConvForced false 


INFO   : the flag for use of LIBINT has been found!

================================================================================
                                       INPUT FILE
================================================================================
NAME = simple-grid-280-280-b3lyp_d3bj-631gd-gas-singlepoint-DLPNO_CCSD_T1-NormalPNO-augtz-gas.inp
|  1> ! aug-cc-pVTZ aug-cc-pVTZ/C DLPNO-CCSD(T1) TightSCF NormalPNO UNO MiniPrint AutoAux
|  2> %pal nproc 10 end
|  3> %maxcore 20000
|  4> %mdci
|  5>      density none
|  6> end
|  7> 
|  8> * xyz 0 6
|  9>  O      0.21915100      0.38219500     -0.84952200
| 10>  C      0.96840900      1.36453300     -0.65047900
| 11>  C      3.14934300      0.03201600      0.49316300
| 12>  C      2.59822100     -0.95964200     -0.23345100
| 13>  C      2.96790200     -1.17371600     -1.67681300
| 14> Fe     -1.47228300     -0.15863300      0.02747400
| 15> Cl     -2.08442100     -1.96119400     -1.02030600
| 16>  C      1.65854300     -1.99265300      0.31790800
| 17> Cl     -2.68605600      1.62152100     -0.36075500
| 18> Cl     -1.09150000     -0.43217100      2.17003800
| 19>  H      3.87889700      0.67098600     -0.00617300
| 20>  H      2.16649200     -2.96612500      0.35566800
| 21>  H      1.29220400     -1.76624600      1.31884000
| 22>  H      0.79540000     -2.12722900     -0.34470800
| 23>  H      3.41589200     -2.16765900     -1.80625700
| 24>  H      2.07473200     -1.15366600     -2.31490400
| 25>  H      3.68564600     -0.43248400     -2.04043300
| 26>  C      3.00691300      0.25606800      1.97394600
| 27>  H      3.84844800     -0.20202700      2.51169300
| 28>  H      3.02462300      1.32313300      2.22135900
| 29>  H      2.08670600     -0.16893500      2.38285300
| 30>  C      0.83473100      2.20680000      0.57772700
| 31>  H      1.71876000      2.82222000      0.74913400
| 32>  H     -0.02630200      2.87010200      0.40614400
| 33>  H      0.60750200      1.60204000      1.45629800
| 34>  C      1.77665100      1.88957700     -1.79593000
| 35>  H      1.20515300      2.73122700     -2.21474500
| 36>  H      2.74268300      2.27758900     -1.46871700
| 37>  H      1.89865900      1.13740800     -2.57324800
| 38> *
| 39> 
| 40> 
| 41>                          ****END OF INPUT****
================================================================================

                       ****************************
                       * Single Point Calculation *
                       ****************************

---------------------------------
CARTESIAN COORDINATES (ANGSTROEM)
---------------------------------
  O      0.219151    0.382195   -0.849522
  C      0.968409    1.364533   -0.650479
  C      3.149343    0.032016    0.493163
  C      2.598221   -0.959642   -0.233451
  C      2.967902   -1.173716   -1.676813
  Fe    -1.472283   -0.158633    0.027474
  Cl    -2.084421   -1.961194   -1.020306
  C      1.658543   -1.992653    0.317908
  Cl    -2.686056    1.621521   -0.360755
  Cl    -1.091500   -0.432171    2.170038
  H      3.878897    0.670986   -0.006173
  H      2.166492   -2.966125    0.355668
  H      1.292204   -1.766246    1.318840
  H      0.795400   -2.127229   -0.344708
  H      3.415892   -2.167659   -1.806257
  H      2.074732   -1.153666   -2.314904
  H      3.685646   -0.432484   -2.040433
  C      3.006913    0.256068    1.973946
  H      3.848448   -0.202027    2.511693
  H      3.024623    1.323133    2.221359
  H      2.086706   -0.168935    2.382853
  C      0.834731    2.206800    0.577727
  H      1.718760    2.822220    0.749134
  H     -0.026302    2.870102    0.406144
  H      0.607502    1.602040    1.456298
  C      1.776651    1.889577   -1.795930
  H      1.205153    2.731227   -2.214745
  H      2.742683    2.277589   -1.468717
  H      1.898659    1.137408   -2.573248

----------------------------
CARTESIAN COORDINATES (A.U.)
----------------------------
  NO LB      ZA    FRAG     MASS         X           Y           Z
   0 O     8.0000    0    15.999    0.414135    0.722244   -1.605364
   1 C     6.0000    0    12.011    1.830028    2.578594   -1.229227
   2 C     6.0000    0    12.011    5.951396    0.060501    0.931943
   3 C     6.0000    0    12.011    4.909926   -1.813461   -0.441158
   4 C     6.0000    0    12.011    5.608522   -2.218002   -3.168717
   5 Fe   26.0000    0    55.850   -2.782212   -0.299773    0.051918
   6 Cl   17.0000    0    35.453   -3.938985   -3.706120   -1.928099
   7 C     6.0000    0    12.011    3.134192   -3.765568    0.600759
   8 Cl   17.0000    0    35.453   -5.075910    3.064231   -0.681728
   9 Cl   17.0000    0    35.453   -2.062636   -0.816685    4.100778
  10 H     1.0000    0     1.008    7.330053    1.267980   -0.011665
  11 H     1.0000    0     1.008    4.094077   -5.605164    0.672115
  12 H     1.0000    0     1.008    2.441912   -3.337721    2.492246
  13 H     1.0000    0     1.008    1.503088   -4.019880   -0.651404
  14 H     1.0000    0     1.008    6.455100   -4.096282   -3.413331
  15 H     1.0000    0     1.008    3.920675   -2.180113   -4.374535
  16 H     1.0000    0     1.008    6.964862   -0.817276   -3.855860
  17 C     6.0000    0    12.011    5.682242    0.483898    3.730217
  18 H     1.0000    0     1.008    7.272513   -0.381776    4.746412
  19 H     1.0000    0     1.008    5.715709    2.500359    4.197760
  20 H     1.0000    0     1.008    3.943303   -0.319241    4.502940
  21 C     6.0000    0    12.011    1.577413    4.170248    1.091746
  22 H     1.0000    0     1.008    3.247986    5.333223    1.415658
  23 H     1.0000    0     1.008   -0.049704    5.423707    0.767501
  24 H     1.0000    0     1.008    1.148012    3.027417    2.752004
  25 C     6.0000    0    12.011    3.357384    3.570783   -3.393816
  26 H     1.0000    0     1.008    2.277409    5.161271   -4.185262
  27 H     1.0000    0     1.008    5.182920    4.304019   -2.775473
  28 H     1.0000    0     1.008    3.587946    2.149390   -4.862734



           ************************************************************
           *        Program running with 10 parallel MPI-processes    *
           *              working on a common directory               *
           ************************************************************


           ************************************************************
           *        Program running with 10 parallel MPI-processes    *
           *              working on a common directory               *
           ************************************************************

Diagonalization of the overlap matrix:
Smallest eigenvalue                        ... 8.487e-07
Time for diagonalization                   ...    0.348 sec
Threshold for overlap eigenvalues          ... 1.000e-08
Number of eigenvalues below threshold      ... 0
Time for construction of square roots      ...    0.313 sec
Total time needed                          ...    0.665 sec

-------------------
DFT GRID GENERATION
-------------------

General Integration Accuracy     IntAcc      ...  4.340
Radial Grid Type                 RadialGrid  ... Gauss-Chebyshev
Angular Grid (max. acc.)         AngularGrid ... Lebedev-110
Angular grid pruning method      GridPruning ... 3 (G Style)
Weight generation scheme         WeightScheme... Becke
Basis function cutoff            BFCut       ...    1.0000e-11
Integration weight cutoff        WCut        ...    1.0000e-14
Grids for H and He will be reduced by one unit

# of grid points (after initial pruning)     ...  36112 (   0.0 sec)
# of grid points (after weights+screening)   ...  32456 (   0.1 sec)
nearest neighbour list constructed           ...    0.0 sec
Grid point re-assignment to atoms done       ...    0.0 sec
Grid point division into batches done        ...    0.0 sec
Reduced shell lists constructed in    0.3 sec

Total number of grid points                  ...    32456
Total number of batches                      ...      522
Average number of points per batch           ...       62
Average number of grid points per atom       ...     1119
Average number of shells per batch           ...   285.69 (83.29%)
Average number of basis functions per batch  ...   846.17 (82.55%)
Average number of large shells per batch     ...   230.30 (80.61%)
Average number of large basis fcns per batch ...   683.89 (80.82%)
Maximum spatial batch extension              ...   4.16,  4.18,  3.85 au
Average spatial batch extension              ...   0.19,  0.19,  0.19 au

Time for grid setup =    0.414 sec

Loading Hartree-Fock densities                     ... done
Calculating cut-offs                               ... done
Setting up the integral package                    ... done
Initializing the effective Hamiltonian             ... done
Starting the Coulomb interaction                   ... done (   1.1 sec)
Reading the grid                                   ... done
Mapping shells                                     ... done
Starting the XC term evaluation                    ... done (   0.9 sec)
Transforming the Hamiltonian                       ... done (   0.2 sec)
Diagonalizing the Hamiltonian                      ... done (   0.4 sec)
Back transforming the eigenvectors                 ... done (   0.1 sec)
Now organizing SCF variables                       ... done
--------------
SCF ITERATIONS
--------------
ITER       Energy         Delta-E        Max-DP      RMS-DP      [F,P]     Damp
               ***  Starting incremental Fock matrix formation  ***
  0  -3027.5973288103   0.000000000000 0.15914453  0.00085818  0.2409933 0.7000
  1  -3027.8519979212  -0.254669110943 0.12121171  0.00067906  0.1550244 0.7000
                               ***Turning on DIIS***
  2  -3028.0222494226  -0.170251501370 0.08592531  0.00050352  0.1094422 0.7000
  3  -3029.6094691309  -1.587219708284 0.23851488  0.00128568  0.0816551 0.0000
  4  -3028.3152469313   1.294222199574 0.04183009  0.00021546  0.0196686 0.0000
  5  -3028.4394999875  -0.124253056176 0.03917290  0.00016918  0.0110797 0.0000
  6  -3028.4868816108  -0.047381623308 0.01933294  0.00006973  0.0053246 0.0000
  7  -3028.5009149972  -0.014033386475 0.00853599  0.00003211  0.0031515 0.0000
  8  -3028.4901403777   0.010774619506 0.00636692  0.00001849  0.0015747 0.0000
  9  -3028.4859284108   0.004211966922 0.00227727  0.00001055  0.0006905 0.0000
 10  -3028.4734449775   0.012483433314 0.00095809  0.00000333  0.0004198 0.0000
 11  -3028.4792556861  -0.005810708630 0.00028350  0.00000169  0.0000881 0.0000
 12  -3028.4771842256   0.002071460505 0.00021430  0.00000126  0.0000230 0.0000
 13  -3028.4771205444   0.000063681236 0.00038480  0.00000159  0.0000093 0.0000
 14  -3028.4771299824  -0.000009438048 0.00046022  0.00000155  0.0000062 0.0000
 15  -3028.4770889387   0.000041043692 0.00035660  0.00000149  0.0000040 0.0000
 16  -3028.4770899223  -0.000000983582 0.00062743  0.00000211  0.0000034 0.0000
 17  -3028.4771053514  -0.000015429108 0.00032005  0.00000153  0.0000022 0.0000
 18  -3028.4770877167   0.000017634705 0.00073321  0.00000283  0.0000016 0.0000
                            ***DIIS convergence achieved***

               *****************************************************
               *                     SUCCESS                       *
               *           SCF CONVERGED AFTER  19 CYCLES          *
               *****************************************************

Total Energy       :        -3028.47709371 Eh          -82409.05131 eV
  Last Energy change         ...   -5.9891e-06  Tolerance :   1.0000e-08
  Last MAX-Density change    ...    2.3126e-04  Tolerance :   1.0000e-07
             **** THE GBW FILE WAS UPDATED (simple-grid-280-280-b3lyp_d3bj-631gd-gas-singlepoint-DLPNO_CCSD_T1-NormalPNO-augtz-gas.gbw) ****
             **** DENSITY FILE WAS UPDATED (simple-grid-280-280-b3lyp_d3bj-631gd-gas-singlepoint-DLPNO_CCSD_T1-NormalPNO-augtz-gas.scfp.tmp) ****
             **** ENERGY FILE WAS UPDATED (simple-grid-280-280-b3lyp_d3bj-631gd-gas-singlepoint-DLPNO_CCSD_T1-NormalPNO-augtz-gas.en.tmp) ****
----------------------
UHF SPIN CONTAMINATION
----------------------

Expectation value of <S**2>     :     8.765057
Ideal value S*(S+1) for S=2.5   :     8.750000
Deviation                       :     0.015057

----------------
ORBITAL ENERGIES
----------------
                 SPIN UP ORBITALS
  NO   OCC          E(Eh)            E(eV) 
   0   1.0000    -261.578255     -7117.9062 
   1   1.0000    -104.795209     -2851.6226 
   2   1.0000    -104.792291     -2851.5432 
   3   1.0000    -104.790485     -2851.4941 
   4   1.0000     -32.245915      -877.4559 
   5   1.0000     -27.722440      -754.3660 
   6   1.0000     -27.721229      -754.3330 
   7   1.0000     -27.721042      -754.3279 
   8   1.0000     -20.624506      -561.2213 
   9   1.0000     -11.422387      -310.8190 
  10   1.0000     -11.279121      -306.9205 
  11   1.0000     -11.273189      -306.7591 
  12   1.0000     -11.261194      -306.4327 
  13   1.0000     -11.240498      -305.8695 
  14   1.0000     -11.239340      -305.8380 
  15   1.0000     -11.236019      -305.7476 
  16   1.0000     -11.226735      -305.4950 
  17   1.0000     -10.521937      -286.3165 
  18   1.0000     -10.518992      -286.2363 
  19   1.0000     -10.517134      -286.1858 
  20   1.0000      -7.988760      -217.3852 
  21   1.0000      -7.988025      -217.3652 
  22   1.0000      -7.987966      -217.3636 
  23   1.0000      -7.985886      -217.3070 
  24   1.0000      -7.985083      -217.2852 
  25   1.0000      -7.985027      -217.2836 
  26   1.0000      -7.983915      -217.2534 
  27   1.0000      -7.983262      -217.2356 
  28   1.0000      -7.983220      -217.2345 
  29   1.0000      -4.600690      -125.1911 
  30   1.0000      -3.213846       -87.4532 
  31   1.0000      -3.212037       -87.4040 
  32   1.0000      -3.211925       -87.4009 
  33   1.0000      -1.469203       -39.9790 
  34   1.0000      -1.121669       -30.5222 
  35   1.0000      -1.103107       -30.0171 
  36   1.0000      -1.068667       -29.0799 
  37   1.0000      -1.062912       -28.9233 
  38   1.0000      -1.060271       -28.8515 
  39   1.0000      -1.021038       -27.7839 
  40   1.0000      -1.009406       -27.4673 
  41   1.0000      -0.955286       -25.9947 
  42   1.0000      -0.944416       -25.6989 
  43   1.0000      -0.929544       -25.2942 
  44   1.0000      -0.929419       -25.2908 
  45   1.0000      -0.918526       -24.9944 
  46   1.0000      -0.917928       -24.9781 
  47   1.0000      -0.893172       -24.3044 
  48   1.0000      -0.816306       -22.2128 
  49   1.0000      -0.725603       -19.7447 
  50   1.0000      -0.715145       -19.4601 
  51   1.0000      -0.705314       -19.1926 
  52   1.0000      -0.685765       -18.6606 
  53   1.0000      -0.651722       -17.7343 
  54   1.0000      -0.621901       -16.9228 
  55   1.0000      -0.618119       -16.8199 
  56   1.0000      -0.603707       -16.4277 
  57   1.0000      -0.599920       -16.3247 
  58   1.0000      -0.586419       -15.9573 
  59   1.0000      -0.579838       -15.7782 
  60   1.0000      -0.560957       -15.2644 
  61   1.0000      -0.548832       -14.9345 
  62   1.0000      -0.548402       -14.9228 
  63   1.0000      -0.537349       -14.6220 
  64   1.0000      -0.536748       -14.6056 
  65   1.0000      -0.523879       -14.2555 
  66   1.0000      -0.505619       -13.7586 
  67   1.0000      -0.489754       -13.3269 
  68   1.0000      -0.478241       -13.0136 
  69   1.0000      -0.477993       -13.0068 
  70   1.0000      -0.448450       -12.2029 
  71   1.0000      -0.442084       -12.0297 
  72   1.0000      -0.440319       -11.9817 
  73   1.0000      -0.431718       -11.7476 
  74   1.0000      -0.430655       -11.7187 
  75   1.0000      -0.429515       -11.6877 
  76   1.0000      -0.356482        -9.7004 
  77   0.0000       0.012794         0.3481 
  78   0.0000       0.023867         0.6495 
  79   0.0000       0.024689         0.6718 
  80   0.0000       0.030804         0.8382 
  81   0.0000       0.039506         1.0750 
  82   0.0000       0.041481         1.1288 
  83   0.0000       0.042761         1.1636 
  84   0.0000       0.042986         1.1697 
  85   0.0000       0.044295         1.2053 
  86   0.0000       0.056383         1.5343 
  87   0.0000       0.057598         1.5673 
  88   0.0000       0.061624         1.6769 
  89   0.0000       0.064093         1.7441 
  90   0.0000       0.065265         1.7760 
  91   0.0000       0.069303         1.8858 
  92   0.0000       0.074263         2.0208 
  93   0.0000       0.077285         2.1030 
  94   0.0000       0.082112         2.2344 
  95   0.0000       0.090777         2.4702 
  96   0.0000       0.092523         2.5177 
  97   0.0000       0.094398         2.5687 
  98   0.0000       0.096183         2.6173 
  99   0.0000       0.102528         2.7899 
 100   0.0000       0.105635         2.8745 
 101   0.0000       0.107943         2.9373 
 102   0.0000       0.117549         3.1987 
 103   0.0000       0.120837         3.2882 
 104   0.0000       0.123480         3.3601 
 105   0.0000       0.124103         3.3770 
 106   0.0000       0.125446         3.4136 
 107   0.0000       0.127106         3.4587 
 108   0.0000       0.130514         3.5515 
 109   0.0000       0.133210         3.6248 
 110   0.0000       0.135770         3.6945 
 111   0.0000       0.138073         3.7572 
 112   0.0000       0.142502         3.8777 
 113   0.0000       0.144965         3.9447 
 114   0.0000       0.148308         4.0357 
 115   0.0000       0.151339         4.1181 
 116   0.0000       0.155679         4.2362 
 117   0.0000       0.161763         4.4018 
 118   0.0000       0.163085         4.4378 
 119   0.0000       0.163978         4.4621 
 120   0.0000       0.168385         4.5820 
 121   0.0000       0.169937         4.6242 
 122   0.0000       0.174830         4.7574 
 123   0.0000       0.179748         4.8912 
 124   0.0000       0.183021         4.9803 
 125   0.0000       0.185930         5.0594 
 126   0.0000       0.187844         5.1115 
 127   0.0000       0.191656         5.2152 
 128   0.0000       0.193270         5.2592 
 129   0.0000       0.196252         5.3403 
 130   0.0000       0.197510         5.3745 
 131   0.0000       0.200967         5.4686 
 132   0.0000       0.202446         5.5088 
 133   0.0000       0.206275         5.6130 
 134   0.0000       0.210526         5.7287 
 135   0.0000       0.214516         5.8373 
 136   0.0000       0.216993         5.9047 
 137   0.0000       0.223359         6.0779 
 138   0.0000       0.225671         6.1408 
 139   0.0000       0.231340         6.2951 
 140   0.0000       0.233176         6.3451 
 141   0.0000       0.234919         6.3925 
 142   0.0000       0.238825         6.4988 
 143   0.0000       0.240893         6.5550 
 144   0.0000       0.243604         6.6288 
 145   0.0000       0.246679         6.7125 
 146   0.0000       0.251220         6.8360 
 147   0.0000       0.252881         6.8812 
 148   0.0000       0.257007         6.9935 
 149   0.0000       0.259101         7.0505 
 150   0.0000       0.260799         7.0967 
 151   0.0000       0.268344         7.3020 
 152   0.0000       0.273618         7.4455 
 153   0.0000       0.276533         7.5248 
 154   0.0000       0.280241         7.6258 
 155   0.0000       0.285602         7.7716 
 156   0.0000       0.291810         7.9406 
 157   0.0000       0.292785         7.9671 
 158   0.0000       0.297098         8.0844 
 159   0.0000       0.305305         8.3078 
 160   0.0000       0.308879         8.4050 
 161   0.0000       0.309200         8.4138 
 162   0.0000       0.316847         8.6218 
 163   0.0000       0.318512         8.6671 
 164   0.0000       0.325093         8.8462 
 165   0.0000       0.330225         8.9859 
 166   0.0000       0.332085         9.0365 
 167   0.0000       0.335097         9.1184 
 168   0.0000       0.338738         9.2175 
 169   0.0000       0.341681         9.2976 
 170   0.0000       0.346676         9.4335 
 171   0.0000       0.352168         9.5830 
 172   0.0000       0.354372         9.6430 
 173   0.0000       0.358613         9.7583 
 174   0.0000       0.358851         9.7648 
 175   0.0000       0.363276         9.8853 
 176   0.0000       0.366986         9.9862 
 177   0.0000       0.372535        10.1372 
 178   0.0000       0.374937        10.2026 
 179   0.0000       0.375448        10.2165 
 180   0.0000       0.378456        10.2983 
 181   0.0000       0.379654        10.3309 
 182   0.0000       0.382515        10.4088 
 183   0.0000       0.383981        10.4487 
 184   0.0000       0.390184        10.6174 
 185   0.0000       0.395623        10.7655 
 186   0.0000       0.396514        10.7897 
 187   0.0000       0.399961        10.8835 
 188   0.0000       0.401292        10.9197 
 189   0.0000       0.404994        11.0204 
 190   0.0000       0.408040        11.1033 
 191   0.0000       0.410127        11.1601 
 192   0.0000       0.414083        11.2678 
 193   0.0000       0.418493        11.3878 
 194   0.0000       0.424104        11.5405 
 195   0.0000       0.433122        11.7859 
 196   0.0000       0.435095        11.8395 
 197   0.0000       0.437567        11.9068 
 198   0.0000       0.439683        11.9644 
 199   0.0000       0.445688        12.1278 
 200   0.0000       0.448649        12.2084 
 201   0.0000       0.452769        12.3205 
 202   0.0000       0.455364        12.3911 
 203   0.0000       0.457334        12.4447 
 204   0.0000       0.460292        12.5252 
 205   0.0000       0.464147        12.6301 
 206   0.0000       0.465765        12.6741 
 207   0.0000       0.471616        12.8333 
 208   0.0000       0.475520        12.9396 
 209   0.0000       0.479403        13.0452 
 210   0.0000       0.484068        13.1722 
 211   0.0000       0.487078        13.2541 
 212   0.0000       0.492712        13.4074 
 213   0.0000       0.496117        13.5000 
 214   0.0000       0.497971        13.5505 
 215   0.0000       0.500523        13.6199 
 216   0.0000       0.504814        13.7367 
 217   0.0000       0.507671        13.8144 
 218   0.0000       0.509079        13.8527 
 219   0.0000       0.512310        13.9407 
 220   0.0000       0.515560        14.0291 
 221   0.0000       0.519813        14.1448 
 222   0.0000       0.522289        14.2122 
 223   0.0000       0.522700        14.2234 
 224   0.0000       0.525965        14.3122 
 225   0.0000       0.529643        14.4123 
 226   0.0000       0.534884        14.5549 
 227   0.0000       0.535485        14.5713 
 228   0.0000       0.540236        14.7006 
 229   0.0000       0.543271        14.7832 
 230   0.0000       0.544672        14.8213 
 231   0.0000       0.549185        14.9441 
 232   0.0000       0.553757        15.0685 
 233   0.0000       0.557253        15.1636 
 234   0.0000       0.561761        15.2863 
 235   0.0000       0.565440        15.3864 
 236   0.0000       0.570938        15.5360 
 237   0.0000       0.573299        15.6003 
 238   0.0000       0.575088        15.6490 
 239   0.0000       0.579737        15.7755 
 240   0.0000       0.583178        15.8691 
 241   0.0000       0.584671        15.9097 
 242   0.0000       0.587149        15.9771 
 243   0.0000       0.593570        16.1519 
 244   0.0000       0.599050        16.3010 
 245   0.0000       0.601458        16.3665 
 246   0.0000       0.605053        16.4643 
 247   0.0000       0.611646        16.6437 
 248   0.0000       0.613087        16.6829 
 249   0.0000       0.614035        16.7088 
 250   0.0000       0.616281        16.7699 
 251   0.0000       0.624585        16.9958 
 252   0.0000       0.627918        17.0865 
 253   0.0000       0.632096        17.2002 
 254   0.0000       0.637258        17.3407 
 255   0.0000       0.638729        17.3807 
 256   0.0000       0.641941        17.4681 
 257   0.0000       0.649756        17.6808 
 258   0.0000       0.652695        17.7607 
 259   0.0000       0.654830        17.8188 
 260   0.0000       0.658804        17.9270 
 261   0.0000       0.660144        17.9634 
 262   0.0000       0.664793        18.0899 
 263   0.0000       0.669983        18.2312 
 264   0.0000       0.673033        18.3141 
 265   0.0000       0.676522        18.4091 
 266   0.0000       0.681176        18.5358 
 267   0.0000       0.686360        18.6768 
 268   0.0000       0.690500        18.7895 
 269   0.0000       0.694314        18.8933 
 270   0.0000       0.700560        19.0632 
 271   0.0000       0.703828        19.1521 
 272   0.0000       0.706358        19.2210 
 273   0.0000       0.709169        19.2975 
 274   0.0000       0.715111        19.4592 
 275   0.0000       0.721538        19.6340 
 276   0.0000       0.726097        19.7581 
 277   0.0000       0.729281        19.8448 
 278   0.0000       0.732883        19.9427 
 279   0.0000       0.735133        20.0040 
 280   0.0000       0.743742        20.2383 
 281   0.0000       0.749365        20.3913 
 282   0.0000       0.756011        20.5721 
 283   0.0000       0.759661        20.6714 
 284   0.0000       0.767152        20.8753 
 285   0.0000       0.771550        20.9949 
 286   0.0000       0.776605        21.1325 
 287   0.0000       0.778603        21.1869 
 288   0.0000       0.788033        21.4435 
 289   0.0000       0.803873        21.8745 
 290   0.0000       0.807287        21.9674 
 291   0.0000       0.813881        22.1468 
 292   0.0000       0.818940        22.2845 
 293   0.0000       0.824865        22.4457 
 294   0.0000       0.831389        22.6232 
 295   0.0000       0.833110        22.6701 
 296   0.0000       0.840513        22.8715 
 297   0.0000       0.843282        22.9469 
 298   0.0000       0.846735        23.0408 
 299   0.0000       0.855200        23.2712 
 300   0.0000       0.858052        23.3488 
 301   0.0000       0.861003        23.4291 
 302   0.0000       0.868515        23.6335 
 303   0.0000       0.875022        23.8106 
 304   0.0000       0.880309        23.9544 
 305   0.0000       0.882146        24.0044 
 306   0.0000       0.884699        24.0739 
 307   0.0000       0.890447        24.2303 
 308   0.0000       0.892799        24.2943 
 309   0.0000       0.905163        24.6307 
 310   0.0000       0.907794        24.7023 
 311   0.0000       0.909299        24.7433 
 312   0.0000       0.911882        24.8136 
 313   0.0000       0.915047        24.8997 
 314   0.0000       0.921472        25.0745 
 315   0.0000       0.922746        25.1092 
 316   0.0000       0.927068        25.2268 
 317   0.0000       0.930178        25.3114 
 318   0.0000       0.938340        25.5335 
 319   0.0000       0.940156        25.5829 
 320   0.0000       0.942771        25.6541 
 321   0.0000       0.947949        25.7950 
 322   0.0000       0.949283        25.8313 
 323   0.0000       0.954828        25.9822 
 324   0.0000       0.955284        25.9946 
 325   0.0000       0.957006        26.0414 
 326   0.0000       0.964415        26.2431 
 327   0.0000       0.968957        26.3667 
 328   0.0000       0.970465        26.4077 
 329   0.0000       0.971676        26.4407 
 330   0.0000       0.972362        26.4593 
 331   0.0000       0.979727        26.6597 
 332   0.0000       0.981444        26.7064 
 333   0.0000       0.988125        26.8883 
 334   0.0000       0.990083        26.9415 
 335   0.0000       0.996407        27.1136 
 336   0.0000       1.002228        27.2720 
 337   0.0000       1.006070        27.3766 
 338   0.0000       1.007878        27.4258 
 339   0.0000       1.010235        27.4899 
 340   0.0000       1.012855        27.5612 
 341   0.0000       1.018361        27.7110 
 342   0.0000       1.022486        27.8233 
 343   0.0000       1.026120        27.9221 
 344   0.0000       1.031448        28.0671 
 345   0.0000       1.034127        28.1400 
 346   0.0000       1.034715        28.1560 
 347   0.0000       1.038021        28.2460 
 348   0.0000       1.045345        28.4453 
 349   0.0000       1.049425        28.5563 
 350   0.0000       1.049817        28.5670 
 351   0.0000       1.050514        28.5859 
 352   0.0000       1.056045        28.7365 
 353   0.0000       1.057781        28.7837 
 354   0.0000       1.064501        28.9666 
 355   0.0000       1.067645        29.0521 
 356   0.0000       1.071797        29.1651 
 357   0.0000       1.076268        29.2867 
 358   0.0000       1.079642        29.3785 
 359   0.0000       1.080494        29.4017 
 360   0.0000       1.087123        29.5821 
 361   0.0000       1.089013        29.6336 
 362   0.0000       1.096456        29.8361 
 363   0.0000       1.100933        29.9579 
 364   0.0000       1.103325        30.0230 
 365   0.0000       1.107484        30.1362 
 366   0.0000       1.113670        30.3045 
 367   0.0000       1.121256        30.5109 
 368   0.0000       1.121734        30.5239 
 369   0.0000       1.126352        30.6496 
 370   0.0000       1.130765        30.7697 
 371   0.0000       1.137074        30.9414 
 372   0.0000       1.138544        30.9813 
 373   0.0000       1.142115        31.0785 
 374   0.0000       1.144175        31.1346 
 375   0.0000       1.148488        31.2520 
 376   0.0000       1.157027        31.4843 
 377   0.0000       1.165373        31.7114 
 378   0.0000       1.166178        31.7333 
 379   0.0000       1.169548        31.8250 
 380   0.0000       1.174060        31.9478 
 381   0.0000       1.175097        31.9760 
 382   0.0000       1.182783        32.1852 
 383   0.0000       1.184764        32.2391 
 384   0.0000       1.190688        32.4003 
 385   0.0000       1.195181        32.5225 
 386   0.0000       1.202429        32.7198 
 387   0.0000       1.204265        32.7697 
 388   0.0000       1.208513        32.8853 
 389   0.0000       1.213185        33.0124 
 390   0.0000       1.216565        33.1044 
 391   0.0000       1.225810        33.3560 
 392   0.0000       1.231212        33.5030 
 393   0.0000       1.235486        33.6193 
 394   0.0000       1.238717        33.7072 
 395   0.0000       1.248521        33.9740 
 396   0.0000       1.251448        34.0536 
 397   0.0000       1.254574        34.1387 
 398   0.0000       1.259583        34.2750 
 399   0.0000       1.263804        34.3899 
 400   0.0000       1.268229        34.5103 
 401   0.0000       1.271264        34.5929 
 402   0.0000       1.276025        34.7224 
 403   0.0000       1.277485        34.7621 
 404   0.0000       1.282993        34.9120 
 405   0.0000       1.293032        35.1852 
 406   0.0000       1.294435        35.2234 
 407   0.0000       1.300574        35.3904 
 408   0.0000       1.303583        35.4723 
 409   0.0000       1.307420        35.5767 
 410   0.0000       1.310329        35.6559 
 411   0.0000       1.311967        35.7004 
 412   0.0000       1.315147        35.7870 
 413   0.0000       1.325380        36.0654 
 414   0.0000       1.331079        36.2205 
 415   0.0000       1.338127        36.4123 
 416   0.0000       1.342994        36.5447 
 417   0.0000       1.345872        36.6230 
 418   0.0000       1.351684        36.7812 
 419   0.0000       1.357687        36.9445 
 420   0.0000       1.366325        37.1796 
 421   0.0000       1.372239        37.3405 
 422   0.0000       1.374320        37.3972 
 423   0.0000       1.380819        37.5740 
 424   0.0000       1.381850        37.6021 
 425   0.0000       1.387697        37.7612 
 426   0.0000       1.391838        37.8738 
 427   0.0000       1.397339        38.0235 
 428   0.0000       1.409527        38.3552 
 429   0.0000       1.412825        38.4449 
 430   0.0000       1.419671        38.6312 
 431   0.0000       1.422536        38.7092 
 432   0.0000       1.434059        39.0227 
 433   0.0000       1.438307        39.1383 
 434   0.0000       1.440134        39.1880 
 435   0.0000       1.445593        39.3366 
 436   0.0000       1.451682        39.5023 
 437   0.0000       1.458648        39.6918 
 438   0.0000       1.463255        39.8172 
 439   0.0000       1.464656        39.8553 
 440   0.0000       1.467425        39.9307 
 441   0.0000       1.472206        40.0608 
 442   0.0000       1.475345        40.1462 
 443   0.0000       1.482428        40.3389 
 444   0.0000       1.486049        40.4375 
 445   0.0000       1.491413        40.5834 
 446   0.0000       1.495125        40.6844 
 447   0.0000       1.498738        40.7827 
 448   0.0000       1.506253        40.9872 
 449   0.0000       1.511058        41.1180 
 450   0.0000       1.522161        41.4201 
 451   0.0000       1.526449        41.5368 
 452   0.0000       1.532111        41.6908 
 453   0.0000       1.536929        41.8220 
 454   0.0000       1.542132        41.9635 
 455   0.0000       1.547321        42.1047 
 456   0.0000       1.549392        42.1611 
 457   0.0000       1.555587        42.3297 
 458   0.0000       1.559060        42.4242 
 459   0.0000       1.566673        42.6313 
 460   0.0000       1.572929        42.8016 
 461   0.0000       1.579183        42.9718 
 462   0.0000       1.580364        43.0039 
 463   0.0000       1.584342        43.1121 
 464   0.0000       1.596109        43.4323 
 465   0.0000       1.601341        43.5747 
 466   0.0000       1.607503        43.7424 
 467   0.0000       1.613256        43.8989 
 468   0.0000       1.618207        44.0337 
 469   0.0000       1.625584        44.2344 
 470   0.0000       1.630068        44.3564 
 471   0.0000       1.636594        44.5340 
 472   0.0000       1.637299        44.5532 
 473   0.0000       1.648458        44.8568 
 474   0.0000       1.653808        45.0024 
 475   0.0000       1.654799        45.0294 
 476   0.0000       1.661351        45.2077 
 477   0.0000       1.662496        45.2388 
 478   0.0000       1.674004        45.5520 
 479   0.0000       1.679435        45.6998 
 480   0.0000       1.681557        45.7575 
 481   0.0000       1.688859        45.9562 
 482   0.0000       1.701242        46.2932 
 483   0.0000       1.704072        46.3702 
 484   0.0000       1.707412        46.4610 
 485   0.0000       1.710699        46.5505 
 486   0.0000       1.714614        46.6570 
 487   0.0000       1.720974        46.8301 
 488   0.0000       1.729254        47.0554 
 489   0.0000       1.731726        47.1227 
 490   0.0000       1.733282        47.1650 
 491   0.0000       1.741002        47.3751 
 492   0.0000       1.747698        47.5573 
 493   0.0000       1.751522        47.6613 
 494   0.0000       1.759474        47.8777 
 495   0.0000       1.763690        47.9925 
 496   0.0000       1.766253        48.0622 
 497   0.0000       1.769229        48.1432 
 498   0.0000       1.776358        48.3372 
 499   0.0000       1.788809        48.6760 
 500   0.0000       1.790472        48.7212 
 501   0.0000       1.794311        48.8257 
 502   0.0000       1.795485        48.8576 
 503   0.0000       1.804720        49.1089 
 504   0.0000       1.809590        49.2414 
 505   0.0000       1.816926        49.4411 
 506   0.0000       1.819180        49.5024 
 507   0.0000       1.822477        49.5921 
 508   0.0000       1.827448        49.7274 
 509   0.0000       1.829251        49.7764 
 510   0.0000       1.839153        50.0459 
 511   0.0000       1.841132        50.0997 
 512   0.0000       1.846416        50.2435 
 513   0.0000       1.850600        50.3574 
 514   0.0000       1.859822        50.6083 
 515   0.0000       1.861452        50.6527 
 516   0.0000       1.866918        50.8014 
 517   0.0000       1.870875        50.9091 
 518   0.0000       1.875045        51.0226 
 519   0.0000       1.886006        51.3208 
 520   0.0000       1.888347        51.3845 
 521   0.0000       1.894367        51.5484 
 522   0.0000       1.903247        51.7900 
 523   0.0000       1.909777        51.9677 
 524   0.0000       1.913421        52.0668 
 525   0.0000       1.916843        52.1599 
 526   0.0000       1.923428        52.3391 
 527   0.0000       1.930341        52.5273 
 528   0.0000       1.932219        52.5783 
 529   0.0000       1.937596        52.7247 
 530   0.0000       1.941620        52.8342 
 531   0.0000       1.947087        52.9829 
 532   0.0000       1.956610        53.2421 
 533   0.0000       1.962602        53.4051 
 534   0.0000       1.964126        53.4466 
 535   0.0000       1.970177        53.6112 
 536   0.0000       1.978299        53.8322 
 537   0.0000       1.981255        53.9127 
 538   0.0000       1.993369        54.2423 
 539   0.0000       1.995237        54.2932 
 540   0.0000       2.001637        54.4673 
 541   0.0000       2.007766        54.6341 
 542   0.0000       2.012702        54.7684 
 543   0.0000       2.017490        54.8987 
 544   0.0000       2.023771        55.0696 
 545   0.0000       2.034215        55.3538 
 546   0.0000       2.046585        55.6904 
 547   0.0000       2.048068        55.7308 
 548   0.0000       2.052147        55.8418 
 549   0.0000       2.057158        55.9781 
 550   0.0000       2.070900        56.3520 
 551   0.0000       2.074537        56.4510 
 552   0.0000       2.082071        56.6560 
 553   0.0000       2.082716        56.6736 
 554   0.0000       2.087843        56.8131 
 555   0.0000       2.101708        57.1904 
 556   0.0000       2.109325        57.3977 
 557   0.0000       2.113663        57.5157 
 558   0.0000       2.114078        57.5270 
 559   0.0000       2.125591        57.8403 
 560   0.0000       2.129633        57.9503 
 561   0.0000       2.138524        58.1922 
 562   0.0000       2.144879        58.3651 
 563   0.0000       2.150890        58.5287 
 564   0.0000       2.158513        58.7361 
 565   0.0000       2.169610        59.0381 
 566   0.0000       2.177297        59.2473 
 567   0.0000       2.184921        59.4547 
 568   0.0000       2.191674        59.6385 
 569   0.0000       2.196468        59.7689 
 570   0.0000       2.201659        59.9102 
 571   0.0000       2.212233        60.1979 
 572   0.0000       2.217196        60.3330 
 573   0.0000       2.226673        60.5908 
 574   0.0000       2.232180        60.7407 
 575   0.0000       2.237081        60.8741 
 576   0.0000       2.242187        61.0130 
 577   0.0000       2.249274        61.2059 
 578   0.0000       2.255887        61.3858 
 579   0.0000       2.262883        61.5762 
 580   0.0000       2.271475        61.8100 
 581   0.0000       2.279356        62.0244 
 582   0.0000       2.282674        62.1147 
 583   0.0000       2.291393        62.3520 
 584   0.0000       2.302472        62.6534 
 585   0.0000       2.306598        62.7657 
 586   0.0000       2.319462        63.1158 
 587   0.0000       2.323267        63.2193 
 588   0.0000       2.333604        63.5006 
 589   0.0000       2.346874        63.8617 
 590   0.0000       2.353834        64.0511 
 591   0.0000       2.359260        64.1987 
 592   0.0000       2.367458        64.4218 
 593   0.0000       2.375359        64.6368 
 594   0.0000       2.382572        64.8331 
 595   0.0000       2.393004        65.1170 
 596   0.0000       2.396460        65.2110 
 597   0.0000       2.399641        65.2976 
 598   0.0000       2.404370        65.4262 
 599   0.0000       2.409534        65.5668 
 600   0.0000       2.425149        65.9917 
 601   0.0000       2.434367        66.2425 
 602   0.0000       2.442496        66.4637 
 603   0.0000       2.450165        66.6724 
 604   0.0000       2.456682        66.8497 
 605   0.0000       2.466694        67.1222 
 606   0.0000       2.485746        67.6406 
 607   0.0000       2.495937        67.9179 
 608   0.0000       2.501108        68.0586 
 609   0.0000       2.507817        68.2412 
 610   0.0000       2.518970        68.5447 
 611   0.0000       2.525295        68.7168 
 612   0.0000       2.541597        69.1604 
 613   0.0000       2.558992        69.6337 
 614   0.0000       2.562628        69.7327 
 615   0.0000       2.571215        69.9663 
 616   0.0000       2.583385        70.2975 
 617   0.0000       2.597358        70.6777 
 618   0.0000       2.630710        71.5852 
 619   0.0000       2.639390        71.8215 
 620   0.0000       2.647420        72.0400 
 621   0.0000       2.655039        72.2473 
 622   0.0000       2.659973        72.3816 
 623   0.0000       2.673220        72.7420 
 624   0.0000       2.678776        72.8932 
 625   0.0000       2.686076        73.0918 
 626   0.0000       2.698647        73.4339 
 627   0.0000       2.705699        73.6258 
 628   0.0000       2.707835        73.6839 
 629   0.0000       2.713101        73.8272 
 630   0.0000       2.719835        74.0105 
 631   0.0000       2.735535        74.4377 
 632   0.0000       2.749207        74.8097 
 633   0.0000       2.753001        74.9130 
 634   0.0000       2.764447        75.2244 
 635   0.0000       2.771869        75.4264 
 636   0.0000       2.779612        75.6371 
 637   0.0000       2.788613        75.8820 
 638   0.0000       2.796348        76.0925 
 639   0.0000       2.806381        76.3655 
 640   0.0000       2.819585        76.7248 
 641   0.0000       2.840853        77.3035 
 642   0.0000       2.852763        77.6276 
 643   0.0000       2.861488        77.8650 
 644   0.0000       2.880682        78.3874 
 645   0.0000       2.891190        78.6733 
 646   0.0000       2.893370        78.7326 
 647   0.0000       2.898692        78.8774 
 648   0.0000       2.914676        79.3124 
 649   0.0000       2.928342        79.6842 
 650   0.0000       2.939549        79.9892 
 651   0.0000       2.957048        80.4654 
 652   0.0000       2.979324        81.0715 
 653   0.0000       2.988432        81.3194 
 654   0.0000       3.001517        81.6754 
 655   0.0000       3.011274        81.9409 
 656   0.0000       3.032308        82.5133 
 657   0.0000       3.052638        83.0665 
 658   0.0000       3.073043        83.6218 
 659   0.0000       3.076929        83.7275 
 660   0.0000       3.086272        83.9817 
 661   0.0000       3.095239        84.2257 
 662   0.0000       3.116854        84.8139 
 663   0.0000       3.127855        85.1133 
 664   0.0000       3.144698        85.5716 
 665   0.0000       3.154739        85.8448 
 666   0.0000       3.169734        86.2529 
 667   0.0000       3.183866        86.6374 
 668   0.0000       3.194906        86.9378 
 669   0.0000       3.200656        87.0943 
 670   0.0000       3.214788        87.4788 
 671   0.0000       3.217106        87.5419 
 672   0.0000       3.232013        87.9476 
 673   0.0000       3.247091        88.3578 
 674   0.0000       3.251607        88.4807 
 675   0.0000       3.256699        88.6193 
 676   0.0000       3.266318        88.8810 
 677   0.0000       3.271801        89.0302 
 678   0.0000       3.278256        89.2059 
 679   0.0000       3.295645        89.6791 
 680   0.0000       3.298793        89.7647 
 681   0.0000       3.313849        90.1744 
 682   0.0000       3.328204        90.5650 
 683   0.0000       3.334652        90.7405 
 684   0.0000       3.338393        90.8423 
 685   0.0000       3.358918        91.4008 
 686   0.0000       3.359973        91.4295 
 687   0.0000       3.375187        91.8435 
 688   0.0000       3.390820        92.2689 
 689   0.0000       3.396436        92.4217 
 690   0.0000       3.413105        92.8753 
 691   0.0000       3.416488        92.9674 
 692   0.0000       3.422938        93.1429 
 693   0.0000       3.440293        93.6151 
 694   0.0000       3.442491        93.6749 
 695   0.0000       3.454393        93.9988 
 696   0.0000       3.458601        94.1133 
 697   0.0000       3.465523        94.3017 
 698   0.0000       3.477561        94.6292 
 699   0.0000       3.482662        94.7680 
 700   0.0000       3.491474        95.0078 
 701   0.0000       3.499296        95.2207 
 702   0.0000       3.511845        95.5622 
 703   0.0000       3.518616        95.7464 
 704   0.0000       3.522567        95.8539 
 705   0.0000       3.527244        95.9812 
 706   0.0000       3.536696        96.2384 
 707   0.0000       3.543803        96.4318 
 708   0.0000       3.551101        96.6304 
 709   0.0000       3.560564        96.8879 
 710   0.0000       3.569443        97.1295 
 711   0.0000       3.585397        97.5636 
 712   0.0000       3.588541        97.6492 
 713   0.0000       3.594640        97.8151 
 714   0.0000       3.610231        98.2394 
 715   0.0000       3.612298        98.2956 
 716   0.0000       3.628831        98.7455 
 717   0.0000       3.636910        98.9654 
 718   0.0000       3.649085        99.2967 
 719   0.0000       3.650076        99.3236 
 720   0.0000       3.666014        99.7573 
 721   0.0000       3.671333        99.9020 
 722   0.0000       3.675990       100.0288 
 723   0.0000       3.679587       100.1266 
 724   0.0000       3.693254       100.4986 
 725   0.0000       3.699337       100.6641 
 726   0.0000       3.703472       100.7766 
 727   0.0000       3.709429       100.9387 
 728   0.0000       3.715249       101.0971 
 729   0.0000       3.718663       101.1900 
 730   0.0000       3.722501       101.2944 
 731   0.0000       3.730828       101.5210 
 732   0.0000       3.739181       101.7483 
 733   0.0000       3.743666       101.8703 
 734   0.0000       3.763355       102.4061 
 735   0.0000       3.765773       102.4719 
 736   0.0000       3.769605       102.5762 
 737   0.0000       3.776342       102.7595 
 738   0.0000       3.781085       102.8885 
 739   0.0000       3.784602       102.9843 
 740   0.0000       3.800255       103.4102 
 741   0.0000       3.806227       103.5727 
 742   0.0000       3.809862       103.6716 
 743   0.0000       3.824047       104.0576 
 744   0.0000       3.829727       104.2122 
 745   0.0000       3.842519       104.5603 
 746   0.0000       3.844906       104.6252 
 747   0.0000       3.854098       104.8753 
 748   0.0000       3.862446       105.1025 
 749   0.0000       3.871186       105.3403 
 750   0.0000       3.880615       105.5969 
 751   0.0000       3.883698       105.6808 
 752   0.0000       3.891252       105.8864 
 753   0.0000       3.896200       106.0210 
 754   0.0000       3.905370       106.2705 
 755   0.0000       3.910612       106.4132 
 756   0.0000       3.926976       106.8584 
 757   0.0000       3.932778       107.0163 
 758   0.0000       3.935328       107.0857 
 759   0.0000       3.940893       107.2371 
 760   0.0000       3.947069       107.4052 
 761   0.0000       3.953611       107.5832 
 762   0.0000       3.956477       107.6612 
 763   0.0000       3.959965       107.7561 
 764   0.0000       3.968976       108.0013 
 765   0.0000       3.973144       108.1147 
 766   0.0000       3.988321       108.5277 
 767   0.0000       3.993008       108.6553 
 768   0.0000       3.998204       108.7967 
 769   0.0000       4.004672       108.9727 
 770   0.0000       4.013283       109.2070 
 771   0.0000       4.021389       109.4276 
 772   0.0000       4.029512       109.6486 
 773   0.0000       4.034797       109.7924 
 774   0.0000       4.039792       109.9283 
 775   0.0000       4.049442       110.1909 
 776   0.0000       4.058015       110.4242 
 777   0.0000       4.068091       110.6984 
 778   0.0000       4.079558       111.0104 
 779   0.0000       4.086778       111.2069 
 780   0.0000       4.094081       111.4056 
 781   0.0000       4.098191       111.5174 
 782   0.0000       4.100875       111.5905 
 783   0.0000       4.114027       111.9484 
 784   0.0000       4.129786       112.3772 
 785   0.0000       4.134396       112.5026 
 786   0.0000       4.138314       112.6092 
 787   0.0000       4.145084       112.7935 
 788   0.0000       4.152665       112.9998 
 789   0.0000       4.160543       113.2141 
 790   0.0000       4.174113       113.5834 
 791   0.0000       4.180626       113.7606 
 792   0.0000       4.181857       113.7941 
 793   0.0000       4.193866       114.1209 
 794   0.0000       4.198271       114.2408 
 795   0.0000       4.207738       114.4984 
 796   0.0000       4.210807       114.5819 
 797   0.0000       4.221358       114.8690 
 798   0.0000       4.227282       115.0302 
 799   0.0000       4.228873       115.0735 
 800   0.0000       4.250368       115.6584 
 801   0.0000       4.260089       115.9229 
 802   0.0000       4.261964       115.9739 
 803   0.0000       4.270480       116.2057 
 804   0.0000       4.283827       116.5689 
 805   0.0000       4.287016       116.6556 
 806   0.0000       4.299599       116.9980 
 807   0.0000       4.303225       117.0967 
 808   0.0000       4.315649       117.4348 
 809   0.0000       4.330972       117.8517 
 810   0.0000       4.333469       117.9197 
 811   0.0000       4.355652       118.5233 
 812   0.0000       4.362331       118.7051 
 813   0.0000       4.372771       118.9891 
 814   0.0000       4.375560       119.0650 
 815   0.0000       4.389234       119.4371 
 816   0.0000       4.395074       119.5961 
 817   0.0000       4.413092       120.0863 
 818   0.0000       4.420806       120.2962 
 819   0.0000       4.430345       120.5558 
 820   0.0000       4.441670       120.8640 
 821   0.0000       4.448652       121.0540 
 822   0.0000       4.458132       121.3119 
 823   0.0000       4.462534       121.4317 
 824   0.0000       4.476594       121.8143 
 825   0.0000       4.490456       122.1915 
 826   0.0000       4.497411       122.3808 
 827   0.0000       4.501685       122.4971 
 828   0.0000       4.514364       122.8421 
 829   0.0000       4.524140       123.1081 
 830   0.0000       4.531098       123.2974 
 831   0.0000       4.534299       123.3845 
 832   0.0000       4.541762       123.5876 
 833   0.0000       4.543112       123.6244 
 834   0.0000       4.562505       124.1521 
 835   0.0000       4.568121       124.3049 
 836   0.0000       4.584512       124.7509 
 837   0.0000       4.594979       125.0357 
 838   0.0000       4.611782       125.4930 
 839   0.0000       4.622188       125.7761 
 840   0.0000       4.632668       126.0613 
 841   0.0000       4.642652       126.3330 
 842   0.0000       4.650762       126.5537 
 843   0.0000       4.663804       126.9086 
 844   0.0000       4.672728       127.1514 
 845   0.0000       4.682223       127.4098 
 846   0.0000       4.691699       127.6676 
 847   0.0000       4.700081       127.8957 
 848   0.0000       4.715470       128.3145 
 849   0.0000       4.721929       128.4902 
 850   0.0000       4.734757       128.8393 
 851   0.0000       4.749389       129.2374 
 852   0.0000       4.759920       129.5240 
 853   0.0000       4.776641       129.9790 
 854   0.0000       4.794784       130.4727 
 855   0.0000       4.807686       130.8238 
 856   0.0000       4.812043       130.9423 
 857   0.0000       4.827086       131.3517 
 858   0.0000       4.831139       131.4620 
 859   0.0000       4.841568       131.7458 
 860   0.0000       4.852923       132.0547 
 861   0.0000       4.872513       132.5878 
 862   0.0000       4.881263       132.8259 
 863   0.0000       4.894258       133.1795 
 864   0.0000       4.898911       133.3061 
 865   0.0000       4.907176       133.5310 
 866   0.0000       4.916595       133.7874 
 867   0.0000       4.931135       134.1830 
 868   0.0000       4.951054       134.7250 
 869   0.0000       4.956046       134.8609 
 870   0.0000       4.964046       135.0786 
 871   0.0000       4.970121       135.2439 
 872   0.0000       4.985396       135.6595 
 873   0.0000       4.998586       136.0184 
 874   0.0000       5.003401       136.1495 
 875   0.0000       5.025084       136.7395 
 876   0.0000       5.029802       136.8679 
 877   0.0000       5.036918       137.0615 
 878   0.0000       5.040954       137.1713 
 879   0.0000       5.059551       137.6774 
 880   0.0000       5.075161       138.1021 
 881   0.0000       5.092927       138.5856 
 882   0.0000       5.100443       138.7901 
 883   0.0000       5.112496       139.1181 
 884   0.0000       5.126729       139.5054 
 885   0.0000       5.145757       140.0232 
 886   0.0000       5.156770       140.3228 
 887   0.0000       5.175099       140.8216 
 888   0.0000       5.178231       140.9068 
 889   0.0000       5.186964       141.1445 
 890   0.0000       5.202450       141.5659 
 891   0.0000       5.215657       141.9252 
 892   0.0000       5.229243       142.2949 
 893   0.0000       5.241784       142.6362 
 894   0.0000       5.246886       142.7750 
 895   0.0000       5.263196       143.2188 
 896   0.0000       5.268788       143.3710 
 897   0.0000       5.287509       143.8804 
 898   0.0000       5.309385       144.4757 
 899   0.0000       5.317333       144.6920 
 900   0.0000       5.324977       144.9000 
 901   0.0000       5.338510       145.2683 
 902   0.0000       5.349596       145.5699 
 903   0.0000       5.358341       145.8079 
 904   0.0000       5.373141       146.2106 
 905   0.0000       5.381283       146.4322 
 906   0.0000       5.404075       147.0524 
 907   0.0000       5.423580       147.5831 
 908   0.0000       5.427477       147.6892 
 909   0.0000       5.433652       147.8572 
 910   0.0000       5.453149       148.3877 
 911   0.0000       5.458942       148.5454 
 912   0.0000       5.467211       148.7704 
 913   0.0000       5.489462       149.3758 
 914   0.0000       5.499370       149.6455 
 915   0.0000       5.507015       149.8535 
 916   0.0000       5.530380       150.4893 
 917   0.0000       5.533638       150.5779 
 918   0.0000       5.552513       151.0916 
 919   0.0000       5.557369       151.2237 
 920   0.0000       5.570539       151.5821 
 921   0.0000       5.581796       151.8884 
 922   0.0000       5.603219       152.4713 
 923   0.0000       5.616254       152.8260 
 924   0.0000       5.621746       152.9755 
 925   0.0000       5.627290       153.1263 
 926   0.0000       5.637982       153.4173 
 927   0.0000       5.647452       153.6750 
 928   0.0000       5.657430       153.9465 
 929   0.0000       5.672247       154.3497 
 930   0.0000       5.686838       154.7467 
 931   0.0000       5.706659       155.2861 
 932   0.0000       5.710177       155.3818 
 933   0.0000       5.718996       155.6218 
 934   0.0000       5.746392       156.3673 
 935   0.0000       5.748629       156.4282 
 936   0.0000       5.753055       156.5486 
 937   0.0000       5.766173       156.9055 
 938   0.0000       5.788340       157.5087 
 939   0.0000       5.797047       157.7457 
 940   0.0000       5.821243       158.4041 
 941   0.0000       5.865987       159.6216 
 942   0.0000       5.875943       159.8925 
 943   0.0000       5.900837       160.5700 
 944   0.0000       5.949987       161.9074 
 945   0.0000       5.964881       162.3127 
 946   0.0000       6.045160       164.4972 
 947   0.0000       6.077256       165.3706 
 948   0.0000       6.089481       165.7032 
 949   0.0000       6.105477       166.1385 
 950   0.0000       6.142675       167.1507 
 951   0.0000       6.159628       167.6120 
 952   0.0000       6.168372       167.8499 
 953   0.0000       6.180081       168.1685 
 954   0.0000       6.199522       168.6976 
 955   0.0000       6.221483       169.2952 
 956   0.0000       6.235325       169.6718 
 957   0.0000       6.245436       169.9470 
 958   0.0000       6.257604       170.2781 
 959   0.0000       6.274988       170.7511 
 960   0.0000       6.288709       171.1245 
 961   0.0000       6.299762       171.4252 
 962   0.0000       6.323662       172.0756 
 963   0.0000       6.336105       172.4142 
 964   0.0000       6.351693       172.8383 
 965   0.0000       6.358481       173.0231 
 966   0.0000       6.393262       173.9695 
 967   0.0000       6.414755       174.5544 
 968   0.0000       6.466152       175.9529 
 969   0.0000       6.539039       177.9363 
 970   0.0000       6.605372       179.7413 
 971   0.0000       6.636282       180.5824 
 972   0.0000       6.794457       184.8866 
 973   0.0000       6.826742       185.7651 
 974   0.0000       6.840085       186.1282 
 975   0.0000       6.869450       186.9272 
 976   0.0000       6.902321       187.8217 
 977   0.0000       6.924088       188.4140 
 978   0.0000       6.941809       188.8962 
 979   0.0000       6.971111       189.6936 
 980   0.0000       6.990857       190.2309 
 981   0.0000       7.007257       190.6772 
 982   0.0000       7.039440       191.5529 
 983   0.0000       7.050918       191.8652 
 984   0.0000       7.075106       192.5234 
 985   0.0000       7.093442       193.0224 
 986   0.0000       7.235695       196.8933 
 987   0.0000       7.266327       197.7268 
 988   0.0000       7.332716       199.5333 
 989   0.0000       7.356496       200.1804 
 990   0.0000       7.504955       204.2202 
 991   0.0000       7.577900       206.2051 
 992   0.0000       7.598756       206.7727 
 993   0.0000       7.678792       208.9506 
 994   0.0000       7.739345       210.5983 
 995   0.0000       7.824216       212.9078 
 996   0.0000       7.898895       214.9399 
 997   0.0000       7.981218       217.1800 
 998   0.0000       8.228749       223.9156 
 999   0.0000       9.396470       255.6909 
 1000   0.0000       9.402338       255.8506 
 1001   0.0000       9.430119       256.6066 
 1002   0.0000       9.445738       257.0316 
 1003   0.0000       9.451161       257.1792 
 1004   0.0000       9.476805       257.8770 
 1005   0.0000       9.627850       261.9871 
 1006   0.0000      10.079708       274.2828 
 1007   0.0000      10.082908       274.3699 
 1008   0.0000      10.095817       274.7211 
 1009   0.0000      10.194005       277.3930 
 1010   0.0000      10.206049       277.7207 
 1011   0.0000      10.235225       278.5146 
 1012   0.0000      10.318907       280.7917 
 1013   0.0000      10.365673       282.0643 
 1014   0.0000      10.413345       283.3615 
 1015   0.0000      10.736966       292.1677 
 1016   0.0000      16.495063       448.8535 
 1017   0.0000      17.467480       475.3143 
 1018   0.0000      18.058294       491.3911 
 1019   0.0000      18.324872       498.6451 
 1020   0.0000      18.550037       504.7722 
 1021   0.0000      18.626184       506.8442 
 1022   0.0000      20.431313       555.9643 
 1023   0.0000      21.343955       580.7985 
 1024   0.0000      21.656357       589.2994 

                 SPIN DOWN ORBITALS
  NO   OCC          E(Eh)            E(eV) 
   0   1.0000    -261.574671     -7117.8087 
   1   1.0000    -104.793711     -2851.5818 
   2   1.0000    -104.790730     -2851.5007 
   3   1.0000    -104.788911     -2851.4512 
   4   1.0000     -32.083943      -873.0485 
   5   1.0000     -27.561891      -749.9972 
   6   1.0000     -27.561767      -749.9938 
   7   1.0000     -27.561687      -749.9916 
   8   1.0000     -20.621151      -561.1300 
   9   1.0000     -11.422310      -310.8169 
  10   1.0000     -11.279017      -306.9176 
  11   1.0000     -11.273184      -306.7589 
  12   1.0000     -11.261246      -306.4341 
  13   1.0000     -11.240422      -305.8674 
  14   1.0000     -11.239333      -305.8378 
  15   1.0000     -11.236027      -305.7478 
  16   1.0000     -11.226742      -305.4952 
  17   1.0000     -10.520337      -286.2729 
  18   1.0000     -10.517326      -286.1910 
  19   1.0000     -10.515463      -286.1403 
  20   1.0000      -7.986266      -217.3173 
  21   1.0000      -7.985501      -217.2965 
  22   1.0000      -7.985462      -217.2955 
  23   1.0000      -7.983189      -217.2336 
  24   1.0000      -7.982527      -217.2156 
  25   1.0000      -7.982431      -217.2130 
  26   1.0000      -7.981460      -217.1866 
  27   1.0000      -7.980540      -217.1615 
  28   1.0000      -7.980461      -217.1594 
  29   1.0000      -4.158653      -113.1627 
  30   1.0000      -2.680197       -72.9319 
  31   1.0000      -2.680139       -72.9303 
  32   1.0000      -2.679725       -72.9190 
  33   1.0000      -1.461016       -39.7563 
  34   1.0000      -1.121373       -30.5141 
  35   1.0000      -1.100915       -29.9574 
  36   1.0000      -1.052943       -28.6520 
  37   1.0000      -1.040340       -28.3091 
  38   1.0000      -1.037376       -28.2284 
  39   1.0000      -1.020139       -27.7594 
  40   1.0000      -1.009103       -27.4591 
  41   1.0000      -0.955114       -25.9900 
  42   1.0000      -0.893270       -24.3071 
  43   1.0000      -0.828487       -22.5443 
  44   1.0000      -0.725682       -19.7468 
  45   1.0000      -0.716837       -19.5061 
  46   1.0000      -0.704546       -19.1717 
  47   1.0000      -0.685189       -18.6450 
  48   1.0000      -0.651672       -17.7329 
  49   1.0000      -0.621339       -16.9075 
  50   1.0000      -0.618037       -16.8176 
  51   1.0000      -0.603533       -16.4230 
  52   1.0000      -0.599841       -16.3225 
  53   1.0000      -0.586165       -15.9504 
  54   1.0000      -0.578605       -15.7446 
  55   1.0000      -0.559973       -15.2376 
  56   1.0000      -0.548712       -14.9312 
  57   1.0000      -0.546036       -14.8584 
  58   1.0000      -0.537350       -14.6220 
  59   1.0000      -0.526661       -14.3312 
  60   1.0000      -0.523032       -14.2324 
  61   1.0000      -0.507285       -13.8039 
  62   1.0000      -0.489522       -13.3206 
  63   1.0000      -0.486763       -13.2455 
  64   1.0000      -0.484556       -13.1854 
  65   1.0000      -0.455372       -12.3913 
  66   1.0000      -0.452454       -12.3119 
  67   1.0000      -0.449378       -12.2282 
  68   1.0000      -0.432820       -11.7776 
  69   1.0000      -0.431001       -11.7281 
  70   1.0000      -0.414744       -11.2858 
  71   1.0000      -0.356032        -9.6881 
  72   0.0000       0.012778         0.3477 
  73   0.0000       0.023844         0.6488 
  74   0.0000       0.024649         0.6707 
  75   0.0000       0.030747         0.8367 
  76   0.0000       0.039415         1.0725 
  77   0.0000       0.041299         1.1238 
  78   0.0000       0.042768         1.1638 
  79   0.0000       0.042943         1.1685 
  80   0.0000       0.044121         1.2006 
  81   0.0000       0.054512         1.4833 
  82   0.0000       0.056495         1.5373 
  83   0.0000       0.061424         1.6714 
  84   0.0000       0.063129         1.7178 
  85   0.0000       0.064607         1.7580 
  86   0.0000       0.065196         1.7741 
  87   0.0000       0.071816         1.9542 
  88   0.0000       0.077127         2.0987 
  89   0.0000       0.081763         2.2249 
  90   0.0000       0.089866         2.4454 
  91   0.0000       0.091961         2.5024 
  92   0.0000       0.094092         2.5604 
  93   0.0000       0.094225         2.5640 
  94   0.0000       0.099943         2.7196 
  95   0.0000       0.102877         2.7994 
  96   0.0000       0.104031         2.8308 
  97   0.0000       0.105062         2.8589 
  98   0.0000       0.105878         2.8811 
  99   0.0000       0.108053         2.9403 
 100   0.0000       0.111039         3.0215 
 101   0.0000       0.115222         3.1354 
 102   0.0000       0.119321         3.2469 
 103   0.0000       0.122382         3.3302 
 104   0.0000       0.123967         3.3733 
 105   0.0000       0.125812         3.4235 
 106   0.0000       0.126981         3.4553 
 107   0.0000       0.129081         3.5125 
 108   0.0000       0.131849         3.5878 
 109   0.0000       0.133854         3.6423 
 110   0.0000       0.137227         3.7341 
 111   0.0000       0.138962         3.7814 
 112   0.0000       0.144297         3.9265 
 113   0.0000       0.145958         3.9717 
 114   0.0000       0.150584         4.0976 
 115   0.0000       0.152145         4.1401 
 116   0.0000       0.156317         4.2536 
 117   0.0000       0.162334         4.4173 
 118   0.0000       0.163500         4.4491 
 119   0.0000       0.166421         4.5285 
 120   0.0000       0.169971         4.6252 
 121   0.0000       0.172305         4.6887 
 122   0.0000       0.176402         4.8002 
 123   0.0000       0.180316         4.9066 
 124   0.0000       0.183915         5.0046 
 125   0.0000       0.187170         5.0932 
 126   0.0000       0.188583         5.1316 
 127   0.0000       0.192770         5.2455 
 128   0.0000       0.196954         5.3594 
 129   0.0000       0.198523         5.4021 
 130   0.0000       0.199587         5.4310 
 131   0.0000       0.202577         5.5124 
 132   0.0000       0.204202         5.5566 
 133   0.0000       0.208952         5.6859 
 134   0.0000       0.216212         5.8834 
 135   0.0000       0.217537         5.9195 
 136   0.0000       0.221597         6.0300 
 137   0.0000       0.226014         6.1501 
 138   0.0000       0.228917         6.2291 
 139   0.0000       0.233083         6.3425 
 140   0.0000       0.236773         6.4429 
 141   0.0000       0.241287         6.5658 
 142   0.0000       0.242244         6.5918 
 143   0.0000       0.247090         6.7237 
 144   0.0000       0.249090         6.7781 
 145   0.0000       0.252173         6.8620 
 146   0.0000       0.255126         6.9423 
 147   0.0000       0.258492         7.0339 
 148   0.0000       0.259881         7.0717 
 149   0.0000       0.264992         7.2108 
 150   0.0000       0.270640         7.3645 
 151   0.0000       0.273832         7.4514 
 152   0.0000       0.277328         7.5465 
 153   0.0000       0.282322         7.6824 
 154   0.0000       0.286109         7.7854 
 155   0.0000       0.290532         7.9058 
 156   0.0000       0.294808         8.0221 
 157   0.0000       0.297900         8.1063 
 158   0.0000       0.300588         8.1794 
 159   0.0000       0.307798         8.3756 
 160   0.0000       0.310787         8.4569 
 161   0.0000       0.317671         8.6443 
 162   0.0000       0.321143         8.7387 
 163   0.0000       0.321719         8.7544 
 164   0.0000       0.329331         8.9616 
 165   0.0000       0.334793         9.1102 
 166   0.0000       0.335190         9.1210 
 167   0.0000       0.338986         9.2243 
 168   0.0000       0.342531         9.3207 
 169   0.0000       0.345393         9.3986 
 170   0.0000       0.350452         9.5363 
 171   0.0000       0.353682         9.6242 
 172   0.0000       0.359053         9.7703 
 173   0.0000       0.360418         9.8075 
 174   0.0000       0.362437         9.8624 
 175   0.0000       0.364431         9.9167 
 176   0.0000       0.368836        10.0365 
 177   0.0000       0.376034        10.2324 
 178   0.0000       0.378863        10.3094 
 179   0.0000       0.381259        10.3746 
 180   0.0000       0.384511        10.4631 
 181   0.0000       0.384907        10.4738 
 182   0.0000       0.388806        10.5800 
 183   0.0000       0.392963        10.6931 
 184   0.0000       0.394874        10.7451 
 185   0.0000       0.397872        10.8267 
 186   0.0000       0.398867        10.8537 
 187   0.0000       0.401896        10.9362 
 188   0.0000       0.405597        11.0369 
 189   0.0000       0.407944        11.1007 
 190   0.0000       0.409384        11.1399 
 191   0.0000       0.414769        11.2864 
 192   0.0000       0.418748        11.3947 
 193   0.0000       0.422427        11.4948 
 194   0.0000       0.427664        11.6373 
 195   0.0000       0.434289        11.8176 
 196   0.0000       0.437740        11.9115 
 197   0.0000       0.444289        12.0897 
 198   0.0000       0.445666        12.1272 
 199   0.0000       0.450044        12.2463 
 200   0.0000       0.453303        12.3350 
 201   0.0000       0.456521        12.4226 
 202   0.0000       0.459230        12.4963 
 203   0.0000       0.461797        12.5661 
 204   0.0000       0.461987        12.5713 
 205   0.0000       0.467637        12.7250 
 206   0.0000       0.474554        12.9133 
 207   0.0000       0.476337        12.9618 
 208   0.0000       0.479253        13.0411 
 209   0.0000       0.481727        13.1084 
 210   0.0000       0.488595        13.2954 
 211   0.0000       0.493120        13.4185 
 212   0.0000       0.496116        13.5000 
 213   0.0000       0.498835        13.5740 
 214   0.0000       0.500358        13.6154 
 215   0.0000       0.505242        13.7483 
 216   0.0000       0.508172        13.8281 
 217   0.0000       0.511437        13.9169 
 218   0.0000       0.512055        13.9337 
 219   0.0000       0.518194        14.1008 
 220   0.0000       0.519148        14.1267 
 221   0.0000       0.522996        14.2315 
 222   0.0000       0.523370        14.2416 
 223   0.0000       0.526123        14.3165 
 224   0.0000       0.529872        14.4186 
 225   0.0000       0.532436        14.4883 
 226   0.0000       0.536128        14.5888 
 227   0.0000       0.539003        14.6670 
 228   0.0000       0.542211        14.7543 
 229   0.0000       0.545852        14.8534 
 230   0.0000       0.546350        14.8669 
 231   0.0000       0.551491        15.0068 
 232   0.0000       0.555046        15.1036 
 233   0.0000       0.559964        15.2374 
 234   0.0000       0.562715        15.3122 
 235   0.0000       0.567808        15.4508 
 236   0.0000       0.571971        15.5641 
 237   0.0000       0.574475        15.6323 
 238   0.0000       0.576750        15.6942 
 239   0.0000       0.582209        15.8427 
 240   0.0000       0.585074        15.9207 
 241   0.0000       0.586650        15.9636 
 242   0.0000       0.588603        16.0167 
 243   0.0000       0.595328        16.1997 
 244   0.0000       0.600341        16.3361 
 245   0.0000       0.604670        16.4539 
 246   0.0000       0.606421        16.5016 
 247   0.0000       0.613390        16.6912 
 248   0.0000       0.615669        16.7532 
 249   0.0000       0.617175        16.7942 
 250   0.0000       0.620359        16.8808 
 251   0.0000       0.626151        17.0384 
 252   0.0000       0.630447        17.1553 
 253   0.0000       0.633821        17.2471 
 254   0.0000       0.638942        17.3865 
 255   0.0000       0.643960        17.5231 
 256   0.0000       0.645834        17.5740 
 257   0.0000       0.651710        17.7339 
 258   0.0000       0.655183        17.8284 
 259   0.0000       0.656085        17.8530 
 260   0.0000       0.661370        17.9968 
 261   0.0000       0.664448        18.0805 
 262   0.0000       0.668611        18.1938 
 263   0.0000       0.673349        18.3227 
 264   0.0000       0.674818        18.3627 
 265   0.0000       0.680924        18.5289 
 266   0.0000       0.683343        18.5947 
 267   0.0000       0.688695        18.7403 
 268   0.0000       0.693213        18.8633 
 269   0.0000       0.696321        18.9479 
 270   0.0000       0.702602        19.1188 
 271   0.0000       0.706938        19.2368 
 272   0.0000       0.711120        19.3506 
 273   0.0000       0.714529        19.4433 
 274   0.0000       0.721480        19.6325 
 275   0.0000       0.725693        19.7471 
 276   0.0000       0.727934        19.8081 
 277   0.0000       0.733598        19.9622 
 278   0.0000       0.736834        20.0503 
 279   0.0000       0.741311        20.1721 
 280   0.0000       0.748098        20.3568 
 281   0.0000       0.751338        20.4449 
 282   0.0000       0.759399        20.6643 
 283   0.0000       0.761889        20.7321 
[...]
  | sigma^2 in % of trace(Dip) retained ...   1.69e+01
  | sigma^2 in % of trace(Dpq) retained ...   1.39e-01
  | Av. % of trace(Di) retained         ...  99.998577172421
  | Av. % of trace(Dp) retained         ...  99.999999667106
  | sigma^2 in % of trace(Di) retained  ...   6.60e-07
  | sigma^2 in % of trace(Dp) retained  ...   2.52e-13
 Distributions of % trace(Dij) recovered:
  |       >= 99.9  ...   105 ( 22.1 % of all IJ-pairs)
  |   [80.0, 90.0) ...    21 (  4.4 % of all IJ-pairs)
  |   [90.0, 99.0) ...   266 ( 55.9 % of all IJ-pairs)
  |   [99.0, 99.9) ...    84 ( 17.6 % of all IJ-pairs)
 Distributions of % trace(Dip) recovered:
  |   [80.0, 90.0) ...    12 ( 10.6 % of all IP-pairs)
  |   [90.0, 99.0) ...    54 ( 47.8 % of all IP-pairs)
  |   [99.0, 99.9) ...    47 ( 41.6 % of all IP-pairs)
 Distributions of % trace(Dpq) recovered:
  |       >= 99.9  ...     5 ( 33.3 % of all PQ-pairs)
  |   [99.0, 99.9) ...    10 ( 66.7 % of all PQ-pairs)
 Distributions of % trace(Di) recovered :
  |       >= 99.9  ...    43 (100.0 % of all I-pairs )
 Distributions of % trace(Dp) recovered :
  |       >= 99.9  ...     5 (100.0 % of all P-pairs )

                       ===========================
                       1047 OF 1673 PAIRS ARE KEPT
                       ===========================

 Initial PAO correlation energy (all pairs)    ...  -2.6806626777 Eh
 Energy constituents in PAO basis (Eh):
  | Vijab(+0) ...  -2.2533641747
  | Viab (-1) ...  -0.1740686245
  | Vab  (-2) ...  -0.0573257186
  | Va   (-1) ...  -0.0000458523
  | Vija (+1) ...  -0.0714555124
  | Vij  (+2) ...  -0.0155576878
  | Via  (+0) ...  -0.1086795177
  | Vi   (+1) ...  -0.0001655897
 Initial PNO correlation energy                ...  -2.6466756111 Eh
 Energy constituents in PNO basis (Eh):
  | Vijab(+0) ...  -2.2348561328 (err=  0.0185080419)
  | Viab (-1) ...  -0.1601389654 (err=  0.0139296592)
  | Vab  (-2) ...  -0.0568686922 (err=  0.0004570264)
  | Va   (-1) ...  -0.0000265581 (err=  0.0000192941)
  | Vija (+1) ...  -0.0705460463 (err=  0.0009094661)
  | Vij  (+2) ...  -0.0155086314 (err=  0.0000490564)
  | Via  (+0) ...  -0.1085654767 (err=  0.0001140410)
  | Vi   (+1) ...  -0.0001651082 (err=  0.0000004814)
 Sum of total truncation errors ...   0.0339870666 Eh
  | Pair screening ...   0.0118948894 Eh
  | PNO truncation ...   0.0220921771 Eh

 UMP2 correlation energy (PAO) ...  -2.6755468901
  | alpha-alpha ...  -0.3834025824 (NP_aa=  899)
  | alpha-beta  ...  -1.9882417706 (NP_ab= 1648)
  | beta -beta  ...  -0.3039025371 (NP_bb=  716)
 UMP2 correlation energy (PNO) ...  -2.6412035852
  | alpha-alpha ...  -0.3714207850 (err=  0.0119817975, NP_aa=  556)
  | alpha-beta  ...  -1.9699519851 (err=  0.0182897855, NP_ab= 1022)
  | beta -beta  ...  -0.2998308152 (err=  0.0040717219, NP_bb=  433)
 Sum of total UMP2 truncation errors ...   0.0343433048 Eh
  | Pair screening ...   0.0118986285 Eh
  | PNO truncation ...   0.0224446763 Eh
 Timing for NEV-PNO construction (sec.)
  | Intermediate construction  ..           42.226
  | Amplitude construction     ..           58.155
  | Total time                 ..          100.381
 Making pair pair interaction lists ...      ok
 Total size for 2-ext PNO integrals ...     10.5 MB
Checking the number of SOMO/SOMO doubles PNOs ... 
 #Truncate: (72, 72)[172] -> [85] .. 
 #Truncate: (73, 73)[174] -> [85] .. 
 #Truncate: (74, 74)[171] -> [85] .. 
 #Truncate: (75, 75)[172] -> [85] .. 
 #Truncate: (76, 76)[172] -> [85] .. 

--------------------------------
LOCAL RI TRANSFORMATION (VABPAO)
--------------------------------

Number of PAOs:    1030
Basis functions:   1025 (343 shells)
Aux. functions:    2424 (644 shells)

Processing maps (0.0 sec)
Average map sizes:
   Aux shells -> PAOs           1030.0
   PAOs       -> AO shells       343.0

Calculating integrals (217.5 sec, 37370.165 MB)
Finished
-----------------------------
LOCAL RI TRANSFORMATION (IJV)
-----------------------------

Orbital window:      29 to 76
Basis functions:   1025 (343 shells)
Aux. functions:    2424 (644 shells)

Processing maps (0.0 sec)
Average map sizes:
   Aux shells -> MOs(i)           46.3
   Aux shells -> MOs(j)           48.0
   MOs        -> AO shells       340.4

Calculating integrals (22.2 sec, 41.250 MB)
Sorting integrals (0.3 sec, 41.222 MB)
Total time for the integral transformation: 22.6 sec


-------------------------------------
Pair Pair Term precalculation with     
RI-(ij|mn) and (im|jn) transformation  
ON THE FLY                             
-------------------------------------

   IBatch   1 (of   2)              ... done ( 1267.722 sec)
   IBatch   2 (of   2)              ... done (  674.783 sec)
Total EXT                           ...        1942.505 sec

---------------------
RI-PNO TRANSFORMATION
---------------------

Total Number of PNOs                   ... 32630
Total Number of IJ-PNOs                ... 28550
Total Number of IP-PNOs                ...  3127
Total Number of PQ-PNOs                ...   953
Total Number of IJ-pairs               ...   909
Total Number of PI-pairs               ...   113
Total Number of PQ-pairs               ...    25
Average number of PNOs per pair        ...    31
Maximal number of PNOs per pair        ...    85
>> Statistics for ij-pairs..
   #pairs with  1 -  5 PNOs   :    0
   #pairs with  6 - 10 PNOs   :    0
   #pairs with 11 - 15 PNOs   :   90
   #pairs with 16 - 20 PNOs   :  186
   #pairs with 21 - 25 PNOs   :  162
   #pairs with 26 - 30 PNOs   :  126
   #pairs with 31 - 35 PNOs   :   60
   #pairs with 36 - 40 PNOs   :   56
   #pairs with 41 - 45 PNOs   :   44
   #pairs with 46 - 50 PNOs   :   18
   #pairs with 51 - 55 PNOs   :   35
   #pairs with 56 - 60 PNOs   :   50
   #pairs with 61 - 65 PNOs   :   77
   #pairs with 66 - 70 PNOs   :    3
   #pairs with 76 - 80 PNOs   :    2
>> Statistics for ip-pairs..
   #pairs with  1 -  5 PNOs   :    0
   #pairs with  6 - 10 PNOs   :    2
   #pairs with 11 - 15 PNOs   :   11
   #pairs with 16 - 20 PNOs   :   11
   #pairs with 21 - 25 PNOs   :   21
   #pairs with 26 - 30 PNOs   :    9
   #pairs with 31 - 35 PNOs   :   46
   #pairs with 36 - 40 PNOs   :   11
   #pairs with 41 - 45 PNOs   :    2
   #pairs with 46 - 50 PNOs   :    0
>> Statistics for pq-pairs..
   #pairs with  1 -  5 PNOs   :    0
   #pairs with  6 - 10 PNOs   :    0
   #pairs with 11 - 15 PNOs   :    0
   #pairs with 16 - 20 PNOs   :    0
   #pairs with 21 - 25 PNOs   :   10
   #pairs with 26 - 30 PNOs   :   10
   #pairs with 31 - 35 PNOs   :    0
   #pairs with 36 - 40 PNOs   :    0
   #pairs with 41 - 45 PNOs   :    0
   #pairs with 46 - 50 PNOs   :    0
   #pairs with 81 - 85 PNOs   :    5

Generation of (ij|ab)[P] integrals            ... on
Generation of (ia|bc)[P],(ja|bc)[P] integrals ... on
Storage of 3 and 4 external integrals         ... on
Generation of ALL (ka|bc)[P] integrals        ... on
Keep RI integrals in memory                   ... off

Ibatch:  1 (of  1)
Starting 2-4 index PNO integral generation ... done

Timings:
Total PNO integral transformation time     ...       1807.671 sec
Size of the 3-external file                ...       277 MB
Size of the 4-external file                ...      1890 MB
Size of the IKJL file                      ...        16 MB
Size of the all 3-external file            ...      6663 MB
Size of the 1-external file                ...        21 MB

Size of the PAO/PNO coefficient matrices   ...     205.8 MB

Making pair/pair overlap matrices          ... done (  280.299 sec)
Size of the pair overlap file              ...    2251.0 MB
Total # unrestricted pairs ...       2011
  # of alpha-alpha pairs   ...        556
  # of alpha-beta pairs    ...       1022
  # of beta-beta pairs     ...        433
Constructing the guess amplitudes          ... done (    0.580 sec)

-------------------------
FINAL STARTUP INFORMATION
-------------------------

E(0)                                       ...  -3028.468970111
E(SL-UMP2 in NEV-PNO space)                ...     -2.676503717
Initial E(tot)                             ...  -3031.145473828
<T|T>                                      ...      0.532204956
Number of unrestricted pairs included      ... 2011
Total number of pairs                      ... 4095
----------------------------------------------------------
                     OPEN-SHELL COUPLED CLUSTER ITERATIONS
----------------------------------------------------------

Number of PNO amplitudes to be optimized        ...          2012828
Number of canonical amplitudes for strong pairs ...       1816340172
Untruncated number of canonical amplitudes      ...       3698645738

Iter       E(tot)           E(Corr)          Delta-E          Residual     Time
  0  -3031.152706444     -2.648436201      0.028067516      0.021149088 1404.09
                           *** Turning on DIIS ***
  1  -3031.269250750     -2.764980507     -0.116544306      0.010868093 1423.33
  2  -3031.334260269     -2.829990027     -0.065009519      0.008466154 1634.29
  3  -3031.356400681     -2.852130438     -0.022140412      0.003325169 1634.40
  4  -3031.364147290     -2.859877047     -0.007746609      0.002653859 1639.90
  5  -3031.368418592     -2.864148349     -0.004271302      0.001497341 1643.22
  6  -3031.369996600     -2.865726358     -0.001578008      0.000747428 1631.87
  7  -3031.370653226     -2.866382983     -0.000656625      0.000478305 1621.35
  8  -3031.370800064     -2.866529822     -0.000146839      0.000220675 1656.72
  9  -3031.370859786     -2.866589543     -0.000059721      0.000141236 1656.69
 10  -3031.370862447     -2.866592204     -0.000002661      0.000075456 1651.65
 11  -3031.370875518     -2.866605275     -0.000013071      0.000064547 1654.72
 12  -3031.370880189     -2.866609946     -0.000004671      0.000037019 1644.80
 13  -3031.370882313     -2.866612071     -0.000002125      0.000017845 1633.27
 14  -3031.370883930     -2.866613687     -0.000001616      0.000011410 1625.02
 15  -3031.370883051     -2.866612808      0.000000879      0.000005005 1648.23
               --- The CCSD iterations have converged ---

E(0)                                       ...  -3028.468970111
E(CORR)(strong-pairs)                      ...     -2.866612808
E(CORR)(weak-pairs)                        ...     -0.035300132
E(CORR)(corrected)                         ...     -2.901912940
E(TOT)                                     ...  -3031.370883051
Singles norm <S|S>**1/2                    ...      0.196444631 ( 0.064723897, 0.131720735)  
T1 diagnostic                              ...      0.020592993                              
<S**2>(linearized)                         ...      8.7508609 (ideal value:      8.7500000)

----------------------
LARGEST PNO AMPLITUDES
----------------------
  49b-> 72b  -1b-> -1b       0.055053
  52b-> 73b  -1b-> -1b       0.054789
  51b-> 73b  -1b-> -1b       0.053324
  47a-> 78a  47b-> 78b       0.050413
  49b-> 76b  -1b-> -1b       0.047138
  44a-> 77a  44b-> 77b       0.046656
  49b-> 75b  -1b-> -1b       0.046473
  42b-> 74b  -1b-> -1b       0.045670
  56a-> 77a  56b-> 77b       0.045655
  35b-> 72b  -1b-> -1b       0.044690
  38b-> 74b  -1b-> -1b       0.044352
  55a-> 77a  55b-> 77b       0.044117
  70a-> 77a  70b-> 77b       0.043619
  62a-> 77a  62b-> 77b       0.043598
  69a-> 77a  69b-> 77b       0.043572
  64a-> 77a  64b-> 77b       0.043290

Total # unrestricted pairs ...       1252
  # of alpha-alpha pairs   ...        343
  # of alpha-beta pairs    ...        626
  # of beta-beta pairs     ...        283

-------------------------------------------
DLPNO BASED TRIPLES CORRECTION
-------------------------------------------

Singles multiplier          ...  1.000000
Fragment selection                          .... not used
TCutTNO                     ... 1.000e-09
TCutMP2Pairs                ... 1.000e-05
TCutDOStrong                ... 2.000e-02
TCutMKNStrong               ... 1.000e-02
TCutDOWeak                  ... 4.000e-02
TCutMKNWeak                 ... 1.000e-01
NTCutTNO                    ... 1

Number of Triples that are to be computed         ...     31194

 . . . . . . . . .
10% done  
20% done  
30% done  
40% done  
50% done  
60% done  
70% done  
80% done  
90% done  
          Batch   1   done (  12125.710 sec)

Triples-Correction TCutTNO=   1.000e-09 (NWeakPairs = 0  1  2  3)  -0.116048483076   -0.001720534797    0.000000000000    0.000000000000
Triples-Correction  -0.117769017873

Triples timings:
Total time                      ... 12692.343 sec

Triples List generation         ...     0.000 sec
TNO generation                  ...   566.360 sec
Pair density generation         ...     0.093 sec
Look up tables                  ...     0.101 sec
Generating 3-index integrals    ...  7258.468 sec
Make 4-ind.int. from 3-ind.int  ...     2.891 sec
Projecting amplitudes (D + S)   ...  4653.646 sec
Sorting integrals for spin cases...    43.664 sec
Calculate W0/W1                 ...   134.205 sec
Energy contr. (sum over a,b,c)  ...    32.722 sec

Everything after 3-index        ...  4971.501 sec

Energy contribution AAA         ...    20.217 sec
Energy contribution AAB         ...    93.660 sec
Energy contribution ABB         ...    85.569 sec
Energy contribution BBB         ...    11.181 sec
prep                ...     2.706 sec
makeTTNO            ...  4605.521 sec
copyij              ...     0.113 sec
copyil              ...     3.586 sec
transposeij         ...     0.068 sec
newMatInDoubleProj  ...    47.085 sec
BlasInDoubleProj    ...  2465.372 sec
ProjSingles         ...    39.454 sec
ProjDoubles         ...  4614.192 sec
overall Doubles for projection      ... 2759198
used Doubles for projection         ... 2759198


Number of Triples   (0, 1, 2, 3 weak pairs; overall):  14377   11407       0       0  ( 25784)
Number of Atoms     (0, 1, 2, 3 weak pairs; overall):   18.8    13.5     0.0     0.0  (    29)
Number of PAOs      (0, 1, 2, 3 weak pairs; overall):  740.5   552.0     0.0     0.0  (  1025)
Number of AuxFcns   (0, 1, 2, 3 weak pairs; overall):  862.4   573.9     0.0     0.0  (  2424)
Number of TNOs (0, 1, 2, 3 weak pairs         ):   78.2    55.3     0.0     0.0
Aver. Number of NTNO, Atoms, PAOs, AuxFcns / Triples:  25784    68.1    16.5   657.1   734.8

Triples Correction (T)                     ...     -0.117769018
    alpha-alpha-alpha ... -0.003744358 (  3.2%)
    alpha-alpha-beta  ... -0.055324746 ( 47.0%)
    alpha-beta -beta  ... -0.054681892 ( 46.4%)
    beta -beta -beta  ... -0.004018021 (  3.4%)
Final correlation energy                   ...     -3.019681957
E(CCSD)                                    ...  -3031.370883051
E(CCSD(T))                                 ...  -3031.488652068

----------------------------
STATISTICS FOR PAIR-ENERGIES
----------------------------
Minimum, maximum and average ratios of UMP and CCSD pair-energies ... 0.45, 1.45, 1.02


------------------------------------------------------------------------------- 
                                     TIMINGS                                   
------------------------------------------------------------------------------- 


Total execution time                   ...    46436.652 sec

Localization of occupied MO's          ...       10.119 sec (  0.0%)
Fock Matrix Formation                  ...     1328.305 sec (  2.9%)
Differential overlap integrals         ...        1.464 sec (  0.0%)
Organizing maps                        ...        1.623 sec (  0.0%)
RI 3-index integral generations        ...      306.068 sec (  0.7%)
RI-PNO integral transformation         ...     4093.883 sec (  8.8%)
Initial Guess                          ...     1803.377 sec (  3.9%)
DIIS Solver                            ...       16.780 sec (  0.0%)
State Vector Update                    ...        0.704 sec (  0.0%)
Sigma-vector construction              ...    25803.546 sec ( 55.6%)
  <0|H|D>                              ...        0.030 sec (  0.0% of sigma)
  <D|H|D>(0-ext)                       ...     4817.075 sec ( 18.7% of sigma)
  <D|H|D>(2-ext Fock)                  ...        1.300 sec (  0.0% of sigma)
  <D|H|D>(2-ext)                       ...     3546.547 sec ( 13.7% of sigma)
  <D|H|D>(4-ext)                       ...      168.931 sec (  0.7% of sigma)
  <D|H|D>(4-ext-corr)                  ...     1040.868 sec (  4.0% of sigma)
  CCSD doubles correction              ...      445.353 sec (  1.7% of sigma)
  <S|H|S>                              ...      732.569 sec (  2.8% of sigma)
  <S|H|D>(1-ext)                       ...      266.730 sec (  1.0% of sigma)
  <D|H|S>(1-ext)                       ...        0.773 sec (  0.0% of sigma)
  <S|H|D>(3-ext)                       ...       21.231 sec (  0.1% of sigma)
  CCSD singles correction              ...        0.005 sec (  0.0% of sigma)
  Fock-dressing                        ...     7320.788 sec ( 28.4% of sigma)
  Singles amplitudes                   ...      113.605 sec (  0.4% of sigma)
  (ik|jl)-dressing                     ...     5832.671 sec ( 22.6% of sigma)
  (ij|ab),(ia|jb)-dressing             ...     1266.974 sec (  4.9% of sigma)
  Pair energies                        ...        0.126 sec (  0.0% of sigma)
Total Time for computing (T)           ...    13429.618 sec ( 28.9% of ALL)


-------------------------   --------------------
FINAL SINGLE POINT ENERGY     -3031.488652068459
-------------------------   --------------------


                            ***************************************
                            *     ORCA property calculations      *
                            ***************************************

                                    ---------------------
                                    Active property flags
                                    ---------------------
   (+) Dipole Moment


------------------------------------------------------------------------------
                       ORCA ELECTRIC PROPERTIES CALCULATION
------------------------------------------------------------------------------

Dipole Moment Calculation                       ... on
Quadrupole Moment Calculation                   ... off
Polarizability Calculation                      ... off
GBWName                                         ... simple-grid-280-280-b3lyp_d3bj-631gd-gas-singlepoint-DLPNO_CCSD_T1-NormalPNO-augtz-gas.gbw
Electron density file                           ... simple-grid-280-280-b3lyp_d3bj-631gd-gas-singlepoint-DLPNO_CCSD_T1-NormalPNO-augtz-gas.scfp.tmp
The origin for moment calculation is the CENTER OF MASS  = (-0.313234, -0.039883  0.016907)

-------------
DIPOLE MOMENT
-------------
                                X             Y             Z
Electronic contribution:    -43.50262      -4.42798       1.89731
Nuclear contribution   :     46.67183       5.94260      -2.51911
                        -----------------------------------------
Total Dipole Moment    :      3.16921       1.51463      -0.62180
                        -----------------------------------------
Magnitude (a.u.)       :      3.56716
Magnitude (Debye)      :      9.06699



--------------------
Rotational spectrum 
--------------------
 
Rotational constants in cm-1:     0.018740     0.010741     0.010122 
Rotational constants in MHz :   561.814054   321.995284   303.441480 

 Dipole components along the rotational axes: 
x,y,z [a.u.] :     3.162347    -1.515161    -0.654570 
x,y,z [Debye]:     8.038047    -3.851233    -1.663786 

 

Timings for individual modules:

Sum of individual times         ...    62555.688 sec (=1042.595 min)
GTO integral calculation        ...       12.400 sec (=   0.207 min)   0.0 %
SCF iterations                  ...    16088.959 sec (= 268.149 min)  25.7 %
MDCI module                     ...    46454.329 sec (= 774.239 min)  74.3 %
                             ****ORCA TERMINATED NORMALLY****
TOTAL RUN TIME: 0 days 17 hours 22 minutes 38 seconds 232 msec
