
                                 *****************
                                 * O   R   C   A *
                                 *****************

           --- An Ab Initio, DFT and Semiempirical electronic structure package ---

                  #######################################################
                  #                        -***-                        #
                  #          Department of theory and spectroscopy      #
                  #               Directorship: Frank Neese             #
                  #        Max Planck Institute fuer Kohlenforschung    #
                  #                Kaiser Wilhelm Platz 1               #
                  #                 D-45470 Muelheim/Ruhr               #
                  #                      Germany                        #
                  #                                                     #
                  #                  All rights reserved                #
                  #                        -***-                        #
                  #######################################################


                         Program Version 4.1.2  - RELEASE  -


 With contributions from (in alphabetic order):
   Daniel Aravena         : Magnetic Properties
   Michael Atanasov       : Ab Initio Ligand Field Theory
   Alexander A. Auer      : GIAO ZORA
   Ute Becker             : Parallelization
   Giovanni Bistoni       : ED, Open-shell LED
   Martin Brehm           : Molecular dynamics
   Dmytro Bykov           : SCF Hessian
   Vijay G. Chilkuri      : MRCI spin determinant printing
   Dipayan Datta          : RHF DLPNO-CCSD density
   Achintya Kumar Dutta   : EOM-CC, STEOM-CC
   Dmitry Ganyushin       : Spin-Orbit,Spin-Spin,Magnetic field MRCI
   Miquel Garcia          : C-PCM Hessian
   Yang Guo               : DLPNO-NEVPT2, CIM, IAO-localization
   Andreas Hansen         : Spin unrestricted coupled pair/coupled cluster methods
   Benjamin Helmich-Paris : CASSCF linear response (MC-RPA)
   Lee Huntington         : MR-EOM, pCC
   Robert Izsak           : Overlap fitted RIJCOSX, COSX-SCS-MP3, EOM
   Christian Kollmar      : KDIIS, OOCD, Brueckner-CCSD(T), CCSD density
   Simone Kossmann        : Meta GGA functionals, TD-DFT gradient, OOMP2, MP2 Hessian
   Martin Krupicka        : AUTO-CI
   Lucas Lang             : DCDCAS
   Dagmar Lenk            : GEPOL surface, SMD
   Dimitrios Liakos       : Extrapolation schemes; parallel MDCI
   Dimitrios Manganas     : ROCIS; embedding schemes
   Dimitrios Pantazis     : SARC Basis sets
   Taras Petrenko         : DFT Hessian,TD-DFT gradient, ASA, ECA, R-Raman, ABS, FL, XAS/XES, NRVS
   Peter Pinski           : DLPNO-MP2, DLPNO-MP2 Gradient
   Christoph Reimann      : Effective Core Potentials
   Marius Retegan         : Local ZFS, SOC
   Christoph Riplinger    : Optimizer, TS searches, QM/MM, DLPNO-CCSD(T), (RO)-DLPNO pert. Triples
   Tobias Risthaus        : Range-separated hybrids, TD-DFT gradient, RPA, STAB
   Michael Roemelt        : Restricted open shell CIS
   Masaaki Saitow         : Open-shell DLPNO
   Barbara Sandhoefer     : DKH picture change effects
   Avijit Sen             : IP-ROCIS
   Kantharuban Sivalingam : CASSCF convergence, NEVPT2, FIC-MRCI
   Bernardo de Souza      : ESD, SOC TD-DFT
   Georgi Stoychev        : AutoAux, RI-MP2 NMR
   Willem Van den Heuvel  : Paramagnetic NMR
   Boris Wezisla          : Elementary symmetry handling
   Frank Wennmohs         : Technical directorship


 We gratefully acknowledge several colleagues who have allowed us to
 interface, adapt or use parts of their codes:
   Stefan Grimme, W. Hujo, H. Kruse,             : VdW corrections, initial TS optimization,
                  C. Bannwarth                     DFT functionals, gCP, sTDA/sTD-DF
   Ed Valeev                                     : LibInt (2-el integral package), F12 methods
   Garnet Chan, S. Sharma, J. Yang, R. Olivares  : DMRG
   Ulf Ekstrom                                   : XCFun DFT Library
   Mihaly Kallay                                 : mrcc  (arbitrary order and MRCC methods)
   Andreas Klamt, Michael Diedenhofen            : otool_cosmo (COSMO solvation model)
   Jiri Pittner, Ondrej Demel                    : Mk-CCSD
   Frank Weinhold                                : gennbo (NPA and NBO analysis)
   Christopher J. Cramer and Donald G. Truhlar   : smd solvation model
   Lars Goerigk                                  : TD-DFT with DH, B97 family of functionals
   V. Asgeirsson, H. Jonsson                     : NEB implementation
   FAccTs GmbH                                   : IRC, NEB, NEB-TS, Multilevel


 Your calculation uses the libint2 library for the computation of 2-el integrals
 For citations please refer to: http://libint.valeyev.net

 This ORCA versions uses:
   CBLAS   interface :  Fast vector & matrix operations
   LAPACKE interface :  Fast linear algebra routines
   SCALAPACK package :  Parallel linear algebra routines


----- Orbital basis set information -----
Your calculation utilizes the basis: aug-cc-pVTZ 
    H, B-Ne : Obtained from the ccRepo (grant-hill.group.shef.ac.uk/ccrepo) Feb. 2017
              R. A. Kendall, T. H. Dunning, Jr., R. J. Harrison, J. Chem. Phys. 96, 6796 (1992)
         He : Obtained from the ccRepo (grant-hill.group.shef.ac.uk/ccrepo) Feb. 2017
              D. E. Woon, T. H. Dunning, Jr., J. Chem. Phys. 100, 2975 (1994)
  Li-Be, Na : Obtained from the ccRepo (grant-hill.group.shef.ac.uk/ccrepo) Feb. 2017
              B. P. Prascher, D. E. Woon, K. A. Peterson, T. H. Dunning, Jr., A. K. Wilson, Theor. Chem. Acc. 128, 69 (2011)
         Mg : Obtained from the Peterson Research Group Website (tyr0.chem.wsu.edu/~kipeters) Feb. 2017
              B. P. Prascher, D. E. Woon, K. A. Peterson, T. H. Dunning, Jr., A. K. Wilson, Theor. Chem. Acc. 128, 69 (2011)
      Al-Ar : Obtained from the ccRepo (grant-hill.group.shef.ac.uk/ccrepo) Feb. 2017
              D. E. Woon, T. H. Dunning, Jr., J. Chem. Phys. 98, 1358 (1993)
      Sc-Zn : Obtained from the ccRepo (grant-hill.group.shef.ac.uk/ccrepo) Feb. 2017
              N. B. Balabanov, K. A. Peterson, J. Chem. Phys. 123, 064107 (2005)
              N. B. Balabanov, K. A. Peterson, J. Chem. Phys. 125, 074110 (2006)
      Ga-Kr : Obtained from the ccRepo (grant-hill.group.shef.ac.uk/ccrepo) Feb. 2017
              A. K. Wilson, D. E. Woon, K. A. Peterson, T. H. Dunning, Jr., J. Chem. Phys. 110, 7667 (1999)
     Ag, Au : Obtained from the Peterson Research Group Website (tyr0.chem.wsu.edu/~kipeters) Feb. 2017
              K. A. Peterson, C. Puzzarini, Theor. Chem. Acc. 114, 283 (2005)

----- AuxJ basis set information -----
Your calculation utilizes the AutoAux generation procedure.
  G. L. Stoychev, A. A. Auer, F. Neese, J. Chem. Theory Comput. 13, 554 (2017)

----- AuxC basis set information -----
Your calculation utilizes the auxiliary basis: aug-cc-pVTZ/C 
  H-He, B-F, Al-Ar, Ga-Kr : Obtained from the EMSL Basis Set Exchange (bse.pnl.gov) Feb. 2017
                            F. Weigend, A. Kohn, C. Hattig, J. Chem. Phys. 116, 3175 (2002)
                   Be, Mg : Obtained from the TURBOMOLE 7.0 basis set library
                            C. Haettig, Phys. Chem. Chem. Phys. 7, 59 (2005)
                       Ne : Obtained from the EMSL Basis Set Exchange (bse.pnl.gov) Feb. 2017
                            C. Haettig, Phys. Chem. Chem. Phys. 7, 59 (2005)
                            F. Weigend, A. Kohn, C. Hattig, J. Chem. Phys. 116, 3175 (2002)
                    Sc-Zn : Obtained from the EMSL Basis Set Exchange (bse.pnl.gov) Feb. 2017
                            J. G. Hill, J. A. Platts, J. Chem. Phys. 128, 044104 (2008)

----- AuxJK basis set information -----
Your calculation utilizes the AutoAux generation procedure.
  G. L. Stoychev, A. A. Auer, F. Neese, J. Chem. Theory Comput. 13, 554 (2017)

================================================================================
                                        WARNINGS
                       Please study these warnings very carefully!
================================================================================


WARNING: your system is open-shell and RHF/RKS was chosen
  ===> : WILL SWITCH to UHF/UKS


WARNING: MDCI localization with Augmented Hessian Foster-Boys
  ===> : Switching off randomization!

WARNING: Post HF methods need fully converged wavefunctions
  ===> : Setting SCFConvForced true
         You can overwrite this default with %scf ConvForced false 


INFO   : the flag for use of LIBINT has been found!

================================================================================
                                       INPUT FILE
================================================================================
NAME = simple-grid-220-290-b3lyp_d3bj-631gd-gas-singlepoint-DLPNO_CCSD_T1-NormalPNO-augtz-gas.inp
|  1> ! aug-cc-pVTZ aug-cc-pVTZ/C DLPNO-CCSD(T1) TightSCF NormalPNO UNO MiniPrint AutoAux
|  2> %pal nproc 10 end
|  3> %maxcore 20000
|  4> %mdci
|  5>      density none
|  6> end
|  7> 
|  8> * xyz 0 6
|  9>  O     -0.30028100     -0.22367100     -0.52979700
| 10>  C     -1.11818400     -1.18031800     -0.30279300
| 11>  C     -2.72420700     -0.23597200      0.86721000
| 12>  C     -3.00810600      0.71149200     -0.07907400
| 13>  C     -4.04259800      0.49190900     -1.13897100
| 14> Fe      1.52962000      0.18143300     -0.08871000
| 15> Cl      1.85500700      2.11212800     -1.05935300
| 16>  C     -2.25610700      1.99801000     -0.13419600
| 17> Cl      2.58908600     -1.53953700     -0.94289600
| 18> Cl      1.73672300      0.27752500      2.09905700
| 19>  H     -3.36357600     -1.11769100      0.88157700
| 20>  H     -2.74932000      2.73752200     -0.77005100
| 21>  H     -2.08329900      2.42805800      0.85631700
| 22>  H     -1.26175800      1.79129500     -0.56417400
| 23>  H     -4.86069700      1.20875500     -0.98323700
| 24>  H     -3.64313100      0.69927800     -2.13985700
| 25>  H     -4.46626300     -0.51471700     -1.11922800
| 26>  C     -2.01923600      0.10929800      2.16038600
| 27>  H     -2.59263700      0.86812700      2.70679200
| 28>  H     -1.93231500     -0.76269400      2.81106500
| 29>  H     -1.01515600      0.50988100      2.00031100
| 30>  C     -0.75354700     -2.19845700      0.75482100
| 31>  H     -1.60142700     -2.81800300      1.05329800
| 32>  H     -0.00046200     -2.84580400      0.28341800
| 33>  H     -0.28622900     -1.73907300      1.62468300
| 34>  C     -1.84655500     -1.72632900     -1.50795100
| 35>  H     -1.14674300     -2.41848100     -1.99517200
| 36>  H     -2.74556700     -2.28544800     -1.24061900
| 37>  H     -2.08192800     -0.93866800     -2.22259600
| 38> *
| 39> 
| 40> 
| 41>                          ****END OF INPUT****
================================================================================

                       ****************************
                       * Single Point Calculation *
                       ****************************

---------------------------------
CARTESIAN COORDINATES (ANGSTROEM)
---------------------------------
  O     -0.300281   -0.223671   -0.529797
  C     -1.118184   -1.180318   -0.302793
  C     -2.724207   -0.235972    0.867210
  C     -3.008106    0.711492   -0.079074
  C     -4.042598    0.491909   -1.138971
  Fe     1.529620    0.181433   -0.088710
  Cl     1.855007    2.112128   -1.059353
  C     -2.256107    1.998010   -0.134196
  Cl     2.589086   -1.539537   -0.942896
  Cl     1.736723    0.277525    2.099057
  H     -3.363576   -1.117691    0.881577
  H     -2.749320    2.737522   -0.770051
  H     -2.083299    2.428058    0.856317
  H     -1.261758    1.791295   -0.564174
  H     -4.860697    1.208755   -0.983237
  H     -3.643131    0.699278   -2.139857
  H     -4.466263   -0.514717   -1.119228
  C     -2.019236    0.109298    2.160386
  H     -2.592637    0.868127    2.706792
  H     -1.932315   -0.762694    2.811065
  H     -1.015156    0.509881    2.000311
  C     -0.753547   -2.198457    0.754821
  H     -1.601427   -2.818003    1.053298
  H     -0.000462   -2.845804    0.283418
  H     -0.286229   -1.739073    1.624683
  C     -1.846555   -1.726329   -1.507951
  H     -1.146743   -2.418481   -1.995172
  H     -2.745567   -2.285448   -1.240619
  H     -2.081928   -0.938668   -2.222596

----------------------------
CARTESIAN COORDINATES (A.U.)
----------------------------
  NO LB      ZA    FRAG     MASS         X           Y           Z
   0 O     8.0000    0    15.999   -0.567449   -0.422677   -1.001171
   1 C     6.0000    0    12.011   -2.113062   -2.230478   -0.572196
   2 C     6.0000    0    12.011   -5.148005   -0.445922    1.638789
   3 C     6.0000    0    12.011   -5.684497    1.344525   -0.149428
   4 C     6.0000    0    12.011   -7.639403    0.929573   -2.152343
   5 Fe   26.0000    0    55.850    2.890563    0.342859   -0.167638
   6 Cl   17.0000    0    35.453    3.505455    3.991343   -2.001887
   7 C     6.0000    0    12.011   -4.263424    3.775692   -0.253594
   8 Cl   17.0000    0    35.453    4.892663   -2.909303   -1.781815
   9 Cl   17.0000    0    35.453    3.281931    0.524446    3.966643
  10 H     1.0000    0     1.008   -6.356237   -2.112130    1.665939
  11 H     1.0000    0     1.008   -5.195462    5.173167   -1.455185
  12 H     1.0000    0     1.008   -3.936865    4.588365    1.618205
  13 H     1.0000    0     1.008   -2.384377    3.385057   -1.066134
  14 H     1.0000    0     1.008   -9.185386    2.284216   -1.858049
  15 H     1.0000    0     1.008   -6.884520    1.321444   -4.043744
  16 H     1.0000    0     1.008   -8.440014   -0.972674   -2.115034
  17 C     6.0000    0    12.011   -3.815803    0.206543    4.082538
  18 H     1.0000    0     1.008   -4.899374    1.640522    5.115096
  19 H     1.0000    0     1.008   -3.651546   -1.441283    5.312143
  20 H     1.0000    0     1.008   -1.918367    0.963535    3.780040
  21 C     6.0000    0    12.011   -1.423997   -4.154482    1.426405
  22 H     1.0000    0     1.008   -3.026258   -5.325254    1.990445
  23 H     1.0000    0     1.008   -0.000873   -5.377790    0.535582
  24 H     1.0000    0     1.008   -0.540894   -3.286372    3.070206
  25 C     6.0000    0    12.011   -3.489483   -3.262289   -2.849614
  26 H     1.0000    0     1.008   -2.167030   -4.570267   -3.770329
  27 H     1.0000    0     1.008   -5.188370   -4.318871   -2.344430
  28 H     1.0000    0     1.008   -3.934274   -1.773825   -4.200098



           ************************************************************
           *        Program running with 10 parallel MPI-processes    *
           *              working on a common directory               *
           ************************************************************


           ************************************************************
           *        Program running with 10 parallel MPI-processes    *
           *              working on a common directory               *
           ************************************************************

Diagonalization of the overlap matrix:
Smallest eigenvalue                        ... 7.397e-07
Time for diagonalization                   ...    0.378 sec
Threshold for overlap eigenvalues          ... 1.000e-08
Number of eigenvalues below threshold      ... 0
Time for construction of square roots      ...    0.273 sec
Total time needed                          ...    0.657 sec

-------------------
DFT GRID GENERATION
-------------------

General Integration Accuracy     IntAcc      ...  4.340
Radial Grid Type                 RadialGrid  ... Gauss-Chebyshev
Angular Grid (max. acc.)         AngularGrid ... Lebedev-110
Angular grid pruning method      GridPruning ... 3 (G Style)
Weight generation scheme         WeightScheme... Becke
Basis function cutoff            BFCut       ...    1.0000e-11
Integration weight cutoff        WCut        ...    1.0000e-14
Grids for H and He will be reduced by one unit

# of grid points (after initial pruning)     ...  36112 (   0.0 sec)
# of grid points (after weights+screening)   ...  32395 (   0.1 sec)
nearest neighbour list constructed           ...    0.0 sec
Grid point re-assignment to atoms done       ...    0.0 sec
Grid point division into batches done        ...    0.0 sec
Reduced shell lists constructed in    0.3 sec

Total number of grid points                  ...    32395
Total number of batches                      ...      524
Average number of points per batch           ...       61
Average number of grid points per atom       ...     1117
Average number of shells per batch           ...   290.04 (84.56%)
Average number of basis functions per batch  ...   860.81 (83.98%)
Average number of large shells per batch     ...   236.30 (81.47%)
Average number of large basis fcns per batch ...   701.37 (81.48%)
Maximum spatial batch extension              ...   3.53,  3.77,  5.61 au
Average spatial batch extension              ...   0.18,  0.17,  0.18 au

Time for grid setup =    0.386 sec

Loading Hartree-Fock densities                     ... done
Calculating cut-offs                               ... done
Setting up the integral package                    ... done
Initializing the effective Hamiltonian             ... done
Starting the Coulomb interaction                   ... done (   1.1 sec)
Reading the grid                                   ... done
Mapping shells                                     ... done
Starting the XC term evaluation                    ... done (   0.9 sec)
Transforming the Hamiltonian                       ... done (   0.2 sec)
Diagonalizing the Hamiltonian                      ... done (   0.4 sec)
Back transforming the eigenvectors                 ... done (   0.1 sec)
Now organizing SCF variables                       ... done
--------------
SCF ITERATIONS
--------------
ITER       Energy         Delta-E        Max-DP      RMS-DP      [F,P]     Damp
               ***  Starting incremental Fock matrix formation  ***
  0  -3027.5767535848   0.000000000000 0.27413660  0.00104951  0.2580752 0.7000
  1  -3027.8269204557  -0.250166870837 0.21252547  0.00082422  0.1566518 0.7000
                               ***Turning on DIIS***
  2  -3027.9949869444  -0.168066488743 0.15175056  0.00060685  0.1094999 0.7000
  3  -3029.5928328327  -1.597845888291 0.33852039  0.00151253  0.0819381 0.0000
  4  -3028.2963172414   1.296515591333 0.04674139  0.00021387  0.0210786 0.0000
  5  -3028.4106993227  -0.114382081363 0.03921622  0.00016940  0.0118865 0.0000
  6  -3028.4590772506  -0.048377927880 0.02074354  0.00007146  0.0055839 0.0000
  7  -3028.4740843645  -0.015007113903 0.00827516  0.00003289  0.0035633 0.0000
  8  -3028.4611126568   0.012971707672 0.00585263  0.00001890  0.0015954 0.0000
  9  -3028.4579785710   0.003134085810 0.00330626  0.00001134  0.0007526 0.0000
 10  -3028.4459833547   0.011995216351 0.00087080  0.00000309  0.0003584 0.0000
 11  -3028.4507854173  -0.004802062618 0.00046358  0.00000168  0.0000817 0.0000
 12  -3028.4488192763   0.001966141001 0.00049776  0.00000141  0.0000235 0.0000
 13  -3028.4489143806  -0.000095104288 0.00023527  0.00000165  0.0000090 0.0000
 14  -3028.4489416361  -0.000027255515 0.00110977  0.00000243  0.0000039 0.0000
 15  -3028.4488766597   0.000064976368 0.00022938  0.00000164  0.0000025 0.0000
 16  -3028.4489004750  -0.000023815236 0.00092010  0.00000199  0.0000016 0.0000
                            ***DIIS convergence achieved***

               *****************************************************
               *                     SUCCESS                       *
               *           SCF CONVERGED AFTER  17 CYCLES          *
               *****************************************************

Total Energy       :        -3028.44891376 Eh          -82408.28450 eV
  Last Energy change         ...   -1.3285e-05  Tolerance :   1.0000e-08
  Last MAX-Density change    ...    6.4867e-04  Tolerance :   1.0000e-07
             **** THE GBW FILE WAS UPDATED (simple-grid-220-290-b3lyp_d3bj-631gd-gas-singlepoint-DLPNO_CCSD_T1-NormalPNO-augtz-gas.gbw) ****
             **** DENSITY FILE WAS UPDATED (simple-grid-220-290-b3lyp_d3bj-631gd-gas-singlepoint-DLPNO_CCSD_T1-NormalPNO-augtz-gas.scfp.tmp) ****
             **** ENERGY FILE WAS UPDATED (simple-grid-220-290-b3lyp_d3bj-631gd-gas-singlepoint-DLPNO_CCSD_T1-NormalPNO-augtz-gas.en.tmp) ****
----------------------
UHF SPIN CONTAMINATION
----------------------

Expectation value of <S**2>     :     8.765235
Ideal value S*(S+1) for S=2.5   :     8.750000
Deviation                       :     0.015235

----------------
ORBITAL ENERGIES
----------------
                 SPIN UP ORBITALS
  NO   OCC          E(Eh)            E(eV) 
   0   1.0000    -261.563536     -7117.5057 
   1   1.0000    -104.784355     -2851.3273 
   2   1.0000    -104.781792     -2851.2575 
   3   1.0000    -104.780341     -2851.2180 
   4   1.0000     -32.231336      -877.0592 
   5   1.0000     -27.707659      -753.9637 
   6   1.0000     -27.706766      -753.9394 
   7   1.0000     -27.706613      -753.9353 
   8   1.0000     -20.592379      -560.3471 
   9   1.0000     -11.410058      -310.4835 
  10   1.0000     -11.309223      -307.7396 
  11   1.0000     -11.268602      -306.6342 
  12   1.0000     -11.266522      -306.5777 
  13   1.0000     -11.264168      -306.5136 
  14   1.0000     -11.262185      -306.4596 
  15   1.0000     -11.247339      -306.0557 
  16   1.0000     -11.242341      -305.9197 
  17   1.0000     -10.511013      -286.0192 
  18   1.0000     -10.508434      -285.9490 
  19   1.0000     -10.506946      -285.9085 
  20   1.0000      -7.977858      -217.0885 
  21   1.0000      -7.977065      -217.0670 
  22   1.0000      -7.977056      -217.0667 
  23   1.0000      -7.975303      -217.0190 
  24   1.0000      -7.974535      -216.9981 
  25   1.0000      -7.974456      -216.9960 
  26   1.0000      -7.973756      -216.9769 
  27   1.0000      -7.973079      -216.9585 
  28   1.0000      -7.972993      -216.9562 
  29   1.0000      -4.586486      -124.8046 
  30   1.0000      -3.199564       -87.0646 
  31   1.0000      -3.198064       -87.0237 
  32   1.0000      -3.197840       -87.0176 
  33   1.0000      -1.435629       -39.0655 
  34   1.0000      -1.153661       -31.3927 
  35   1.0000      -1.089770       -29.6541 
  36   1.0000      -1.056620       -28.7521 
  37   1.0000      -1.051265       -28.6064 
  38   1.0000      -1.048597       -28.5338 
  39   1.0000      -1.033243       -28.1160 
  40   1.0000      -0.998041       -27.1581 
  41   1.0000      -0.981667       -26.7125 
  42   1.0000      -0.932580       -25.3768 
  43   1.0000      -0.915687       -24.9171 
  44   1.0000      -0.915661       -24.9164 
  45   1.0000      -0.911080       -24.7917 
  46   1.0000      -0.905344       -24.6357 
  47   1.0000      -0.904978       -24.6257 
  48   1.0000      -0.801221       -21.8023 
  49   1.0000      -0.751076       -20.4378 
  50   1.0000      -0.695837       -18.9347 
  51   1.0000      -0.685689       -18.6586 
  52   1.0000      -0.683087       -18.5878 
  53   1.0000      -0.673085       -18.3156 
  54   1.0000      -0.640612       -17.4319 
  55   1.0000      -0.623031       -16.9535 
  56   1.0000      -0.604456       -16.4481 
  57   1.0000      -0.596808       -16.2400 
  58   1.0000      -0.582021       -15.8376 
  59   1.0000      -0.575672       -15.6648 
  60   1.0000      -0.571750       -15.5581 
  61   1.0000      -0.560959       -15.2645 
  62   1.0000      -0.557375       -15.1669 
  63   1.0000      -0.541881       -14.7453 
  64   1.0000      -0.537040       -14.6136 
  65   1.0000      -0.523411       -14.2427 
  66   1.0000      -0.514387       -13.9972 
  67   1.0000      -0.489678       -13.3248 
  68   1.0000      -0.469769       -12.7831 
  69   1.0000      -0.463778       -12.6200 
  70   1.0000      -0.437559       -11.9066 
  71   1.0000      -0.432484       -11.7685 
  72   1.0000      -0.430083       -11.7031 
  73   1.0000      -0.421871       -11.4797 
  74   1.0000      -0.420363       -11.4386 
  75   1.0000      -0.419388       -11.4121 
  76   1.0000      -0.374349       -10.1865 
  77   0.0000       0.010455         0.2845 
  78   0.0000       0.021296         0.5795 
  79   0.0000       0.022390         0.6093 
  80   0.0000       0.028557         0.7771 
  81   0.0000       0.037079         1.0090 
  82   0.0000       0.039827         1.0837 
  83   0.0000       0.041152         1.1198 
  84   0.0000       0.043611         1.1867 
  85   0.0000       0.045071         1.2264 
  86   0.0000       0.048691         1.3249 
  87   0.0000       0.057320         1.5598 
  88   0.0000       0.058108         1.5812 
  89   0.0000       0.061108         1.6628 
  90   0.0000       0.063488         1.7276 
  91   0.0000       0.065074         1.7708 
  92   0.0000       0.072500         1.9728 
  93   0.0000       0.075984         2.0676 
  94   0.0000       0.084054         2.2872 
  95   0.0000       0.088715         2.4141 
  96   0.0000       0.091467         2.4889 
  97   0.0000       0.091782         2.4975 
  98   0.0000       0.098148         2.6707 
  99   0.0000       0.100438         2.7331 
 100   0.0000       0.105290         2.8651 
 101   0.0000       0.105553         2.8722 
 102   0.0000       0.117078         3.1859 
 103   0.0000       0.118444         3.2230 
 104   0.0000       0.122068         3.3216 
 105   0.0000       0.123273         3.3544 
 106   0.0000       0.124103         3.3770 
 107   0.0000       0.130598         3.5537 
 108   0.0000       0.130972         3.5639 
 109   0.0000       0.134354         3.6560 
 110   0.0000       0.137967         3.7543 
 111   0.0000       0.140406         3.8206 
 112   0.0000       0.145141         3.9495 
 113   0.0000       0.149274         4.0620 
 114   0.0000       0.151115         4.1121 
 115   0.0000       0.155686         4.2364 
 116   0.0000       0.156849         4.2681 
 117   0.0000       0.158894         4.3237 
 118   0.0000       0.161650         4.3987 
 119   0.0000       0.163642         4.4529 
 120   0.0000       0.166643         4.5346 
 121   0.0000       0.169105         4.6016 
 122   0.0000       0.173333         4.7166 
 123   0.0000       0.177949         4.8422 
 124   0.0000       0.178535         4.8582 
 125   0.0000       0.181703         4.9444 
 126   0.0000       0.184795         5.0285 
 127   0.0000       0.187926         5.1137 
 128   0.0000       0.189701         5.1620 
 129   0.0000       0.198309         5.3963 
 130   0.0000       0.201164         5.4740 
 131   0.0000       0.203170         5.5285 
 132   0.0000       0.205586         5.5943 
 133   0.0000       0.208435         5.6718 
 134   0.0000       0.214123         5.8266 
 135   0.0000       0.215835         5.8732 
 136   0.0000       0.218523         5.9463 
 137   0.0000       0.220815         6.0087 
 138   0.0000       0.224085         6.0977 
 139   0.0000       0.227884         6.2010 
 140   0.0000       0.229744         6.2516 
 141   0.0000       0.235082         6.3969 
 142   0.0000       0.238098         6.4790 
 143   0.0000       0.242595         6.6013 
 144   0.0000       0.245052         6.6682 
 145   0.0000       0.250303         6.8111 
 146   0.0000       0.253487         6.8977 
 147   0.0000       0.255586         6.9548 
 148   0.0000       0.259761         7.0685 
 149   0.0000       0.262072         7.1313 
 150   0.0000       0.270503         7.3608 
 151   0.0000       0.273466         7.4414 
 152   0.0000       0.278328         7.5737 
 153   0.0000       0.281211         7.6521 
 154   0.0000       0.284740         7.7482 
 155   0.0000       0.290456         7.9037 
 156   0.0000       0.293881         7.9969 
 157   0.0000       0.295793         8.0489 
 158   0.0000       0.299226         8.1423 
 159   0.0000       0.301127         8.1941 
 160   0.0000       0.304714         8.2917 
 161   0.0000       0.312388         8.5005 
 162   0.0000       0.314916         8.5693 
 163   0.0000       0.320710         8.7270 
 164   0.0000       0.325444         8.8558 
 165   0.0000       0.330757         9.0004 
 166   0.0000       0.331567         9.0224 
 167   0.0000       0.332483         9.0473 
 168   0.0000       0.335840         9.1387 
 169   0.0000       0.341432         9.2908 
 170   0.0000       0.343588         9.3495 
 171   0.0000       0.349844         9.5197 
 172   0.0000       0.354236         9.6393 
 173   0.0000       0.357330         9.7234 
 174   0.0000       0.359692         9.7877 
 175   0.0000       0.360563         9.8114 
 176   0.0000       0.364722         9.9246 
 177   0.0000       0.367990        10.0135 
 178   0.0000       0.374009        10.1773 
 179   0.0000       0.374698        10.1960 
 180   0.0000       0.378372        10.2960 
 181   0.0000       0.381013        10.3679 
 182   0.0000       0.383573        10.4375 
 183   0.0000       0.386751        10.5240 
 184   0.0000       0.390228        10.6187 
 185   0.0000       0.391564        10.6550 
 186   0.0000       0.397063        10.8046 
 187   0.0000       0.398679        10.8486 
 188   0.0000       0.403168        10.9707 
 189   0.0000       0.408327        11.1111 
 190   0.0000       0.412122        11.2144 
 191   0.0000       0.413245        11.2450 
 192   0.0000       0.416804        11.3418 
 193   0.0000       0.421827        11.4785 
 194   0.0000       0.425412        11.5760 
 195   0.0000       0.430687        11.7196 
 196   0.0000       0.434568        11.8252 
 197   0.0000       0.435120        11.8402 
 198   0.0000       0.440891        11.9972 
 199   0.0000       0.445957        12.1351 
 200   0.0000       0.447158        12.1678 
 201   0.0000       0.452593        12.3157 
 202   0.0000       0.457068        12.4375 
 203   0.0000       0.459169        12.4946 
 204   0.0000       0.464350        12.6356 
 205   0.0000       0.466965        12.7068 
 206   0.0000       0.467398        12.7185 
 207   0.0000       0.471315        12.8251 
 208   0.0000       0.474525        12.9125 
 209   0.0000       0.478381        13.0174 
 210   0.0000       0.483120        13.1464 
 211   0.0000       0.486688        13.2434 
 212   0.0000       0.487729        13.2718 
 213   0.0000       0.493068        13.4171 
 214   0.0000       0.496832        13.5195 
 215   0.0000       0.499606        13.5950 
 216   0.0000       0.502780        13.6814 
 217   0.0000       0.506968        13.7953 
 218   0.0000       0.509260        13.8577 
 219   0.0000       0.509554        13.8657 
 220   0.0000       0.514109        13.9896 
 221   0.0000       0.517240        14.0748 
 222   0.0000       0.522223        14.2104 
 223   0.0000       0.522921        14.2294 
 224   0.0000       0.527419        14.3518 
 225   0.0000       0.528838        14.3904 
 226   0.0000       0.530489        14.4353 
 227   0.0000       0.538793        14.6613 
 228   0.0000       0.540172        14.6988 
 229   0.0000       0.543179        14.7807 
 230   0.0000       0.547538        14.8993 
 231   0.0000       0.548754        14.9323 
 232   0.0000       0.552498        15.0342 
 233   0.0000       0.557571        15.1723 
 234   0.0000       0.560475        15.2513 
 235   0.0000       0.564287        15.3550 
 236   0.0000       0.567721        15.4485 
 237   0.0000       0.574742        15.6395 
 238   0.0000       0.576141        15.6776 
 239   0.0000       0.579143        15.7593 
 240   0.0000       0.580586        15.7985 
 241   0.0000       0.584124        15.8948 
 242   0.0000       0.587280        15.9807 
 243   0.0000       0.592983        16.1359 
 244   0.0000       0.597458        16.2577 
 245   0.0000       0.599663        16.3176 
 246   0.0000       0.603778        16.4296 
 247   0.0000       0.605459        16.4754 
 248   0.0000       0.612213        16.6592 
 249   0.0000       0.616957        16.7882 
 250   0.0000       0.620526        16.8854 
 251   0.0000       0.622618        16.9423 
 252   0.0000       0.624278        16.9875 
 253   0.0000       0.627699        17.0806 
 254   0.0000       0.634214        17.2578 
 255   0.0000       0.640711        17.4346 
 256   0.0000       0.645203        17.5569 
 257   0.0000       0.649305        17.6685 
 258   0.0000       0.655257        17.8304 
 259   0.0000       0.658946        17.9308 
 260   0.0000       0.660185        17.9646 
 261   0.0000       0.663752        18.0616 
 262   0.0000       0.666754        18.1433 
 263   0.0000       0.673849        18.3364 
 264   0.0000       0.676008        18.3951 
 265   0.0000       0.679684        18.4951 
 266   0.0000       0.683803        18.6072 
 267   0.0000       0.687924        18.7194 
 268   0.0000       0.695116        18.9151 
 269   0.0000       0.696850        18.9622 
 270   0.0000       0.702758        19.1230 
 271   0.0000       0.708095        19.2682 
 272   0.0000       0.712901        19.3990 
 273   0.0000       0.719911        19.5898 
 274   0.0000       0.722894        19.6709 
 275   0.0000       0.726923        19.7806 
 276   0.0000       0.731729        19.9114 
 277   0.0000       0.734616        19.9899 
 278   0.0000       0.736044        20.0288 
 279   0.0000       0.739361        20.1190 
 280   0.0000       0.741533        20.1781 
 281   0.0000       0.746614        20.3164 
 282   0.0000       0.755848        20.5677 
 283   0.0000       0.758935        20.6517 
 284   0.0000       0.772824        21.0296 
 285   0.0000       0.778590        21.1865 
 286   0.0000       0.781706        21.2713 
 287   0.0000       0.788034        21.4435 
 288   0.0000       0.793649        21.5963 
 289   0.0000       0.797390        21.6981 
 290   0.0000       0.803535        21.8653 
 291   0.0000       0.811246        22.0751 
 292   0.0000       0.820338        22.3225 
 293   0.0000       0.824644        22.4397 
 294   0.0000       0.832760        22.6605 
 295   0.0000       0.837226        22.7821 
 296   0.0000       0.843867        22.9628 
 297   0.0000       0.844741        22.9866 
 298   0.0000       0.847733        23.0680 
 299   0.0000       0.850850        23.1528 
 300   0.0000       0.859260        23.3816 
 301   0.0000       0.863415        23.4947 
 302   0.0000       0.870267        23.6812 
 303   0.0000       0.874782        23.8040 
 304   0.0000       0.882337        24.0096 
 305   0.0000       0.884794        24.0765 
 306   0.0000       0.891274        24.2528 
 307   0.0000       0.895387        24.3647 
 308   0.0000       0.897549        24.4235 
 309   0.0000       0.902882        24.5687 
 310   0.0000       0.904271        24.6065 
 311   0.0000       0.911052        24.7910 
 312   0.0000       0.914067        24.8730 
 313   0.0000       0.917343        24.9622 
 314   0.0000       0.919564        25.0226 
 315   0.0000       0.922459        25.1014 
 316   0.0000       0.930537        25.3212 
 317   0.0000       0.933667        25.4064 
 318   0.0000       0.939857        25.5748 
 319   0.0000       0.942850        25.6563 
 320   0.0000       0.945130        25.7183 
 321   0.0000       0.950985        25.8776 
 322   0.0000       0.952182        25.9102 
 323   0.0000       0.959166        26.1002 
 324   0.0000       0.959685        26.1144 
 325   0.0000       0.964615        26.2485 
 326   0.0000       0.968679        26.3591 
 327   0.0000       0.970214        26.4009 
 328   0.0000       0.973622        26.4936 
 329   0.0000       0.978290        26.6206 
 330   0.0000       0.981967        26.7207 
 331   0.0000       0.987913        26.8825 
 332   0.0000       0.990340        26.9485 
 333   0.0000       0.993573        27.0365 
 334   0.0000       0.995377        27.0856 
 335   0.0000       0.999966        27.2105 
 336   0.0000       1.002273        27.2732 
 337   0.0000       1.004220        27.3262 
 338   0.0000       1.010097        27.4861 
 339   0.0000       1.012604        27.5544 
 340   0.0000       1.017989        27.7009 
 341   0.0000       1.019642        27.7459 
 342   0.0000       1.026625        27.9359 
 343   0.0000       1.032733        28.1021 
 344   0.0000       1.034935        28.1620 
 345   0.0000       1.036906        28.2157 
 346   0.0000       1.039701        28.2917 
 347   0.0000       1.043864        28.4050 
 348   0.0000       1.046528        28.4775 
 349   0.0000       1.047504        28.5040 
 350   0.0000       1.054641        28.6982 
 351   0.0000       1.056381        28.7456 
 352   0.0000       1.062897        28.9229 
 353   0.0000       1.063990        28.9526 
 354   0.0000       1.068210        29.0675 
 355   0.0000       1.075086        29.2546 
 356   0.0000       1.081679        29.4340 
 357   0.0000       1.082787        29.4641 
 358   0.0000       1.084265        29.5043 
 359   0.0000       1.089332        29.6422 
 360   0.0000       1.090590        29.6765 
 361   0.0000       1.097495        29.8644 
 362   0.0000       1.100343        29.9419 
 363   0.0000       1.107343        30.1323 
 364   0.0000       1.110157        30.2089 
 365   0.0000       1.113748        30.3066 
 366   0.0000       1.117991        30.4221 
 367   0.0000       1.120324        30.4856 
 368   0.0000       1.130885        30.7729 
 369   0.0000       1.132730        30.8232 
 370   0.0000       1.134267        30.8650 
 371   0.0000       1.137816        30.9615 
 372   0.0000       1.139589        31.0098 
 373   0.0000       1.143661        31.1206 
 374   0.0000       1.150009        31.2933 
 375   0.0000       1.153793        31.3963 
 376   0.0000       1.159083        31.5403 
 377   0.0000       1.164822        31.6964 
 378   0.0000       1.171020        31.8651 
 379   0.0000       1.178969        32.0814 
 380   0.0000       1.183879        32.2150 
 381   0.0000       1.189782        32.3756 
 382   0.0000       1.191375        32.4190 
 383   0.0000       1.193129        32.4667 
 384   0.0000       1.197095        32.5746 
 385   0.0000       1.202077        32.7102 
 386   0.0000       1.205246        32.7964 
 387   0.0000       1.212451        32.9925 
 388   0.0000       1.214289        33.0425 
 389   0.0000       1.216584        33.1049 
 390   0.0000       1.222829        33.2749 
 391   0.0000       1.230133        33.4736 
 392   0.0000       1.234213        33.5846 
 393   0.0000       1.237720        33.6801 
 394   0.0000       1.244083        33.8532 
 395   0.0000       1.253387        34.1064 
 396   0.0000       1.255907        34.1750 
 397   0.0000       1.262565        34.3561 
 398   0.0000       1.264764        34.4160 
 399   0.0000       1.269069        34.5331 
 400   0.0000       1.273113        34.6432 
 401   0.0000       1.274636        34.6846 
 402   0.0000       1.285658        34.9845 
 403   0.0000       1.289053        35.0769 
 404   0.0000       1.291535        35.1445 
 405   0.0000       1.293440        35.1963 
 406   0.0000       1.295889        35.2629 
 407   0.0000       1.302928        35.4545 
 408   0.0000       1.306963        35.5643 
 409   0.0000       1.313127        35.7320 
 410   0.0000       1.318142        35.8685 
 411   0.0000       1.322209        35.9791 
 412   0.0000       1.326733        36.1022 
 413   0.0000       1.331687        36.2370 
 414   0.0000       1.340894        36.4876 
 415   0.0000       1.347216        36.6596 
 416   0.0000       1.352885        36.8139 
 417   0.0000       1.354777        36.8654 
 418   0.0000       1.359927        37.0055 
 419   0.0000       1.364056        37.1179 
 420   0.0000       1.369116        37.2555 
 421   0.0000       1.381242        37.5855 
 422   0.0000       1.387433        37.7540 
 423   0.0000       1.393474        37.9184 
 424   0.0000       1.398636        38.0588 
 425   0.0000       1.400993        38.1230 
 426   0.0000       1.407830        38.3090 
 427   0.0000       1.412028        38.4232 
 428   0.0000       1.424581        38.7648 
 429   0.0000       1.426926        38.8286 
 430   0.0000       1.431119        38.9427 
 431   0.0000       1.436172        39.0802 
 432   0.0000       1.440648        39.2020 
 433   0.0000       1.443921        39.2911 
 434   0.0000       1.449519        39.4434 
 435   0.0000       1.451979        39.5104 
 436   0.0000       1.455834        39.6152 
 437   0.0000       1.457207        39.6526 
 438   0.0000       1.459651        39.7191 
 439   0.0000       1.474187        40.1147 
 440   0.0000       1.478798        40.2401 
 441   0.0000       1.485736        40.4289 
 442   0.0000       1.489414        40.5290 
 443   0.0000       1.490513        40.5589 
 444   0.0000       1.498039        40.7637 
 445   0.0000       1.503644        40.9162 
 446   0.0000       1.515792        41.2468 
 447   0.0000       1.517925        41.3048 
 448   0.0000       1.521998        41.4157 
 449   0.0000       1.524538        41.4848 
 450   0.0000       1.529346        41.6156 
 451   0.0000       1.539234        41.8847 
 452   0.0000       1.541307        41.9411 
 453   0.0000       1.541642        41.9502 
 454   0.0000       1.552289        42.2399 
 455   0.0000       1.558615        42.4121 
 456   0.0000       1.563626        42.5484 
 457   0.0000       1.567586        42.6562 
 458   0.0000       1.571868        42.7727 
 459   0.0000       1.581362        43.0310 
 460   0.0000       1.582499        43.0620 
 461   0.0000       1.583967        43.1019 
 462   0.0000       1.586907        43.1819 
 463   0.0000       1.594632        43.3922 
 464   0.0000       1.604331        43.6561 
 465   0.0000       1.608829        43.7785 
 466   0.0000       1.613344        43.9013 
 467   0.0000       1.625255        44.2254 
 468   0.0000       1.629602        44.3437 
 469   0.0000       1.632664        44.4270 
 470   0.0000       1.634582        44.4792 
 471   0.0000       1.641317        44.6625 
 472   0.0000       1.649689        44.8903 
 473   0.0000       1.652663        44.9713 
 474   0.0000       1.656167        45.0666 
 475   0.0000       1.661707        45.2173 
 476   0.0000       1.669043        45.4170 
 477   0.0000       1.674194        45.5571 
 478   0.0000       1.679197        45.6933 
 479   0.0000       1.684157        45.8282 
 480   0.0000       1.689424        45.9716 
 481   0.0000       1.689909        45.9848 
 482   0.0000       1.692636        46.0590 
 483   0.0000       1.694800        46.1179 
 484   0.0000       1.705854        46.4186 
 485   0.0000       1.707911        46.4746 
 486   0.0000       1.717162        46.7264 
 487   0.0000       1.721952        46.8567 
 488   0.0000       1.726340        46.9761 
 489   0.0000       1.735638        47.2291 
 490   0.0000       1.737738        47.2863 
 491   0.0000       1.746000        47.5111 
 492   0.0000       1.750824        47.6423 
 493   0.0000       1.754987        47.7556 
 494   0.0000       1.763608        47.9902 
 495   0.0000       1.773662        48.2638 
 496   0.0000       1.778699        48.4009 
 497   0.0000       1.785596        48.5885 
 498   0.0000       1.790621        48.7253 
 499   0.0000       1.793027        48.7907 
 500   0.0000       1.802574        49.0505 
 501   0.0000       1.803316        49.0707 
 502   0.0000       1.807770        49.1919 
 503   0.0000       1.810709        49.2719 
 504   0.0000       1.816596        49.4321 
 505   0.0000       1.821467        49.5646 
 506   0.0000       1.827146        49.7192 
 507   0.0000       1.836677        49.9785 
 508   0.0000       1.839475        50.0547 
 509   0.0000       1.840569        50.0844 
 510   0.0000       1.853953        50.4486 
 511   0.0000       1.854455        50.4623 
 512   0.0000       1.856009        50.5046 
 513   0.0000       1.863445        50.7069 
 514   0.0000       1.864856        50.7453 
 515   0.0000       1.871416        50.9238 
 516   0.0000       1.875232        51.0277 
 517   0.0000       1.886494        51.3341 
 518   0.0000       1.889322        51.4111 
 519   0.0000       1.895724        51.5853 
 520   0.0000       1.897130        51.6235 
 521   0.0000       1.903205        51.7889 
 522   0.0000       1.906268        51.8722 
 523   0.0000       1.914324        52.0914 
 524   0.0000       1.915628        52.1269 
 525   0.0000       1.918930        52.2167 
 526   0.0000       1.922338        52.3095 
 527   0.0000       1.930021        52.5185 
 528   0.0000       1.934740        52.6470 
 529   0.0000       1.938242        52.7423 
 530   0.0000       1.943702        52.8908 
 531   0.0000       1.955540        53.2130 
 532   0.0000       1.961646        53.3791 
 533   0.0000       1.969472        53.5921 
 534   0.0000       1.972394        53.6716 
 535   0.0000       1.977488        53.8102 
 536   0.0000       1.984686        54.0061 
 537   0.0000       1.993195        54.2376 
 538   0.0000       1.994373        54.2696 
 539   0.0000       2.008959        54.6665 
 540   0.0000       2.014096        54.8063 
 541   0.0000       2.016295        54.8662 
 542   0.0000       2.026455        55.1426 
 543   0.0000       2.027570        55.1730 
 544   0.0000       2.030766        55.2600 
 545   0.0000       2.048740        55.7490 
 546   0.0000       2.053425        55.8765 
 547   0.0000       2.060883        56.0795 
 548   0.0000       2.068718        56.2927 
 549   0.0000       2.072354        56.3916 
 550   0.0000       2.077289        56.5259 
 551   0.0000       2.083594        56.6975 
 552   0.0000       2.087630        56.8073 
 553   0.0000       2.092017        56.9267 
 554   0.0000       2.101468        57.1839 
 555   0.0000       2.109928        57.4141 
 556   0.0000       2.115014        57.5525 
 557   0.0000       2.126811        57.8735 
 558   0.0000       2.133994        58.0689 
 559   0.0000       2.137608        58.1673 
 560   0.0000       2.148435        58.4619 
 561   0.0000       2.154774        58.6344 
 562   0.0000       2.156692        58.6866 
 563   0.0000       2.162264        58.8382 
 564   0.0000       2.165782        58.9339 
 565   0.0000       2.184094        59.4322 
 566   0.0000       2.189356        59.5754 
 567   0.0000       2.198424        59.8222 
 568   0.0000       2.204079        59.9760 
 569   0.0000       2.208535        60.0973 
 570   0.0000       2.213773        60.2398 
 571   0.0000       2.222185        60.4687 
 572   0.0000       2.229860        60.6776 
 573   0.0000       2.234164        60.7947 
 574   0.0000       2.242193        61.0132 
 575   0.0000       2.245034        61.0905 
 576   0.0000       2.256294        61.3969 
 577   0.0000       2.263788        61.6008 
 578   0.0000       2.275345        61.9153 
 579   0.0000       2.282571        62.1119 
 580   0.0000       2.287235        62.2388 
 581   0.0000       2.293508        62.4095 
 582   0.0000       2.301379        62.6237 
 583   0.0000       2.305173        62.7270 
 584   0.0000       2.313890        62.9641 
 585   0.0000       2.320405        63.1414 
 586   0.0000       2.322964        63.2111 
 587   0.0000       2.340763        63.6954 
 588   0.0000       2.343914        63.7811 
 589   0.0000       2.353703        64.0475 
 590   0.0000       2.355299        64.0909 
 591   0.0000       2.368813        64.4587 
 592   0.0000       2.374374        64.6100 
 593   0.0000       2.380330        64.7721 
 594   0.0000       2.387842        64.9765 
 595   0.0000       2.395266        65.1785 
 596   0.0000       2.411793        65.6282 
 597   0.0000       2.420230        65.8578 
 598   0.0000       2.424793        65.9820 
 599   0.0000       2.431955        66.1768 
 600   0.0000       2.442788        66.4716 
 601   0.0000       2.457544        66.8732 
 602   0.0000       2.461522        66.9814 
 603   0.0000       2.470259        67.2192 
 604   0.0000       2.478445        67.4419 
 605   0.0000       2.483475        67.5788 
 606   0.0000       2.497574        67.9624 
 607   0.0000       2.515889        68.4608 
 608   0.0000       2.519136        68.5492 
 609   0.0000       2.537915        69.0602 
 610   0.0000       2.538745        69.0828 
 611   0.0000       2.544139        69.2295 
 612   0.0000       2.573698        70.0339 
 613   0.0000       2.592858        70.5552 
 614   0.0000       2.606411        70.9240 
 615   0.0000       2.613484        71.1165 
 616   0.0000       2.617133        71.2158 
 617   0.0000       2.629207        71.5444 
 618   0.0000       2.638254        71.7905 
 619   0.0000       2.641176        71.8700 
 620   0.0000       2.667279        72.5804 
 621   0.0000       2.668213        72.6058 
 622   0.0000       2.670758        72.6750 
 623   0.0000       2.679487        72.9126 
 624   0.0000       2.683518        73.0222 
 625   0.0000       2.699865        73.4670 
 626   0.0000       2.705672        73.6251 
 627   0.0000       2.711451        73.7823 
 628   0.0000       2.715398        73.8897 
 629   0.0000       2.724593        74.1400 
 630   0.0000       2.733075        74.3707 
 631   0.0000       2.739010        74.5322 
 632   0.0000       2.746250        74.7293 
 633   0.0000       2.755901        74.9919 
 634   0.0000       2.763134        75.1887 
 635   0.0000       2.777958        75.5921 
 636   0.0000       2.789768        75.9134 
 637   0.0000       2.806866        76.3787 
 638   0.0000       2.820118        76.7393 
 639   0.0000       2.826845        76.9224 
 640   0.0000       2.846004        77.4437 
 641   0.0000       2.853699        77.6531 
 642   0.0000       2.871939        78.1494 
 643   0.0000       2.876738        78.2800 
 644   0.0000       2.888709        78.6058 
 645   0.0000       2.908198        79.1361 
 646   0.0000       2.911019        79.2128 
 647   0.0000       2.920200        79.4627 
 648   0.0000       2.925392        79.6040 
 649   0.0000       2.943163        80.0875 
 650   0.0000       2.955678        80.4281 
 651   0.0000       2.965110        80.6847 
 652   0.0000       2.990347        81.3715 
 653   0.0000       3.021140        82.2094 
 654   0.0000       3.025176        82.3192 
 655   0.0000       3.038553        82.6832 
 656   0.0000       3.050884        83.0188 
 657   0.0000       3.063916        83.3734 
 658   0.0000       3.079281        83.7915 
 659   0.0000       3.092189        84.1427 
 660   0.0000       3.104271        84.4715 
 661   0.0000       3.127935        85.1154 
 662   0.0000       3.138342        85.3986 
 663   0.0000       3.149590        85.7047 
 664   0.0000       3.166740        86.1714 
 665   0.0000       3.173758        86.3623 
 666   0.0000       3.192596        86.8749 
 667   0.0000       3.201701        87.1227 
 668   0.0000       3.207971        87.2933 
 669   0.0000       3.226403        87.7949 
 670   0.0000       3.232760        87.9679 
 671   0.0000       3.235945        88.0545 
 672   0.0000       3.238921        88.1355 
 673   0.0000       3.249751        88.4302 
 674   0.0000       3.257299        88.6356 
 675   0.0000       3.268810        88.9488 
 676   0.0000       3.283098        89.3376 
 677   0.0000       3.292052        89.5813 
 678   0.0000       3.295915        89.6864 
 679   0.0000       3.306568        89.9763 
 680   0.0000       3.312275        90.1316 
 681   0.0000       3.324535        90.4652 
 682   0.0000       3.333274        90.7030 
 683   0.0000       3.344066        90.9967 
 684   0.0000       3.344972        91.0213 
 685   0.0000       3.359487        91.4163 
 686   0.0000       3.364675        91.5575 
 687   0.0000       3.383495        92.0696 
 688   0.0000       3.391692        92.2926 
 689   0.0000       3.401020        92.5464 
 690   0.0000       3.411255        92.8250 
 691   0.0000       3.421203        93.0957 
 692   0.0000       3.423175        93.1493 
 693   0.0000       3.435959        93.4972 
 694   0.0000       3.445797        93.7649 
 695   0.0000       3.454503        94.0018 
 696   0.0000       3.473309        94.5135 
 697   0.0000       3.481185        94.7279 
 698   0.0000       3.483917        94.8022 
 699   0.0000       3.497153        95.1624 
 700   0.0000       3.503210        95.3272 
 701   0.0000       3.506677        95.4215 
 702   0.0000       3.512425        95.5779 
 703   0.0000       3.524107        95.8958 
 704   0.0000       3.527840        95.9974 
 705   0.0000       3.535406        96.2033 
 706   0.0000       3.544102        96.4399 
 707   0.0000       3.555231        96.7428 
 708   0.0000       3.562534        96.9415 
 709   0.0000       3.570677        97.1631 
 710   0.0000       3.579428        97.4012 
 711   0.0000       3.588532        97.6489 
 712   0.0000       3.594393        97.8084 
 713   0.0000       3.610482        98.2462 
 714   0.0000       3.612886        98.3116 
 715   0.0000       3.619836        98.5007 
 716   0.0000       3.625301        98.6495 
 717   0.0000       3.637103        98.9706 
 718   0.0000       3.648411        99.2783 
 719   0.0000       3.655575        99.4733 
 720   0.0000       3.658874        99.5630 
 721   0.0000       3.688093       100.3581 
 722   0.0000       3.691750       100.4576 
 723   0.0000       3.698195       100.6330 
 724   0.0000       3.709584       100.9429 
 725   0.0000       3.711202       100.9869 
 726   0.0000       3.716334       101.1266 
 727   0.0000       3.724035       101.3361 
 728   0.0000       3.734192       101.6125 
 729   0.0000       3.736767       101.6826 
 730   0.0000       3.749852       102.0387 
 731   0.0000       3.754359       102.1613 
 732   0.0000       3.761938       102.3675 
 733   0.0000       3.767401       102.5162 
 734   0.0000       3.773815       102.6907 
 735   0.0000       3.778966       102.8309 
 736   0.0000       3.791315       103.1669 
 737   0.0000       3.794584       103.2559 
 738   0.0000       3.802920       103.4827 
 739   0.0000       3.808145       103.6249 
 740   0.0000       3.820263       103.9546 
 741   0.0000       3.821904       103.9993 
 742   0.0000       3.835412       104.3669 
 743   0.0000       3.843602       104.5897 
 744   0.0000       3.846661       104.6730 
 745   0.0000       3.855520       104.9140 
 746   0.0000       3.860685       105.0546 
 747   0.0000       3.863605       105.1340 
 748   0.0000       3.871714       105.3547 
 749   0.0000       3.874390       105.4275 
 750   0.0000       3.883919       105.6868 
 751   0.0000       3.890050       105.8536 
 752   0.0000       3.902965       106.2051 
 753   0.0000       3.909674       106.3876 
 754   0.0000       3.919235       106.6478 
 755   0.0000       3.928764       106.9071 
 756   0.0000       3.933798       107.0441 
 757   0.0000       3.943359       107.3042 
 758   0.0000       3.952245       107.5461 
 759   0.0000       3.961427       107.7959 
 760   0.0000       3.965236       107.8996 
 761   0.0000       3.975279       108.1728 
 762   0.0000       3.977947       108.2455 
 763   0.0000       3.987877       108.5156 
 764   0.0000       3.992475       108.6408 
 765   0.0000       4.001803       108.8946 
 766   0.0000       4.008599       109.0795 
 767   0.0000       4.011850       109.1680 
 768   0.0000       4.020878       109.4137 
 769   0.0000       4.028158       109.6118 
 770   0.0000       4.038980       109.9062 
 771   0.0000       4.041467       109.9739 
 772   0.0000       4.049162       110.1833 
 773   0.0000       4.052058       110.2621 
 774   0.0000       4.058244       110.4304 
 775   0.0000       4.069965       110.7494 
 776   0.0000       4.073546       110.8468 
 777   0.0000       4.089601       111.2837 
 778   0.0000       4.092946       111.3747 
 779   0.0000       4.104494       111.6890 
 780   0.0000       4.110768       111.8597 
 781   0.0000       4.119498       112.0972 
 782   0.0000       4.121720       112.1577 
 783   0.0000       4.132441       112.4494 
 784   0.0000       4.139924       112.6531 
 785   0.0000       4.146477       112.8314 
 786   0.0000       4.152626       112.9987 
 787   0.0000       4.168220       113.4230 
 788   0.0000       4.177667       113.6801 
 789   0.0000       4.185356       113.8893 
 790   0.0000       4.192390       114.0807 
 791   0.0000       4.198589       114.2494 
 792   0.0000       4.207040       114.4794 
 793   0.0000       4.217973       114.7769 
 794   0.0000       4.218913       114.8025 
 795   0.0000       4.225064       114.9698 
 796   0.0000       4.252105       115.7057 
 797   0.0000       4.256669       115.8298 
 798   0.0000       4.266484       116.0969 
 799   0.0000       4.272078       116.2492 
 800   0.0000       4.284549       116.5885 
 801   0.0000       4.296728       116.9199 
 802   0.0000       4.297691       116.9461 
 803   0.0000       4.308674       117.2450 
 804   0.0000       4.312628       117.3526 
 805   0.0000       4.326690       117.7352 
 806   0.0000       4.329688       117.8168 
 807   0.0000       4.334516       117.9482 
 808   0.0000       4.348406       118.3262 
 809   0.0000       4.355254       118.5125 
 810   0.0000       4.368396       118.8701 
 811   0.0000       4.378242       119.1380 
 812   0.0000       4.383074       119.2695 
 813   0.0000       4.393361       119.5494 
 814   0.0000       4.411769       120.0503 
 815   0.0000       4.415813       120.1604 
 816   0.0000       4.420262       120.2814 
 817   0.0000       4.431496       120.5871 
 818   0.0000       4.440615       120.8353 
 819   0.0000       4.452121       121.1484 
 820   0.0000       4.466182       121.5310 
 821   0.0000       4.481354       121.9439 
 822   0.0000       4.490225       122.1852 
 823   0.0000       4.493497       122.2743 
 824   0.0000       4.504663       122.5781 
 825   0.0000       4.516159       122.8909 
 826   0.0000       4.519144       122.9722 
 827   0.0000       4.534818       123.3987 
 828   0.0000       4.543776       123.6424 
 829   0.0000       4.553526       123.9077 
 830   0.0000       4.559626       124.0737 
 831   0.0000       4.571520       124.3974 
 832   0.0000       4.583504       124.7235 
 833   0.0000       4.588532       124.8603 
 834   0.0000       4.594949       125.0349 
 835   0.0000       4.606232       125.3419 
 836   0.0000       4.610793       125.4660 
 837   0.0000       4.628004       125.9344 
 838   0.0000       4.642421       126.3267 
 839   0.0000       4.644579       126.3854 
 840   0.0000       4.659848       126.8009 
 841   0.0000       4.678063       127.2966 
 842   0.0000       4.689199       127.5996 
 843   0.0000       4.709301       128.1466 
 844   0.0000       4.719861       128.4340 
 845   0.0000       4.728096       128.6580 
 846   0.0000       4.736602       128.8895 
 847   0.0000       4.748157       129.2039 
 848   0.0000       4.749987       129.2537 
 849   0.0000       4.761007       129.5536 
 850   0.0000       4.772658       129.8706 
 851   0.0000       4.778970       130.0424 
 852   0.0000       4.787387       130.2714 
 853   0.0000       4.792946       130.4227 
 854   0.0000       4.811125       130.9174 
 855   0.0000       4.825036       131.2959 
 856   0.0000       4.835985       131.5939 
 857   0.0000       4.837515       131.6355 
 858   0.0000       4.865386       132.3939 
 859   0.0000       4.878030       132.7379 
 860   0.0000       4.888745       133.0295 
 861   0.0000       4.897329       133.2631 
 862   0.0000       4.904150       133.4487 
 863   0.0000       4.917472       133.8112 
 864   0.0000       4.934173       134.2657 
 865   0.0000       4.945690       134.5791 
 866   0.0000       4.960753       134.9890 
 867   0.0000       4.975667       135.3948 
 868   0.0000       4.984396       135.6323 
 869   0.0000       4.990940       135.8104 
 870   0.0000       4.995557       135.9360 
 871   0.0000       4.997582       135.9911 
 872   0.0000       5.040014       137.1458 
 873   0.0000       5.041050       137.1739 
 874   0.0000       5.047074       137.3379 
 875   0.0000       5.056764       137.6015 
 876   0.0000       5.065912       137.8505 
 877   0.0000       5.081897       138.2855 
 878   0.0000       5.087232       138.4306 
 879   0.0000       5.105828       138.9366 
 880   0.0000       5.113397       139.1426 
 881   0.0000       5.116622       139.2304 
 882   0.0000       5.135649       139.7481 
 883   0.0000       5.151720       140.1854 
 884   0.0000       5.161071       140.4399 
 885   0.0000       5.172257       140.7443 
 886   0.0000       5.185793       141.1126 
 887   0.0000       5.191550       141.2693 
 888   0.0000       5.213457       141.8654 
 889   0.0000       5.219529       142.0306 
 890   0.0000       5.226967       142.2330 
 891   0.0000       5.234363       142.4343 
 892   0.0000       5.250762       142.8805 
 893   0.0000       5.251684       142.9056 
 894   0.0000       5.267016       143.3228 
 895   0.0000       5.289824       143.9434 
 896   0.0000       5.308323       144.4468 
 897   0.0000       5.310375       144.5026 
 898   0.0000       5.340316       145.3174 
 899   0.0000       5.360484       145.8662 
 900   0.0000       5.370067       146.1269 
 901   0.0000       5.374580       146.2498 
 902   0.0000       5.384171       146.5107 
 903   0.0000       5.396090       146.8351 
 904   0.0000       5.408968       147.1855 
 905   0.0000       5.410561       147.2288 
 906   0.0000       5.426766       147.6698 
 907   0.0000       5.433836       147.8622 
 908   0.0000       5.444158       148.1431 
 909   0.0000       5.460099       148.5768 
 910   0.0000       5.484637       149.2446 
 911   0.0000       5.488801       149.3579 
 912   0.0000       5.496611       149.5704 
 913   0.0000       5.516085       150.1003 
 914   0.0000       5.522424       150.2728 
 915   0.0000       5.543398       150.8435 
 916   0.0000       5.544597       150.8762 
 917   0.0000       5.570940       151.5930 
 918   0.0000       5.583048       151.9224 
 919   0.0000       5.592167       152.1706 
 920   0.0000       5.606271       152.5544 
 921   0.0000       5.615234       152.7983 
 922   0.0000       5.616297       152.8272 
 923   0.0000       5.636905       153.3880 
 924   0.0000       5.640533       153.4867 
 925   0.0000       5.653446       153.8381 
 926   0.0000       5.663030       154.0989 
 927   0.0000       5.677550       154.4940 
 928   0.0000       5.683936       154.6678 
 929   0.0000       5.700425       155.1165 
 930   0.0000       5.713403       155.4696 
 931   0.0000       5.718696       155.6136 
 932   0.0000       5.731358       155.9582 
 933   0.0000       5.740962       156.2195 
 934   0.0000       5.753673       156.5654 
 935   0.0000       5.772052       157.0655 
 936   0.0000       5.792623       157.6253 
 937   0.0000       5.794139       157.6665 
 938   0.0000       5.819719       158.3626 
 939   0.0000       5.831041       158.6707 
 940   0.0000       5.848653       159.1499 
 941   0.0000       5.862995       159.5402 
 942   0.0000       5.893841       160.3796 
 943   0.0000       5.914154       160.9323 
 944   0.0000       5.940180       161.6405 
 945   0.0000       5.966731       162.3630 
 946   0.0000       6.047261       164.5543 
 947   0.0000       6.052745       164.7036 
 948   0.0000       6.084972       165.5805 
 949   0.0000       6.124577       166.6582 
 950   0.0000       6.138400       167.0344 
 951   0.0000       6.152902       167.4290 
 952   0.0000       6.174657       168.0210 
 953   0.0000       6.196918       168.6267 
 954   0.0000       6.215102       169.1215 
 955   0.0000       6.225691       169.4097 
 956   0.0000       6.240562       169.8143 
 957   0.0000       6.266607       170.5231 
 958   0.0000       6.273903       170.7216 
 959   0.0000       6.291266       171.1941 
 960   0.0000       6.309365       171.6865 
 961   0.0000       6.314456       171.8251 
 962   0.0000       6.330999       172.2753 
 963   0.0000       6.348735       172.7579 
 964   0.0000       6.363027       173.1468 
 965   0.0000       6.366809       173.2497 
 966   0.0000       6.389496       173.8670 
 967   0.0000       6.390620       173.8976 
 968   0.0000       6.465704       175.9408 
 969   0.0000       6.515750       177.3026 
 970   0.0000       6.553955       178.3422 
 971   0.0000       6.645355       180.8293 
 972   0.0000       6.819574       185.5700 
 973   0.0000       6.842283       186.1880 
 974   0.0000       6.870355       186.9519 
 975   0.0000       6.909681       188.0220 
 976   0.0000       6.916176       188.1987 
 977   0.0000       6.939330       188.8288 
 978   0.0000       6.963350       189.4824 
 979   0.0000       6.983774       190.0381 
 980   0.0000       7.018263       190.9766 
 981   0.0000       7.028803       191.2634 
 982   0.0000       7.034175       191.4096 
 983   0.0000       7.051298       191.8756 
 984   0.0000       7.105754       193.3574 
 985   0.0000       7.149836       194.5569 
 986   0.0000       7.272417       197.8925 
 987   0.0000       7.335477       199.6085 
 988   0.0000       7.367052       200.4677 
 989   0.0000       7.442115       202.5103 
 990   0.0000       7.538354       205.1290 
 991   0.0000       7.580354       206.2719 
 992   0.0000       7.631140       207.6539 
 993   0.0000       7.697152       209.4502 
 994   0.0000       7.771219       211.4656 
 995   0.0000       7.901253       215.0040 
 996   0.0000       7.962904       216.6816 
 997   0.0000       8.081299       219.9033 
 998   0.0000       8.279810       225.3051 
 999   0.0000       9.422055       256.3872 
 1000   0.0000       9.434896       256.7366 
 1001   0.0000       9.440276       256.8830 
 1002   0.0000       9.453786       257.2506 
 1003   0.0000       9.464487       257.5418 
 1004   0.0000       9.489938       258.2343 
 1005   0.0000       9.692303       263.7410 
 1006   0.0000      10.092949       274.6431 
 1007   0.0000      10.100127       274.8384 
 1008   0.0000      10.124797       275.5097 
 1009   0.0000      10.209673       277.8193 
 1010   0.0000      10.216363       278.0014 
 1011   0.0000      10.250455       278.9291 
 1012   0.0000      10.366810       282.0952 
 1013   0.0000      10.398185       282.9490 
 1014   0.0000      10.505049       285.8569 
 1015   0.0000      14.617733       397.7688 
 1016   0.0000      17.185048       467.6289 
 1017   0.0000      17.956593       488.6237 
 1018   0.0000      18.369365       499.8558 
 1019   0.0000      18.612678       506.4767 
 1020   0.0000      18.779612       511.0192 
 1021   0.0000      18.957366       515.8562 
 1022   0.0000      20.042171       545.3752 
 1023   0.0000      20.789672       565.7157 
 1024   0.0000      21.728088       591.2513 

                 SPIN DOWN ORBITALS
  NO   OCC          E(Eh)            E(eV) 
   0   1.0000    -261.559969     -7117.4086 
   1   1.0000    -104.782886     -2851.2873 
   2   1.0000    -104.780293     -2851.2167 
   3   1.0000    -104.778842     -2851.1772 
   4   1.0000     -32.069294      -872.6498 
   5   1.0000     -27.547238      -749.5985 
   6   1.0000     -27.547172      -749.5966 
   7   1.0000     -27.546938      -749.5903 
   8   1.0000     -20.588457      -560.2404 
   9   1.0000     -11.409919      -310.4797 
  10   1.0000     -11.308692      -307.7251 
  11   1.0000     -11.268499      -306.6315 
  12   1.0000     -11.266591      -306.5795 
  13   1.0000     -11.264170      -306.5136 
  14   1.0000     -11.262487      -306.4679 
  15   1.0000     -11.247408      -306.0575 
  16   1.0000     -11.242319      -305.9191 
  17   1.0000     -10.509442      -285.9765 
  18   1.0000     -10.506831      -285.9054 
  19   1.0000     -10.505349      -285.8651 
  20   1.0000      -7.975343      -217.0201 
  21   1.0000      -7.974665      -217.0017 
  22   1.0000      -7.974606      -217.0001 
  23   1.0000      -7.972731      -216.9490 
  24   1.0000      -7.972067      -216.9310 
  25   1.0000      -7.971970      -216.9283 
  26   1.0000      -7.971323      -216.9107 
  27   1.0000      -7.970528      -216.8891 
  28   1.0000      -7.970432      -216.8865 
  29   1.0000      -4.144232      -112.7703 
  30   1.0000      -2.665863       -72.5418 
  31   1.0000      -2.665798       -72.5401 
  32   1.0000      -2.665316       -72.5269 
  33   1.0000      -1.425643       -38.7937 
  34   1.0000      -1.152671       -31.3658 
  35   1.0000      -1.087142       -29.5826 
  36   1.0000      -1.041595       -28.3433 
  37   1.0000      -1.033537       -28.1240 
  38   1.0000      -1.028785       -27.9946 
  39   1.0000      -1.026804       -27.9408 
  40   1.0000      -0.997451       -27.1420 
  41   1.0000      -0.981568       -26.7098 
  42   1.0000      -0.911465       -24.8022 
  43   1.0000      -0.815953       -22.2032 
  44   1.0000      -0.751112       -20.4388 
  45   1.0000      -0.698967       -19.0199 
  46   1.0000      -0.684405       -18.6236 
  47   1.0000      -0.682691       -18.5770 
  48   1.0000      -0.672906       -18.3107 
  49   1.0000      -0.640568       -17.4307 
  50   1.0000      -0.622252       -16.9323 
  51   1.0000      -0.604085       -16.4380 
  52   1.0000      -0.596531       -16.2324 
  53   1.0000      -0.581878       -15.8337 
  54   1.0000      -0.575420       -15.6580 
  55   1.0000      -0.570966       -15.5368 
  56   1.0000      -0.560971       -15.2648 
  57   1.0000      -0.557328       -15.1657 
  58   1.0000      -0.540083       -14.6964 
  59   1.0000      -0.536008       -14.5855 
  60   1.0000      -0.514385       -13.9971 
  61   1.0000      -0.513241       -13.9660 
  62   1.0000      -0.488845       -13.3022 
  63   1.0000      -0.474988       -12.9251 
  64   1.0000      -0.473321       -12.8797 
  65   1.0000      -0.445478       -12.1221 
  66   1.0000      -0.441941       -12.0258 
  67   1.0000      -0.439805       -11.9677 
  68   1.0000      -0.425134       -11.5685 
  69   1.0000      -0.420092       -11.4313 
  70   1.0000      -0.405046       -11.0219 
  71   1.0000      -0.372975       -10.1492 
  72   0.0000       0.010450         0.2844 
  73   0.0000       0.021284         0.5792 
  74   0.0000       0.022384         0.6091 
  75   0.0000       0.028388         0.7725 
  76   0.0000       0.036281         0.9873 
  77   0.0000       0.039622         1.0782 
  78   0.0000       0.041135         1.1193 
  79   0.0000       0.043418         1.1815 
  80   0.0000       0.045063         1.2262 
  81   0.0000       0.046965         1.2780 
  82   0.0000       0.057199         1.5565 
  83   0.0000       0.058013         1.5786 
  84   0.0000       0.061007         1.6601 
  85   0.0000       0.063267         1.7216 
  86   0.0000       0.065095         1.7713 
  87   0.0000       0.072230         1.9655 
  88   0.0000       0.075861         2.0643 
  89   0.0000       0.083948         2.2843 
  90   0.0000       0.088489         2.4079 
  91   0.0000       0.091229         2.4825 
  92   0.0000       0.091444         2.4883 
  93   0.0000       0.098113         2.6698 
  94   0.0000       0.100342         2.7305 
  95   0.0000       0.104669         2.8482 
  96   0.0000       0.105114         2.8603 
  97   0.0000       0.112743         3.0679 
  98   0.0000       0.114000         3.1021 
  99   0.0000       0.116198         3.1619 
 100   0.0000       0.116870         3.1802 
 101   0.0000       0.118937         3.2364 
 102   0.0000       0.120708         3.2846 
 103   0.0000       0.123141         3.3508 
 104   0.0000       0.124783         3.3955 
 105   0.0000       0.125307         3.4098 
 106   0.0000       0.127391         3.4665 
 107   0.0000       0.132171         3.5966 
 108   0.0000       0.133690         3.6379 
 109   0.0000       0.136657         3.7186 
 110   0.0000       0.139007         3.7826 
 111   0.0000       0.141950         3.8627 
 112   0.0000       0.145845         3.9686 
 113   0.0000       0.150905         4.1063 
 114   0.0000       0.151817         4.1311 
 115   0.0000       0.156633         4.2622 
 116   0.0000       0.158222         4.3054 
 117   0.0000       0.160591         4.3699 
 118   0.0000       0.162595         4.4244 
 119   0.0000       0.165348         4.4993 
 120   0.0000       0.168091         4.5740 
 121   0.0000       0.169421         4.6102 
 122   0.0000       0.175020         4.7625 
 123   0.0000       0.178940         4.8692 
 124   0.0000       0.179975         4.8974 
 125   0.0000       0.182264         4.9597 
 126   0.0000       0.186926         5.0865 
 127   0.0000       0.189193         5.1482 
 128   0.0000       0.190946         5.1959 
 129   0.0000       0.199613         5.4317 
 130   0.0000       0.203027         5.5246 
 131   0.0000       0.205605         5.5948 
 132   0.0000       0.210698         5.7334 
 133   0.0000       0.212120         5.7721 
 134   0.0000       0.215416         5.8618 
 135   0.0000       0.220068         5.9884 
 136   0.0000       0.224913         6.1202 
 137   0.0000       0.226173         6.1545 
 138   0.0000       0.229161         6.2358 
 139   0.0000       0.231073         6.2878 
 140   0.0000       0.233779         6.3615 
 141   0.0000       0.237426         6.4607 
 142   0.0000       0.241742         6.5781 
 143   0.0000       0.245305         6.6751 
 144   0.0000       0.249589         6.7917 
 145   0.0000       0.254341         6.9210 
 146   0.0000       0.257960         7.0195 
 147   0.0000       0.261814         7.1243 
 148   0.0000       0.264319         7.1925 
 149   0.0000       0.268336         7.3018 
 150   0.0000       0.273133         7.4323 
 151   0.0000       0.279565         7.6074 
 152   0.0000       0.280822         7.6416 
 153   0.0000       0.288447         7.8491 
 154   0.0000       0.291054         7.9200 
 155   0.0000       0.295916         8.0523 
 156   0.0000       0.296964         8.0808 
 157   0.0000       0.299842         8.1591 
 158   0.0000       0.303658         8.2629 
 159   0.0000       0.307715         8.3733 
 160   0.0000       0.309683         8.4269 
 161   0.0000       0.313829         8.5397 
 162   0.0000       0.319694         8.6993 
 163   0.0000       0.325478         8.8567 
 164   0.0000       0.328413         8.9366 
 165   0.0000       0.332425         9.0457 
 166   0.0000       0.335588         9.1318 
 167   0.0000       0.339351         9.2342 
 168   0.0000       0.339971         9.2511 
 169   0.0000       0.344197         9.3661 
 170   0.0000       0.346038         9.4162 
 171   0.0000       0.352751         9.5988 
 172   0.0000       0.355393         9.6707 
 173   0.0000       0.359421         9.7804 
 174   0.0000       0.363180         9.8826 
 175   0.0000       0.364388         9.9155 
 176   0.0000       0.368499        10.0274 
 177   0.0000       0.370957        10.0943 
 178   0.0000       0.375412        10.2155 
 179   0.0000       0.376159        10.2358 
 180   0.0000       0.381417        10.3789 
 181   0.0000       0.388144        10.5619 
 182   0.0000       0.390198        10.6178 
 183   0.0000       0.393296        10.7021 
 184   0.0000       0.395795        10.7701 
 185   0.0000       0.399511        10.8712 
 186   0.0000       0.400454        10.8969 
 187   0.0000       0.403497        10.9797 
 188   0.0000       0.405556        11.0357 
 189   0.0000       0.410534        11.1712 
 190   0.0000       0.414023        11.2661 
 191   0.0000       0.418739        11.3945 
 192   0.0000       0.420318        11.4374 
 193   0.0000       0.424940        11.5632 
 194   0.0000       0.430148        11.7049 
 195   0.0000       0.433285        11.7903 
 196   0.0000       0.436968        11.8905 
 197   0.0000       0.440656        11.9909 
 198   0.0000       0.444415        12.0931 
 199   0.0000       0.448134        12.1943 
 200   0.0000       0.452013        12.2999 
 201   0.0000       0.457567        12.4510 
 202   0.0000       0.459863        12.5135 
 203   0.0000       0.463068        12.6007 
 204   0.0000       0.467878        12.7316 
 205   0.0000       0.469699        12.7812 
 206   0.0000       0.473303        12.8792 
 207   0.0000       0.477030        12.9806 
 208   0.0000       0.481923        13.1138 
 209   0.0000       0.484225        13.1764 
 210   0.0000       0.485412        13.2087 
 211   0.0000       0.489583        13.3222 
 212   0.0000       0.494035        13.4434 
 213   0.0000       0.494893        13.4667 
 214   0.0000       0.501808        13.6549 
 215   0.0000       0.502813        13.6822 
 216   0.0000       0.508467        13.8361 
 217   0.0000       0.509823        13.8730 
 218   0.0000       0.510780        13.8990 
 219   0.0000       0.514037        13.9876 
 220   0.0000       0.516257        14.0481 
 221   0.0000       0.519309        14.1311 
 222   0.0000       0.526015        14.3136 
 223   0.0000       0.527144        14.3443 
 224   0.0000       0.529836        14.4176 
 225   0.0000       0.532233        14.4828 
 226   0.0000       0.538444        14.6518 
 227   0.0000       0.541105        14.7242 
 228   0.0000       0.543879        14.7997 
 229   0.0000       0.547591        14.9007 
 230   0.0000       0.549306        14.9474 
 231   0.0000       0.551320        15.0022 
 232   0.0000       0.555354        15.1120 
 233   0.0000       0.558947        15.2097 
 234   0.0000       0.563051        15.3214 
 235   0.0000       0.566886        15.4258 
 236   0.0000       0.569866        15.5068 
 237   0.0000       0.576697        15.6927 
 238   0.0000       0.577717        15.7205 
 239   0.0000       0.581097        15.8125 
 240   0.0000       0.583007        15.8644 
 241   0.0000       0.586089        15.9483 
 242   0.0000       0.589238        16.0340 
 243   0.0000       0.594328        16.1725 
 244   0.0000       0.599686        16.3183 
 245   0.0000       0.602444        16.3933 
 246   0.0000       0.605018        16.4634 
 247   0.0000       0.606916        16.5150 
 248   0.0000       0.613127        16.6840 
 249   0.0000       0.619053        16.8453 
 250   0.0000       0.621825        16.9207 
 251   0.0000       0.625819        17.0294 
 252   0.0000       0.627075        17.0636 
 253   0.0000       0.628904        17.1134 
 254   0.0000       0.637145        17.3376 
 255   0.0000       0.642149        17.4738 
 256   0.0000       0.647490        17.6191 
 257   0.0000       0.651885        17.7387 
 258   0.0000       0.657667        17.8960 
 259   0.0000       0.661814        18.0089 
 260   0.0000       0.663563        18.0565 
 261   0.0000       0.666919        18.1478 
 262   0.0000       0.668857        18.2005 
 263   0.0000       0.676998        18.4221 
 264   0.0000       0.679351        18.4861 
 265   0.0000       0.684523        18.6268 
 266   0.0000       0.686015        18.6674 
 267   0.0000       0.691034        18.8040 
 268   0.0000       0.698970        19.0199 
 269   0.0000       0.700236        19.0544 
 270   0.0000       0.706127        19.2147 
 271   0.0000       0.710314        19.3286 
 272   0.0000       0.716667        19.5015 
 273   0.0000       0.723329        19.6828 
 274   0.0000       0.727285        19.7904 
 275   0.0000       0.730394        19.8750 
 276   0.0000       0.734540        19.9879 
 277   0.0000       0.737233        20.0611 
 278   0.0000       0.739903        20.1338 
 279   0.0000       0.742356        20.2005 
 280   0.0000       0.747427        20.3385 
 281   0.0000       0.750453        20.4209 
 282   0.0000       0.760204        20.6862 
 283   0.0000       0.762193        20.7403 
 284   0.0000       0.777340        21.1525 
 285   0.0000       0.780479        21.2379 
 286   0.0000       0.783732        21.3264 
[...]
  | sigma^2 in % of trace(Dij) retained ...   8.75e+00
  | sigma^2 in % of trace(Dip) retained ...   1.77e+01
  | sigma^2 in % of trace(Dpq) retained ...   1.37e-01
  | Av. % of trace(Di) retained         ...  99.998532349674
  | Av. % of trace(Dp) retained         ...  99.999999130681
  | sigma^2 in % of trace(Di) retained  ...   7.07e-07
  | sigma^2 in % of trace(Dp) retained  ...   5.78e-13
 Distributions of % trace(Dij) recovered:
  |       >= 99.9  ...   105 ( 21.3 % of all IJ-pairs)
  |   [80.0, 90.0) ...    27 (  5.5 % of all IJ-pairs)
  |   [90.0, 99.0) ...   264 ( 53.4 % of all IJ-pairs)
  |   [99.0, 99.9) ...    98 ( 19.8 % of all IJ-pairs)
 Distributions of % trace(Dip) recovered:
  |   [80.0, 90.0) ...    16 ( 13.7 % of all IP-pairs)
  |   [90.0, 99.0) ...    58 ( 49.6 % of all IP-pairs)
  |   [99.0, 99.9) ...    43 ( 36.8 % of all IP-pairs)
 Distributions of % trace(Dpq) recovered:
  |       >= 99.9  ...     5 ( 33.3 % of all PQ-pairs)
  |   [99.0, 99.9) ...    10 ( 66.7 % of all PQ-pairs)
 Distributions of % trace(Di) recovered :
  |       >= 99.9  ...    43 (100.0 % of all I-pairs )
 Distributions of % trace(Dp) recovered :
  |       >= 99.9  ...     5 (100.0 % of all P-pairs )

                       ===========================
                       1087 OF 1660 PAIRS ARE KEPT
                       ===========================

 Initial PAO correlation energy (all pairs)    ...  -2.6938286020 Eh
 Energy constituents in PAO basis (Eh):
  | Vijab(+0) ...  -2.2660312792
  | Viab (-1) ...  -0.1744894313
  | Vab  (-2) ...  -0.0573511609
  | Va   (-1) ...  -0.0000447906
  | Vija (+1) ...  -0.0718151546
  | Vij  (+2) ...  -0.0155216072
  | Via  (+0) ...  -0.1084136800
  | Vi   (+1) ...  -0.0001614982
 Initial PNO correlation energy                ...  -2.6600545120 Eh
 Energy constituents in PNO basis (Eh):
  | Vijab(+0) ...  -2.2479258031 (err=  0.0181054760)
  | Viab (-1) ...  -0.1603943660 (err=  0.0140950653)
  | Vab  (-2) ...  -0.0568967041 (err=  0.0004544567)
  | Va   (-1) ...  -0.0000257791 (err=  0.0000190115)
  | Vija (+1) ...  -0.0708603537 (err=  0.0009548009)
  | Vij  (+2) ...  -0.0154722182 (err=  0.0000493890)
  | Via  (+0) ...  -0.1083181909 (err=  0.0000954892)
  | Vi   (+1) ...  -0.0001610969 (err=  0.0000004013)
 Sum of total truncation errors ...   0.0337740900 Eh
  | Pair screening ...   0.0108757728 Eh
  | PNO truncation ...   0.0228983172 Eh

 UMP2 correlation energy (PAO) ...  -2.6888498495
  | alpha-alpha ...  -0.3865606920 (NP_aa=  891)
  | alpha-beta  ...  -1.9953135149 (NP_ab= 1635)
  | beta -beta  ...  -0.3069756426 (NP_bb=  711)
 UMP2 correlation energy (PNO) ...  -2.6546939881
  | alpha-alpha ...  -0.3746753907 (err=  0.0118853013, NP_aa=  578)
  | alpha-beta  ...  -1.9769525568 (err=  0.0183609581, NP_ab= 1062)
  | beta -beta  ...  -0.3030660406 (err=  0.0039096020, NP_bb=  451)
 Sum of total UMP2 truncation errors ...   0.0341558614 Eh
  | Pair screening ...   0.0108899888 Eh
  | PNO truncation ...   0.0232658726 Eh
 Timing for NEV-PNO construction (sec.)
  | Intermediate construction  ..           40.352
  | Amplitude construction     ..           61.995
  | Total time                 ..          102.347
 Making pair pair interaction lists ...      ok
 Total size for 2-ext PNO integrals ...     10.9 MB
Checking the number of SOMO/SOMO doubles PNOs ... 
 #Truncate: (72, 72)[166] -> [86] .. 
 #Truncate: (73, 73)[169] -> [86] .. 
 #Truncate: (74, 74)[169] -> [86] .. 
 #Truncate: (75, 75)[170] -> [86] .. 
 #Truncate: (76, 76)[167] -> [86] .. 

--------------------------------
LOCAL RI TRANSFORMATION (VABPAO)
--------------------------------

Number of PAOs:    1030
Basis functions:   1025 (343 shells)
Aux. functions:    2424 (644 shells)

Processing maps (0.0 sec)
Average map sizes:
   Aux shells -> PAOs           1030.0
   PAOs       -> AO shells       343.0

Calculating integrals (190.4 sec, 37370.165 MB)
Finished
-----------------------------
LOCAL RI TRANSFORMATION (IJV)
-----------------------------

Orbital window:      29 to 76
Basis functions:   1025 (343 shells)
Aux. functions:    2424 (644 shells)

Processing maps (0.0 sec)
Average map sizes:
   Aux shells -> MOs(i)           45.9
   Aux shells -> MOs(j)           48.0
   MOs        -> AO shells       338.6

Calculating integrals (21.9 sec, 40.935 MB)
Sorting integrals (0.3 sec, 40.907 MB)
Total time for the integral transformation: 22.2 sec


-------------------------------------
Pair Pair Term precalculation with     
RI-(ij|mn) and (im|jn) transformation  
ON THE FLY                             
-------------------------------------

   IBatch   1 (of   2)              ... done ( 1183.861 sec)
   IBatch   2 (of   2)              ... done (  823.057 sec)
Total EXT                           ...        2006.919 sec

---------------------
RI-PNO TRANSFORMATION
---------------------

Total Number of PNOs                   ... 34197
Total Number of IJ-PNOs                ... 30043
Total Number of IP-PNOs                ...  3196
Total Number of PQ-PNOs                ...   958
Total Number of IJ-pairs               ...   945
Total Number of PI-pairs               ...   117
Total Number of PQ-pairs               ...    25
Average number of PNOs per pair        ...    31
Maximal number of PNOs per pair        ...    86
>> Statistics for ij-pairs..
   #pairs with  1 -  5 PNOs   :    0
   #pairs with  6 - 10 PNOs   :    0
   #pairs with 11 - 15 PNOs   :   70
   #pairs with 16 - 20 PNOs   :  200
   #pairs with 21 - 25 PNOs   :  158
   #pairs with 26 - 30 PNOs   :  152
   #pairs with 31 - 35 PNOs   :   66
   #pairs with 36 - 40 PNOs   :   56
   #pairs with 41 - 45 PNOs   :   46
   #pairs with 46 - 50 PNOs   :   26
   #pairs with 51 - 55 PNOs   :   36
   #pairs with 56 - 60 PNOs   :   56
   #pairs with 61 - 65 PNOs   :   70
   #pairs with 66 - 70 PNOs   :    6
   #pairs with 76 - 80 PNOs   :    1
   #pairs with 81 - 85 PNOs   :    2
>> Statistics for ip-pairs..
   #pairs with  1 -  5 PNOs   :    0
   #pairs with  6 - 10 PNOs   :    0
   #pairs with 11 - 15 PNOs   :   17
   #pairs with 16 - 20 PNOs   :    4
   #pairs with 21 - 25 PNOs   :   28
   #pairs with 26 - 30 PNOs   :    9
   #pairs with 31 - 35 PNOs   :   45
   #pairs with 36 - 40 PNOs   :   14
   #pairs with 41 - 45 PNOs   :    0
   #pairs with 46 - 50 PNOs   :    0
>> Statistics for pq-pairs..
   #pairs with  1 -  5 PNOs   :    0
   #pairs with  6 - 10 PNOs   :    0
   #pairs with 11 - 15 PNOs   :    0
   #pairs with 16 - 20 PNOs   :    0
   #pairs with 21 - 25 PNOs   :   10
   #pairs with 26 - 30 PNOs   :   10
   #pairs with 31 - 35 PNOs   :    0
   #pairs with 36 - 40 PNOs   :    0
   #pairs with 41 - 45 PNOs   :    0
   #pairs with 46 - 50 PNOs   :    0
   #pairs with 86 - 90 PNOs   :    5

Generation of (ij|ab)[P] integrals            ... on
Generation of (ia|bc)[P],(ja|bc)[P] integrals ... on
Storage of 3 and 4 external integrals         ... on
Generation of ALL (ka|bc)[P] integrals        ... on
Keep RI integrals in memory                   ... off

Ibatch:  1 (of  1)
Starting 2-4 index PNO integral generation ... done

Timings:
Total PNO integral transformation time     ...       1959.357 sec
Size of the 3-external file                ...       289 MB
Size of the 4-external file                ...      1972 MB
Size of the IKJL file                      ...        18 MB
Size of the all 3-external file            ...      6940 MB
Size of the 1-external file                ...        22 MB

Size of the PAO/PNO coefficient matrices   ...     219.4 MB

Making pair/pair overlap matrices          ... done (  314.427 sec)
Size of the pair overlap file              ...    2411.0 MB
Total # unrestricted pairs ...       2091
  # of alpha-alpha pairs   ...        578
  # of alpha-beta pairs    ...       1062
  # of beta-beta pairs     ...        451
Constructing the guess amplitudes          ... done (    0.602 sec)

-------------------------
FINAL STARTUP INFORMATION
-------------------------

E(0)                                       ...  -3028.440865580
E(SL-UMP2 in NEV-PNO space)                ...     -2.689816297
Initial E(tot)                             ...  -3031.130681877
<T|T>                                      ...      0.536453939
Number of unrestricted pairs included      ... 2091
Total number of pairs                      ... 4095
----------------------------------------------------------
                     OPEN-SHELL COUPLED CLUSTER ITERATIONS
----------------------------------------------------------

Number of PNO amplitudes to be optimized        ...          2118157
Number of canonical amplitudes for strong pairs ...       1888597182
Untruncated number of canonical amplitudes      ...       3698645738

Iter       E(tot)           E(Corr)          Delta-E          Residual     Time
  0  -3031.137870719     -2.661882831      0.027933466      0.021035957 1651.00
                           *** Turning on DIIS ***
  1  -3031.249495959     -2.773508070     -0.111625240      0.009742200 1612.73
  2  -3031.314186368     -2.838198479     -0.064690409      0.008396467 1927.89
  3  -3031.335634715     -2.859646826     -0.021448347      0.002984651 1952.94
  4  -3031.342963690     -2.866975802     -0.007328975      0.002654110 1956.93
  5  -3031.346944157     -2.870956268     -0.003980466      0.001566428 1940.61
  6  -3031.348403134     -2.872415246     -0.001458977      0.000814029 1937.96
  7  -3031.349046359     -2.873058470     -0.000643225      0.000498837 1930.90
  8  -3031.349190737     -2.873202849     -0.000144379      0.000230467 1934.90
  9  -3031.349250230     -2.873262341     -0.000059493      0.000183946 1957.82
 10  -3031.349247087     -2.873259198      0.000003143      0.000093394 1955.22
 11  -3031.349260307     -2.873272419     -0.000013221      0.000067635 1939.25
 12  -3031.349265633     -2.873277744     -0.000005326      0.000031808 1959.24
 13  -3031.349268035     -2.873280147     -0.000002402      0.000014702 1941.87
 14  -3031.349269723     -2.873281834     -0.000001687      0.000006973 1956.41
               --- The CCSD iterations have converged ---

E(0)                                       ...  -3028.440865580
E(CORR)(strong-pairs)                      ...     -2.873281834
E(CORR)(weak-pairs)                        ...     -0.035122309
E(CORR)(corrected)                         ...     -2.908404143
E(TOT)                                     ...  -3031.349269723
Singles norm <S|S>**1/2                    ...      0.194050257 ( 0.065319369, 0.128730888)  
T1 diagnostic                              ...      0.020341994                              
<S**2>(linearized)                         ...      8.7508203 (ideal value:      8.7500000)

----------------------
LARGEST PNO AMPLITUDES
----------------------
  71a-> 77a  71b-> 77b       0.059096
  51b-> 76b  -1b-> -1b       0.054566
  50b-> 76b  -1b-> -1b       0.053648
  48b-> 72b  -1b-> -1b       0.053416
  71a-> 78a  71b-> 78b       0.051655
  48b-> 75b  -1b-> -1b       0.046576
  62a-> 77a  62b-> 77b       0.046072
  66a-> 77a  66b-> 77b       0.045888
  48b-> 74b  -1b-> -1b       0.045606
  43a-> 77a  43b-> 77b       0.044255
  43a-> 77a  -1a-> -1a       0.044007
  70a-> 77a  70b-> 77b       0.043599
  35b-> 72b  -1b-> -1b       0.043169
  37b-> 73b  -1b-> -1b       0.043154
  60a-> 77a  60b-> 77b       0.042720
  64a-> 77a  64b-> 77b       0.042649

Total # unrestricted pairs ...       1146
  # of alpha-alpha pairs   ...        313
  # of alpha-beta pairs    ...        573
  # of beta-beta pairs     ...        260

-------------------------------------------
DLPNO BASED TRIPLES CORRECTION
-------------------------------------------

Singles multiplier          ...  1.000000
Fragment selection                          .... not used
TCutTNO                     ... 1.000e-09
TCutMP2Pairs                ... 1.000e-05
TCutDOStrong                ... 2.000e-02
TCutMKNStrong               ... 1.000e-02
TCutDOWeak                  ... 4.000e-02
TCutMKNWeak                 ... 1.000e-01
NTCutTNO                    ... 1

Number of Triples that are to be computed         ...     32772

 . . . . . . . . .
10% done  
20% done  
30% done  
40% done  
50% done  
60% done  
70% done  
80% done  
90% done  
          Batch   1   done (  14301.380 sec)

Triples-Correction TCutTNO=   1.000e-09 (NWeakPairs = 0  1  2  3)  -0.118074506451   -0.001786546970    0.000000000000    0.000000000000
Triples-Correction  -0.119861053422

Triples timings:
Total time                      ... 14923.822 sec

Triples List generation         ...     0.000 sec
TNO generation                  ...   622.218 sec
Pair density generation         ...     0.083 sec
Look up tables                  ...     0.108 sec
Generating 3-index integrals    ...  8907.957 sec
Make 4-ind.int. from 3-ind.int  ...     3.274 sec
Projecting amplitudes (D + S)   ...  5147.594 sec
Sorting integrals for spin cases...    49.876 sec
Calculate W0/W1                 ...   154.744 sec
Energy contr. (sum over a,b,c)  ...    37.797 sec

Everything after 3-index        ...  5514.686 sec

Energy contribution AAA         ...    23.536 sec
Energy contribution AAB         ...   107.352 sec
Energy contribution ABB         ...    98.447 sec
Energy contribution BBB         ...    13.121 sec
prep                ...     2.972 sec
makeTTNO            ...  5094.228 sec
copyij              ...     0.124 sec
copyil              ...     3.981 sec
transposeij         ...     0.075 sec
newMatInDoubleProj  ...    51.428 sec
BlasInDoubleProj    ...  2729.360 sec
ProjSingles         ...    43.676 sec
ProjDoubles         ...  5103.918 sec
overall Doubles for projection      ... 2903213
used Doubles for projection         ... 2903213


Number of Triples   (0, 1, 2, 3 weak pairs; overall):  16084   11036       0       0  ( 27120)
Number of Atoms     (0, 1, 2, 3 weak pairs; overall):   18.9    14.5     0.0     0.0  (    29)
Number of PAOs      (0, 1, 2, 3 weak pairs; overall):  742.9   585.5     0.0     0.0  (  1025)
Number of AuxFcns   (0, 1, 2, 3 weak pairs; overall):  884.4   580.4     0.0     0.0  (  2424)
Number of TNOs (0, 1, 2, 3 weak pairs         ):   79.5    57.1     0.0     0.0
Aver. Number of NTNO, Atoms, PAOs, AuxFcns / Triples:  27120    70.4    17.1   678.9   760.7

Triples Correction (T)                     ...     -0.119861053
    alpha-alpha-alpha ... -0.003889097 (  3.2%)
    alpha-alpha-beta  ... -0.056263700 ( 46.9%)
    alpha-beta -beta  ... -0.055575463 ( 46.4%)
    beta -beta -beta  ... -0.004132793 (  3.4%)
Final correlation energy                   ...     -3.028265197
E(CCSD)                                    ...  -3031.349269723
E(CCSD(T))                                 ...  -3031.469130776

----------------------------
STATISTICS FOR PAIR-ENERGIES
----------------------------
Minimum, maximum and average ratios of UMP and CCSD pair-energies ... 0.46, 1.44, 1.02


------------------------------------------------------------------------------- 
                                     TIMINGS                                   
------------------------------------------------------------------------------- 


Total execution time                   ...    51147.524 sec

Localization of occupied MO's          ...       10.020 sec (  0.0%)
Fock Matrix Formation                  ...     1330.976 sec (  2.6%)
Differential overlap integrals         ...        1.373 sec (  0.0%)
Organizing maps                        ...        1.642 sec (  0.0%)
RI 3-index integral generations        ...      274.183 sec (  0.5%)
RI-PNO integral transformation         ...     4463.623 sec (  8.7%)
Initial Guess                          ...     1720.375 sec (  3.4%)
DIIS Solver                            ...       15.895 sec (  0.0%)
State Vector Update                    ...        0.750 sec (  0.0%)
Sigma-vector construction              ...    28555.680 sec ( 55.8%)
  <0|H|D>                              ...        0.030 sec (  0.0% of sigma)
  <D|H|D>(0-ext)                       ...     5302.089 sec ( 18.6% of sigma)
  <D|H|D>(2-ext Fock)                  ...        1.467 sec (  0.0% of sigma)
  <D|H|D>(2-ext)                       ...     4330.313 sec ( 15.2% of sigma)
  <D|H|D>(4-ext)                       ...      146.086 sec (  0.5% of sigma)
  <D|H|D>(4-ext-corr)                  ...      906.662 sec (  3.2% of sigma)
  CCSD doubles correction              ...      508.174 sec (  1.8% of sigma)
  <S|H|S>                              ...      671.378 sec (  2.4% of sigma)
  <S|H|D>(1-ext)                       ...      262.114 sec (  0.9% of sigma)
  <D|H|S>(1-ext)                       ...        0.604 sec (  0.0% of sigma)
  <S|H|D>(3-ext)                       ...       21.675 sec (  0.1% of sigma)
  CCSD singles correction              ...        0.005 sec (  0.0% of sigma)
  Fock-dressing                        ...     8211.889 sec ( 28.8% of sigma)
  Singles amplitudes                   ...      110.663 sec (  0.4% of sigma)
  (ik|jl)-dressing                     ...     6350.765 sec ( 22.2% of sigma)
  (ij|ab),(ia|jb)-dressing             ...     1516.910 sec (  5.3% of sigma)
  Pair energies                        ...        0.141 sec (  0.0% of sigma)
Total Time for computing (T)           ...    15100.667 sec ( 29.5% of ALL)


-------------------------   --------------------
FINAL SINGLE POINT ENERGY     -3031.469130776149
-------------------------   --------------------


                            ***************************************
                            *     ORCA property calculations      *
                            ***************************************

                                    ---------------------
                                    Active property flags
                                    ---------------------
   (+) Dipole Moment


------------------------------------------------------------------------------
                       ORCA ELECTRIC PROPERTIES CALCULATION
------------------------------------------------------------------------------

Dipole Moment Calculation                       ... on
Quadrupole Moment Calculation                   ... off
Polarizability Calculation                      ... off
GBWName                                         ... simple-grid-220-290-b3lyp_d3bj-631gd-gas-singlepoint-DLPNO_CCSD_T1-NormalPNO-augtz-gas.gbw
Electron density file                           ... simple-grid-220-290-b3lyp_d3bj-631gd-gas-singlepoint-DLPNO_CCSD_T1-NormalPNO-augtz-gas.scfp.tmp
The origin for moment calculation is the CENTER OF MASS  = ( 0.326761,  0.045988 -0.008892)

-------------
DIPOLE MOMENT
-------------
                                X             Y             Z
Electronic contribution:     44.37609       5.79968      -1.47706
Nuclear contribution   :    -48.68735      -6.85222       1.32493
                        -----------------------------------------
Total Dipole Moment    :     -4.31126      -1.05254      -0.15213
                        -----------------------------------------
Magnitude (a.u.)       :      4.44049
Magnitude (Debye)      :     11.28684



--------------------
Rotational spectrum 
--------------------
 
Rotational constants in cm-1:     0.019593     0.010164     0.009712 
Rotational constants in MHz :   587.371039   304.698824   291.147896 

 Dipole components along the rotational axes: 
x,y,z [a.u.] :    -4.312892     1.035464    -0.211575 
x,y,z [Debye]:   -10.962500     2.631940    -0.537780 

 

Timings for individual modules:

Sum of individual times         ...    65826.460 sec (=1097.108 min)
GTO integral calculation        ...       13.152 sec (=   0.219 min)   0.0 %
SCF iterations                  ...    14647.634 sec (= 244.127 min)  22.3 %
MDCI module                     ...    51165.674 sec (= 852.761 min)  77.7 %
                             ****ORCA TERMINATED NORMALLY****
TOTAL RUN TIME: 0 days 18 hours 17 minutes 9 seconds 69 msec
