
                                 *****************
                                 * O   R   C   A *
                                 *****************

           --- An Ab Initio, DFT and Semiempirical electronic structure package ---

                  #######################################################
                  #                        -***-                        #
                  #          Department of theory and spectroscopy      #
                  #               Directorship: Frank Neese             #
                  #        Max Planck Institute fuer Kohlenforschung    #
                  #                Kaiser Wilhelm Platz 1               #
                  #                 D-45470 Muelheim/Ruhr               #
                  #                      Germany                        #
                  #                                                     #
                  #                  All rights reserved                #
                  #                        -***-                        #
                  #######################################################


                         Program Version 4.1.2  - RELEASE  -


 With contributions from (in alphabetic order):
   Daniel Aravena         : Magnetic Properties
   Michael Atanasov       : Ab Initio Ligand Field Theory
   Alexander A. Auer      : GIAO ZORA
   Ute Becker             : Parallelization
   Giovanni Bistoni       : ED, Open-shell LED
   Martin Brehm           : Molecular dynamics
   Dmytro Bykov           : SCF Hessian
   Vijay G. Chilkuri      : MRCI spin determinant printing
   Dipayan Datta          : RHF DLPNO-CCSD density
   Achintya Kumar Dutta   : EOM-CC, STEOM-CC
   Dmitry Ganyushin       : Spin-Orbit,Spin-Spin,Magnetic field MRCI
   Miquel Garcia          : C-PCM Hessian
   Yang Guo               : DLPNO-NEVPT2, CIM, IAO-localization
   Andreas Hansen         : Spin unrestricted coupled pair/coupled cluster methods
   Benjamin Helmich-Paris : CASSCF linear response (MC-RPA)
   Lee Huntington         : MR-EOM, pCC
   Robert Izsak           : Overlap fitted RIJCOSX, COSX-SCS-MP3, EOM
   Christian Kollmar      : KDIIS, OOCD, Brueckner-CCSD(T), CCSD density
   Simone Kossmann        : Meta GGA functionals, TD-DFT gradient, OOMP2, MP2 Hessian
   Martin Krupicka        : AUTO-CI
   Lucas Lang             : DCDCAS
   Dagmar Lenk            : GEPOL surface, SMD
   Dimitrios Liakos       : Extrapolation schemes; parallel MDCI
   Dimitrios Manganas     : ROCIS; embedding schemes
   Dimitrios Pantazis     : SARC Basis sets
   Taras Petrenko         : DFT Hessian,TD-DFT gradient, ASA, ECA, R-Raman, ABS, FL, XAS/XES, NRVS
   Peter Pinski           : DLPNO-MP2, DLPNO-MP2 Gradient
   Christoph Reimann      : Effective Core Potentials
   Marius Retegan         : Local ZFS, SOC
   Christoph Riplinger    : Optimizer, TS searches, QM/MM, DLPNO-CCSD(T), (RO)-DLPNO pert. Triples
   Tobias Risthaus        : Range-separated hybrids, TD-DFT gradient, RPA, STAB
   Michael Roemelt        : Restricted open shell CIS
   Masaaki Saitow         : Open-shell DLPNO
   Barbara Sandhoefer     : DKH picture change effects
   Avijit Sen             : IP-ROCIS
   Kantharuban Sivalingam : CASSCF convergence, NEVPT2, FIC-MRCI
   Bernardo de Souza      : ESD, SOC TD-DFT
   Georgi Stoychev        : AutoAux, RI-MP2 NMR
   Willem Van den Heuvel  : Paramagnetic NMR
   Boris Wezisla          : Elementary symmetry handling
   Frank Wennmohs         : Technical directorship


 We gratefully acknowledge several colleagues who have allowed us to
 interface, adapt or use parts of their codes:
   Stefan Grimme, W. Hujo, H. Kruse,             : VdW corrections, initial TS optimization,
                  C. Bannwarth                     DFT functionals, gCP, sTDA/sTD-DF
   Ed Valeev                                     : LibInt (2-el integral package), F12 methods
   Garnet Chan, S. Sharma, J. Yang, R. Olivares  : DMRG
   Ulf Ekstrom                                   : XCFun DFT Library
   Mihaly Kallay                                 : mrcc  (arbitrary order and MRCC methods)
   Andreas Klamt, Michael Diedenhofen            : otool_cosmo (COSMO solvation model)
   Jiri Pittner, Ondrej Demel                    : Mk-CCSD
   Frank Weinhold                                : gennbo (NPA and NBO analysis)
   Christopher J. Cramer and Donald G. Truhlar   : smd solvation model
   Lars Goerigk                                  : TD-DFT with DH, B97 family of functionals
   V. Asgeirsson, H. Jonsson                     : NEB implementation
   FAccTs GmbH                                   : IRC, NEB, NEB-TS, Multilevel


 Your calculation uses the libint2 library for the computation of 2-el integrals
 For citations please refer to: http://libint.valeyev.net

 This ORCA versions uses:
   CBLAS   interface :  Fast vector & matrix operations
   LAPACKE interface :  Fast linear algebra routines
   SCALAPACK package :  Parallel linear algebra routines


----- Orbital basis set information -----
Your calculation utilizes the basis: aug-cc-pVTZ 
    H, B-Ne : Obtained from the ccRepo (grant-hill.group.shef.ac.uk/ccrepo) Feb. 2017
              R. A. Kendall, T. H. Dunning, Jr., R. J. Harrison, J. Chem. Phys. 96, 6796 (1992)
         He : Obtained from the ccRepo (grant-hill.group.shef.ac.uk/ccrepo) Feb. 2017
              D. E. Woon, T. H. Dunning, Jr., J. Chem. Phys. 100, 2975 (1994)
  Li-Be, Na : Obtained from the ccRepo (grant-hill.group.shef.ac.uk/ccrepo) Feb. 2017
              B. P. Prascher, D. E. Woon, K. A. Peterson, T. H. Dunning, Jr., A. K. Wilson, Theor. Chem. Acc. 128, 69 (2011)
         Mg : Obtained from the Peterson Research Group Website (tyr0.chem.wsu.edu/~kipeters) Feb. 2017
              B. P. Prascher, D. E. Woon, K. A. Peterson, T. H. Dunning, Jr., A. K. Wilson, Theor. Chem. Acc. 128, 69 (2011)
      Al-Ar : Obtained from the ccRepo (grant-hill.group.shef.ac.uk/ccrepo) Feb. 2017
              D. E. Woon, T. H. Dunning, Jr., J. Chem. Phys. 98, 1358 (1993)
      Sc-Zn : Obtained from the ccRepo (grant-hill.group.shef.ac.uk/ccrepo) Feb. 2017
              N. B. Balabanov, K. A. Peterson, J. Chem. Phys. 123, 064107 (2005)
              N. B. Balabanov, K. A. Peterson, J. Chem. Phys. 125, 074110 (2006)
      Ga-Kr : Obtained from the ccRepo (grant-hill.group.shef.ac.uk/ccrepo) Feb. 2017
              A. K. Wilson, D. E. Woon, K. A. Peterson, T. H. Dunning, Jr., J. Chem. Phys. 110, 7667 (1999)
     Ag, Au : Obtained from the Peterson Research Group Website (tyr0.chem.wsu.edu/~kipeters) Feb. 2017
              K. A. Peterson, C. Puzzarini, Theor. Chem. Acc. 114, 283 (2005)

----- AuxJ basis set information -----
Your calculation utilizes the AutoAux generation procedure.
  G. L. Stoychev, A. A. Auer, F. Neese, J. Chem. Theory Comput. 13, 554 (2017)

----- AuxC basis set information -----
Your calculation utilizes the auxiliary basis: aug-cc-pVTZ/C 
  H-He, B-F, Al-Ar, Ga-Kr : Obtained from the EMSL Basis Set Exchange (bse.pnl.gov) Feb. 2017
                            F. Weigend, A. Kohn, C. Hattig, J. Chem. Phys. 116, 3175 (2002)
                   Be, Mg : Obtained from the TURBOMOLE 7.0 basis set library
                            C. Haettig, Phys. Chem. Chem. Phys. 7, 59 (2005)
                       Ne : Obtained from the EMSL Basis Set Exchange (bse.pnl.gov) Feb. 2017
                            C. Haettig, Phys. Chem. Chem. Phys. 7, 59 (2005)
                            F. Weigend, A. Kohn, C. Hattig, J. Chem. Phys. 116, 3175 (2002)
                    Sc-Zn : Obtained from the EMSL Basis Set Exchange (bse.pnl.gov) Feb. 2017
                            J. G. Hill, J. A. Platts, J. Chem. Phys. 128, 044104 (2008)

----- AuxJK basis set information -----
Your calculation utilizes the AutoAux generation procedure.
  G. L. Stoychev, A. A. Auer, F. Neese, J. Chem. Theory Comput. 13, 554 (2017)

================================================================================
                                        WARNINGS
                       Please study these warnings very carefully!
================================================================================


WARNING: your system is open-shell and RHF/RKS was chosen
  ===> : WILL SWITCH to UHF/UKS


WARNING: MDCI localization with Augmented Hessian Foster-Boys
  ===> : Switching off randomization!

WARNING: Post HF methods need fully converged wavefunctions
  ===> : Setting SCFConvForced true
         You can overwrite this default with %scf ConvForced false 


INFO   : the flag for use of LIBINT has been found!

================================================================================
                                       INPUT FILE
================================================================================
NAME = simple-grid-280-295-b3lyp_d3bj-631gd-gas-singlepoint-DLPNO_CCSD_T1-NormalPNO-augtz-gas.inp
|  1> ! aug-cc-pVTZ aug-cc-pVTZ/C DLPNO-CCSD(T1) TightSCF NormalPNO UNO MiniPrint AutoAux
|  2> %pal nproc 10 end
|  3> %maxcore 20000
|  4> %mdci
|  5>      density none
|  6> end
|  7> 
|  8> * xyz 0 6
|  9>  O      0.16567500      0.41878300     -0.89006600
| 10>  C      0.94021900      1.37965200     -0.68106100
| 11>  C      3.10345100      0.11092900      0.56423800
| 12>  C      2.69349400     -0.92986900     -0.18738800
| 13>  C      3.18113800     -1.11779300     -1.59913000
| 14> Fe     -1.49219400     -0.17338900      0.01322500
| 15> Cl     -2.05798100     -1.99126300     -1.03393200
| 16>  C      1.76234200     -2.00596200      0.29165900
| 17> Cl     -2.76641800      1.57097200     -0.33160600
| 18> Cl     -1.04963000     -0.46143800      2.14213000
| 19>  H      3.82410300      0.79566200      0.11508600
| 20>  H      2.27795000     -2.97567600      0.28639400
| 21>  H      1.37210700     -1.83474600      1.29457700
| 22>  H      0.91169700     -2.11024100     -0.39433600
| 23>  H      3.71236500     -2.07427600     -1.69041900
| 24>  H      2.33793700     -1.16732400     -2.30120400
| 25>  H      3.86321600     -0.32341800     -1.91604000
| 26>  C      2.85007500      0.31881600      2.03343500
| 27>  H      3.65987800     -0.13062600      2.62451000
| 28>  H      2.83267400      1.38302500      2.29014600
| 29>  H      1.91073400     -0.12443900      2.37276500
| 30>  C      0.78324500      2.24929500      0.52546400
| 31>  H      1.66800500      2.85961900      0.70960600
| 32>  H     -0.06640600      2.91595100      0.31450000
| 33>  H      0.52425600      1.66671400      1.41021600
| 34>  C      1.78605300      1.86579700     -1.81708600
| 35>  H      1.22801400      2.69052600     -2.28484500
| 36>  H      2.74158800      2.26534100     -1.47442900
| 37>  H      1.93193400      1.08595700     -2.56269400
| 38> *
| 39> 
| 40> 
| 41>                          ****END OF INPUT****
================================================================================

                       ****************************
                       * Single Point Calculation *
                       ****************************

---------------------------------
CARTESIAN COORDINATES (ANGSTROEM)
---------------------------------
  O      0.165675    0.418783   -0.890066
  C      0.940219    1.379652   -0.681061
  C      3.103451    0.110929    0.564238
  C      2.693494   -0.929869   -0.187388
  C      3.181138   -1.117793   -1.599130
  Fe    -1.492194   -0.173389    0.013225
  Cl    -2.057981   -1.991263   -1.033932
  C      1.762342   -2.005962    0.291659
  Cl    -2.766418    1.570972   -0.331606
  Cl    -1.049630   -0.461438    2.142130
  H      3.824103    0.795662    0.115086
  H      2.277950   -2.975676    0.286394
  H      1.372107   -1.834746    1.294577
  H      0.911697   -2.110241   -0.394336
  H      3.712365   -2.074276   -1.690419
  H      2.337937   -1.167324   -2.301204
  H      3.863216   -0.323418   -1.916040
  C      2.850075    0.318816    2.033435
  H      3.659878   -0.130626    2.624510
  H      2.832674    1.383025    2.290146
  H      1.910734   -0.124439    2.372765
  C      0.783245    2.249295    0.525464
  H      1.668005    2.859619    0.709606
  H     -0.066406    2.915951    0.314500
  H      0.524256    1.666714    1.410216
  C      1.786053    1.865797   -1.817086
  H      1.228014    2.690526   -2.284845
  H      2.741588    2.265341   -1.474429
  H      1.931934    1.085957   -2.562694

----------------------------
CARTESIAN COORDINATES (A.U.)
----------------------------
  NO LB      ZA    FRAG     MASS         X           Y           Z
   0 O     8.0000    0    15.999    0.313080    0.791385   -1.681981
   1 C     6.0000    0    12.011    1.776756    2.607164   -1.287019
   2 C     6.0000    0    12.011    5.864672    0.209625    1.066255
   3 C     6.0000    0    12.011    5.089966   -1.757198   -0.354112
   4 C     6.0000    0    12.011    6.011480   -2.112323   -3.021918
   5 Fe   26.0000    0    55.850   -2.819838   -0.327658    0.024992
   6 Cl   17.0000    0    35.453   -3.889020   -3.762942   -1.953848
   7 C     6.0000    0    12.011    3.330344   -3.790719    0.551156
   8 Cl   17.0000    0    35.453   -5.227772    2.968707   -0.626645
   9 Cl   17.0000    0    35.453   -1.983513   -0.871991    4.048039
  10 H     1.0000    0     1.008    7.226507    1.503583    0.217481
  11 H     1.0000    0     1.008    4.304702   -5.623213    0.541206
  12 H     1.0000    0     1.008    2.592906   -3.467167    2.446396
  13 H     1.0000    0     1.008    1.722858   -3.987778   -0.745187
  14 H     1.0000    0     1.008    7.015353   -3.919814   -3.194429
  15 H     1.0000    0     1.008    4.418061   -2.205923   -4.348645
  16 H     1.0000    0     1.008    7.300420   -0.611171   -3.620791
  17 C     6.0000    0    12.011    5.385861    0.602475    3.842635
  18 H     1.0000    0     1.008    6.916167   -0.246847    4.959605
  19 H     1.0000    0     1.008    5.352978    2.613538    4.327749
  20 H     1.0000    0     1.008    3.610764   -0.235156    4.483876
  21 C     6.0000    0    12.011    1.480119    4.250552    0.992983
  22 H     1.0000    0     1.008    3.152073    5.403897    1.340961
  23 H     1.0000    0     1.008   -0.125489    5.510349    0.594319
  24 H     1.0000    0     1.008    0.990700    3.149633    2.664922
  25 C     6.0000    0    12.011    3.375151    3.525845   -3.433795
  26 H     1.0000    0     1.008    2.320610    5.084357   -4.317731
  27 H     1.0000    0     1.008    5.180850    4.280874   -2.786267
  28 H     1.0000    0     1.008    3.650826    2.052161   -4.842790



           ************************************************************
           *        Program running with 10 parallel MPI-processes    *
           *              working on a common directory               *
           ************************************************************


           ************************************************************
           *        Program running with 10 parallel MPI-processes    *
           *              working on a common directory               *
           ************************************************************

Diagonalization of the overlap matrix:
Smallest eigenvalue                        ... 9.288e-07
Time for diagonalization                   ...    0.326 sec
Threshold for overlap eigenvalues          ... 1.000e-08
Number of eigenvalues below threshold      ... 0
Time for construction of square roots      ...    0.281 sec
Total time needed                          ...    0.612 sec

-------------------
DFT GRID GENERATION
-------------------

General Integration Accuracy     IntAcc      ...  4.340
Radial Grid Type                 RadialGrid  ... Gauss-Chebyshev
Angular Grid (max. acc.)         AngularGrid ... Lebedev-110
Angular grid pruning method      GridPruning ... 3 (G Style)
Weight generation scheme         WeightScheme... Becke
Basis function cutoff            BFCut       ...    1.0000e-11
Integration weight cutoff        WCut        ...    1.0000e-14
Grids for H and He will be reduced by one unit

# of grid points (after initial pruning)     ...  36112 (   0.0 sec)
# of grid points (after weights+screening)   ...  32458 (   0.1 sec)
nearest neighbour list constructed           ...    0.0 sec
Grid point re-assignment to atoms done       ...    0.0 sec
Grid point division into batches done        ...    0.0 sec
Reduced shell lists constructed in    0.2 sec

Total number of grid points                  ...    32458
Total number of batches                      ...      521
Average number of points per batch           ...       62
Average number of grid points per atom       ...     1119
Average number of shells per batch           ...   284.57 (82.97%)
Average number of basis functions per batch  ...   843.39 (82.28%)
Average number of large shells per batch     ...   230.20 (80.89%)
Average number of large basis fcns per batch ...   683.35 (81.02%)
Maximum spatial batch extension              ...   5.70,  6.63, 10.16 au
Average spatial batch extension              ...   0.19,  0.20,  0.20 au

Time for grid setup =    0.340 sec

Loading Hartree-Fock densities                     ... done
Calculating cut-offs                               ... done
Setting up the integral package                    ... done
Initializing the effective Hamiltonian             ... done
Starting the Coulomb interaction                   ... done (   1.1 sec)
Reading the grid                                   ... done
Mapping shells                                     ... done
Starting the XC term evaluation                    ... done (   0.8 sec)
Transforming the Hamiltonian                       ... done (   0.2 sec)
Diagonalizing the Hamiltonian                      ... done (   0.3 sec)
Back transforming the eigenvectors                 ... done (   0.1 sec)
Now organizing SCF variables                       ... done
--------------
SCF ITERATIONS
--------------
ITER       Energy         Delta-E        Max-DP      RMS-DP      [F,P]     Damp
               ***  Starting incremental Fock matrix formation  ***
  0  -3027.6014496708   0.000000000000 0.14781363  0.00083861  0.2411685 0.7000
  1  -3027.8555175690  -0.254067898246 0.11276903  0.00066358  0.1545197 0.7000
                               ***Turning on DIIS***
  2  -3028.0254676231  -0.169950054087 0.08111469  0.00049310  0.1094893 0.7000
  3  -3029.6072566597  -1.581789036583 0.23937988  0.00126532  0.0817077 0.0000
  4  -3028.3186916912   1.288564968527 0.04055543  0.00021298  0.0193173 0.0000
  5  -3028.4420451301  -0.123353438918 0.03933533  0.00016798  0.0109060 0.0000
  6  -3028.4903836172  -0.048338487088 0.01988611  0.00006872  0.0052625 0.0000
  7  -3028.5034448220  -0.013061204803 0.00870976  0.00003162  0.0030056 0.0000
  8  -3028.4921281556   0.011316666421 0.00649379  0.00001822  0.0015873 0.0000
  9  -3028.4885258897   0.003602265882 0.00225969  0.00001048  0.0006610 0.0000
 10  -3028.4761081065   0.012417783220 0.00092634  0.00000327  0.0004126 0.0000
 11  -3028.4816713317  -0.005563225259 0.00027219  0.00000165  0.0000890 0.0000
 12  -3028.4796554665   0.002015865213 0.00020234  0.00000120  0.0000217 0.0000
 13  -3028.4795990150   0.000056451490 0.00028151  0.00000147  0.0000091 0.0000
 14  -3028.4796086860  -0.000009670947 0.00040696  0.00000162  0.0000059 0.0000
 15  -3028.4795680512   0.000040634769 0.00027350  0.00000134  0.0000038 0.0000
 16  -3028.4795695389  -0.000001487673 0.00044207  0.00000199  0.0000032 0.0000
 17  -3028.4795849348  -0.000015395886 0.00033782  0.00000163  0.0000021 0.0000
 18  -3028.4795680576   0.000016877206 0.00054003  0.00000228  0.0000016 0.0000
                            ***DIIS convergence achieved***

               *****************************************************
               *                     SUCCESS                       *
               *           SCF CONVERGED AFTER  19 CYCLES          *
               *****************************************************

Total Energy       :        -3028.47957295 Eh          -82409.11878 eV
  Last Energy change         ...   -4.8928e-06  Tolerance :   1.0000e-08
  Last MAX-Density change    ...    2.5304e-04  Tolerance :   1.0000e-07
             **** THE GBW FILE WAS UPDATED (simple-grid-280-295-b3lyp_d3bj-631gd-gas-singlepoint-DLPNO_CCSD_T1-NormalPNO-augtz-gas.gbw) ****
             **** DENSITY FILE WAS UPDATED (simple-grid-280-295-b3lyp_d3bj-631gd-gas-singlepoint-DLPNO_CCSD_T1-NormalPNO-augtz-gas.scfp.tmp) ****
             **** ENERGY FILE WAS UPDATED (simple-grid-280-295-b3lyp_d3bj-631gd-gas-singlepoint-DLPNO_CCSD_T1-NormalPNO-augtz-gas.en.tmp) ****
----------------------
UHF SPIN CONTAMINATION
----------------------

Expectation value of <S**2>     :     8.765076
Ideal value S*(S+1) for S=2.5   :     8.750000
Deviation                       :     0.015076

----------------
ORBITAL ENERGIES
----------------
                 SPIN UP ORBITALS
  NO   OCC          E(Eh)            E(eV) 
   0   1.0000    -261.577603     -7117.8884 
   1   1.0000    -104.795257     -2851.6239 
   2   1.0000    -104.792021     -2851.5359 
   3   1.0000    -104.789910     -2851.4784 
   4   1.0000     -32.245287      -877.4389 
   5   1.0000     -27.721811      -754.3488 
   6   1.0000     -27.720603      -754.3160 
   7   1.0000     -27.720400      -754.3104 
   8   1.0000     -20.625706      -561.2540 
   9   1.0000     -11.422153      -310.8126 
  10   1.0000     -11.278991      -306.9170 
  11   1.0000     -11.273497      -306.7675 
  12   1.0000     -11.261755      -306.4479 
  13   1.0000     -11.241525      -305.8974 
  14   1.0000     -11.240677      -305.8744 
  15   1.0000     -11.234810      -305.7147 
  16   1.0000     -11.227200      -305.5077 
  17   1.0000     -10.521991      -286.3179 
  18   1.0000     -10.518719      -286.2289 
  19   1.0000     -10.516559      -286.1701 
  20   1.0000      -7.988815      -217.3867 
  21   1.0000      -7.988076      -217.3666 
  22   1.0000      -7.988021      -217.3651 
  23   1.0000      -7.985598      -217.2992 
  24   1.0000      -7.984816      -217.2779 
  25   1.0000      -7.984763      -217.2765 
  26   1.0000      -7.983344      -217.2378 
  27   1.0000      -7.982692      -217.2201 
  28   1.0000      -7.982645      -217.2188 
  29   1.0000      -4.600091      -125.1748 
  30   1.0000      -3.213263       -87.4373 
  31   1.0000      -3.211455       -87.3881 
  32   1.0000      -3.211302       -87.3840 
  33   1.0000      -1.468882       -39.9703 
  34   1.0000      -1.121962       -30.5301 
  35   1.0000      -1.102363       -29.9968 
  36   1.0000      -1.068570       -29.0773 
  37   1.0000      -1.062701       -28.9176 
  38   1.0000      -1.059707       -28.8361 
  39   1.0000      -1.021205       -27.7884 
  40   1.0000      -1.009163       -27.4607 
  41   1.0000      -0.955511       -26.0008 
  42   1.0000      -0.944228       -25.6938 
  43   1.0000      -0.928964       -25.2784 
  44   1.0000      -0.928813       -25.2743 
  45   1.0000      -0.917997       -24.9800 
  46   1.0000      -0.917357       -24.9626 
  47   1.0000      -0.893108       -24.3027 
  48   1.0000      -0.816423       -22.2160 
  49   1.0000      -0.726002       -19.7555 
  50   1.0000      -0.715040       -19.4572 
  51   1.0000      -0.704841       -19.1797 
  52   1.0000      -0.684245       -18.6192 
  53   1.0000      -0.651843       -17.7375 
  54   1.0000      -0.621299       -16.9064 
  55   1.0000      -0.618156       -16.8209 
  56   1.0000      -0.604639       -16.4531 
  57   1.0000      -0.599869       -16.3233 
  58   1.0000      -0.586250       -15.9527 
  59   1.0000      -0.579830       -15.7780 
  60   1.0000      -0.561094       -15.2681 
  61   1.0000      -0.549402       -14.9500 
  62   1.0000      -0.546239       -14.8639 
  63   1.0000      -0.538200       -14.6452 
  64   1.0000      -0.537504       -14.6262 
  65   1.0000      -0.523728       -14.2514 
  66   1.0000      -0.505684       -13.7604 
  67   1.0000      -0.489894       -13.3307 
  68   1.0000      -0.478056       -13.0086 
  69   1.0000      -0.477971       -13.0062 
  70   1.0000      -0.448284       -12.1984 
  71   1.0000      -0.441872       -12.0239 
  72   1.0000      -0.439991       -11.9728 
  73   1.0000      -0.431436       -11.7400 
  74   1.0000      -0.430485       -11.7141 
  75   1.0000      -0.429140       -11.6775 
  76   1.0000      -0.357247        -9.7212 
  77   0.0000       0.012670         0.3448 
  78   0.0000       0.023824         0.6483 
  79   0.0000       0.024568         0.6685 
  80   0.0000       0.030801         0.8381 
  81   0.0000       0.039399         1.0721 
  82   0.0000       0.041413         1.1269 
  83   0.0000       0.042675         1.1612 
  84   0.0000       0.043082         1.1723 
  85   0.0000       0.044366         1.2073 
  86   0.0000       0.056447         1.5360 
  87   0.0000       0.057629         1.5682 
  88   0.0000       0.061608         1.6764 
  89   0.0000       0.063929         1.7396 
  90   0.0000       0.064682         1.7601 
  91   0.0000       0.068820         1.8727 
  92   0.0000       0.073827         2.0089 
  93   0.0000       0.077713         2.1147 
  94   0.0000       0.082712         2.2507 
  95   0.0000       0.090085         2.4513 
  96   0.0000       0.091749         2.4966 
  97   0.0000       0.093993         2.5577 
  98   0.0000       0.097174         2.6442 
  99   0.0000       0.102300         2.7837 
 100   0.0000       0.104923         2.8551 
 101   0.0000       0.108127         2.9423 
 102   0.0000       0.117792         3.2053 
 103   0.0000       0.119980         3.2648 
 104   0.0000       0.123402         3.3579 
 105   0.0000       0.123544         3.3618 
 106   0.0000       0.125307         3.4098 
 107   0.0000       0.127003         3.4559 
 108   0.0000       0.130857         3.5608 
 109   0.0000       0.132785         3.6133 
 110   0.0000       0.135293         3.6815 
 111   0.0000       0.138204         3.7607 
 112   0.0000       0.141947         3.8626 
 113   0.0000       0.145627         3.9627 
 114   0.0000       0.147879         4.0240 
 115   0.0000       0.150869         4.1054 
 116   0.0000       0.156777         4.2661 
 117   0.0000       0.161403         4.3920 
 118   0.0000       0.162524         4.4225 
 119   0.0000       0.164075         4.4647 
 120   0.0000       0.168706         4.5907 
 121   0.0000       0.169716         4.6182 
 122   0.0000       0.174360         4.7446 
 123   0.0000       0.180394         4.9088 
 124   0.0000       0.182844         4.9754 
 125   0.0000       0.184294         5.0149 
 126   0.0000       0.186395         5.0721 
 127   0.0000       0.190348         5.1796 
 128   0.0000       0.192777         5.2457 
 129   0.0000       0.196094         5.3360 
 130   0.0000       0.197651         5.3784 
 131   0.0000       0.200277         5.4498 
 132   0.0000       0.203330         5.5329 
 133   0.0000       0.206464         5.6182 
 134   0.0000       0.210656         5.7322 
 135   0.0000       0.215270         5.8578 
 136   0.0000       0.216653         5.8954 
 137   0.0000       0.224168         6.0999 
 138   0.0000       0.225371         6.1327 
 139   0.0000       0.230995         6.2857 
 140   0.0000       0.233393         6.3509 
 141   0.0000       0.234531         6.3819 
 142   0.0000       0.237516         6.4631 
 143   0.0000       0.241078         6.5601 
 144   0.0000       0.242122         6.5885 
 145   0.0000       0.245175         6.6715 
 146   0.0000       0.252685         6.8759 
 147   0.0000       0.254069         6.9136 
 148   0.0000       0.256922         6.9912 
 149   0.0000       0.259317         7.0564 
 150   0.0000       0.260886         7.0991 
 151   0.0000       0.266311         7.2467 
 152   0.0000       0.273501         7.4423 
 153   0.0000       0.277836         7.5603 
 154   0.0000       0.280178         7.6240 
 155   0.0000       0.286404         7.7935 
 156   0.0000       0.289601         7.8805 
 157   0.0000       0.292074         7.9477 
 158   0.0000       0.296105         8.0574 
 159   0.0000       0.306384         8.3371 
 160   0.0000       0.307987         8.3807 
 161   0.0000       0.308712         8.4005 
 162   0.0000       0.316635         8.6161 
 163   0.0000       0.318300         8.6614 
 164   0.0000       0.323077         8.7914 
 165   0.0000       0.329088         8.9549 
 166   0.0000       0.332250         9.0410 
 167   0.0000       0.335805         9.1377 
 168   0.0000       0.337411         9.1814 
 169   0.0000       0.341294         9.2871 
 170   0.0000       0.345023         9.3886 
 171   0.0000       0.352710         9.5977 
 172   0.0000       0.354370         9.6429 
 173   0.0000       0.357431         9.7262 
 174   0.0000       0.357920         9.7395 
 175   0.0000       0.364577         9.9206 
 176   0.0000       0.367091         9.9891 
 177   0.0000       0.372520        10.1368 
 178   0.0000       0.374099        10.1798 
 179   0.0000       0.375676        10.2227 
 180   0.0000       0.377076        10.2607 
 181   0.0000       0.379448        10.3253 
 182   0.0000       0.381549        10.3825 
 183   0.0000       0.382694        10.4136 
 184   0.0000       0.390239        10.6190 
 185   0.0000       0.392806        10.6888 
 186   0.0000       0.395561        10.7638 
 187   0.0000       0.398416        10.8415 
 188   0.0000       0.402414        10.9503 
 189   0.0000       0.402977        10.9656 
 190   0.0000       0.406444        11.0599 
 191   0.0000       0.411581        11.1997 
 192   0.0000       0.412598        11.2274 
 193   0.0000       0.420403        11.4397 
 194   0.0000       0.421156        11.4603 
 195   0.0000       0.432257        11.7623 
 196   0.0000       0.434053        11.8112 
 197   0.0000       0.437572        11.9069 
 198   0.0000       0.438547        11.9335 
 199   0.0000       0.443348        12.0641 
 200   0.0000       0.448760        12.2114 
 201   0.0000       0.449852        12.2411 
 202   0.0000       0.455316        12.3898 
 203   0.0000       0.456901        12.4329 
 204   0.0000       0.459270        12.4974 
 205   0.0000       0.462390        12.5823 
 206   0.0000       0.464359        12.6359 
 207   0.0000       0.472483        12.8569 
 208   0.0000       0.477767        13.0007 
 209   0.0000       0.478735        13.0270 
 210   0.0000       0.482941        13.1415 
 211   0.0000       0.487012        13.2523 
 212   0.0000       0.491739        13.3809 
 213   0.0000       0.492908        13.4127 
 214   0.0000       0.496914        13.5217 
 215   0.0000       0.500075        13.6077 
 216   0.0000       0.503739        13.7074 
 217   0.0000       0.508188        13.8285 
 218   0.0000       0.509486        13.8638 
 219   0.0000       0.512669        13.9504 
 220   0.0000       0.513812        13.9815 
 221   0.0000       0.519595        14.1389 
 222   0.0000       0.521876        14.2010 
 223   0.0000       0.523291        14.2395 
 224   0.0000       0.525949        14.3118 
 225   0.0000       0.529010        14.3951 
 226   0.0000       0.532716        14.4959 
 227   0.0000       0.533895        14.5280 
 228   0.0000       0.539038        14.6680 
 229   0.0000       0.542100        14.7513 
 230   0.0000       0.542472        14.7614 
 231   0.0000       0.547687        14.9033 
 232   0.0000       0.552648        15.0383 
 233   0.0000       0.556804        15.1514 
 234   0.0000       0.559271        15.2185 
 235   0.0000       0.565263        15.3816 
 236   0.0000       0.569356        15.4930 
 237   0.0000       0.571913        15.5625 
 238   0.0000       0.572864        15.5884 
 239   0.0000       0.577809        15.7230 
 240   0.0000       0.582500        15.8506 
 241   0.0000       0.586119        15.9491 
 242   0.0000       0.588953        16.0262 
 243   0.0000       0.589493        16.0409 
 244   0.0000       0.595527        16.2051 
 245   0.0000       0.600996        16.3539 
 246   0.0000       0.604924        16.4608 
 247   0.0000       0.608899        16.5690 
 248   0.0000       0.610160        16.6033 
 249   0.0000       0.614802        16.7296 
 250   0.0000       0.615533        16.7495 
 251   0.0000       0.622513        16.9394 
 252   0.0000       0.629785        17.1373 
 253   0.0000       0.630506        17.1569 
 254   0.0000       0.634478        17.2650 
 255   0.0000       0.638246        17.3676 
 256   0.0000       0.640058        17.4169 
 257   0.0000       0.645984        17.5781 
 258   0.0000       0.648872        17.6567 
 259   0.0000       0.651688        17.7333 
 260   0.0000       0.657629        17.8950 
 261   0.0000       0.661891        18.0110 
 262   0.0000       0.664402        18.0793 
 263   0.0000       0.671595        18.2750 
 264   0.0000       0.672319        18.2947 
 265   0.0000       0.674745        18.3607 
 266   0.0000       0.680465        18.5164 
 267   0.0000       0.686137        18.6707 
 268   0.0000       0.691247        18.8098 
 269   0.0000       0.695305        18.9202 
 270   0.0000       0.697851        18.9895 
 271   0.0000       0.700912        19.0728 
 272   0.0000       0.707876        19.2623 
 273   0.0000       0.710403        19.3310 
 274   0.0000       0.714949        19.4547 
 275   0.0000       0.718886        19.5619 
 276   0.0000       0.723518        19.6879 
 277   0.0000       0.730618        19.8811 
 278   0.0000       0.733293        19.9539 
 279   0.0000       0.735266        20.0076 
 280   0.0000       0.743242        20.2246 
 281   0.0000       0.746391        20.3103 
 282   0.0000       0.753614        20.5069 
 283   0.0000       0.759640        20.6709 
 284   0.0000       0.763368        20.7723 
 285   0.0000       0.774227        21.0678 
 286   0.0000       0.776556        21.1312 
 287   0.0000       0.781450        21.2643 
 288   0.0000       0.790889        21.5212 
 289   0.0000       0.796908        21.6850 
 290   0.0000       0.808100        21.9895 
 291   0.0000       0.811296        22.0765 
 292   0.0000       0.816321        22.2132 
 293   0.0000       0.820288        22.3212 
 294   0.0000       0.827644        22.5213 
 295   0.0000       0.833253        22.6740 
 296   0.0000       0.838293        22.8111 
 297   0.0000       0.843115        22.9423 
 298   0.0000       0.850788        23.1511 
 299   0.0000       0.855601        23.2821 
 300   0.0000       0.858795        23.3690 
 301   0.0000       0.861262        23.4361 
 302   0.0000       0.865030        23.5387 
 303   0.0000       0.873595        23.7717 
 304   0.0000       0.877451        23.8766 
 305   0.0000       0.879996        23.9459 
 306   0.0000       0.883357        24.0374 
 307   0.0000       0.888141        24.1676 
 308   0.0000       0.893639        24.3171 
 309   0.0000       0.904408        24.6102 
 310   0.0000       0.906691        24.6723 
 311   0.0000       0.910697        24.7813 
 312   0.0000       0.911563        24.8049 
 313   0.0000       0.913703        24.8631 
 314   0.0000       0.919041        25.0084 
 315   0.0000       0.925372        25.1807 
 316   0.0000       0.927790        25.2464 
 317   0.0000       0.929681        25.2979 
 318   0.0000       0.939232        25.5578 
 319   0.0000       0.939683        25.5701 
 320   0.0000       0.943555        25.6754 
 321   0.0000       0.945175        25.7195 
 322   0.0000       0.947324        25.7780 
 323   0.0000       0.951775        25.8991 
 324   0.0000       0.954586        25.9756 
 325   0.0000       0.956749        26.0345 
 326   0.0000       0.961782        26.1714 
 327   0.0000       0.967352        26.3230 
 328   0.0000       0.970178        26.3999 
 329   0.0000       0.971762        26.4430 
 330   0.0000       0.973459        26.4892 
 331   0.0000       0.979026        26.6406 
 332   0.0000       0.982519        26.7357 
 333   0.0000       0.985040        26.8043 
 334   0.0000       0.990084        26.9416 
 335   0.0000       0.996568        27.1180 
 336   0.0000       1.001062        27.2403 
 337   0.0000       1.004615        27.3370 
 338   0.0000       1.006749        27.3950 
 339   0.0000       1.008740        27.4492 
 340   0.0000       1.012029        27.5387 
 341   0.0000       1.015923        27.6447 
 342   0.0000       1.019052        27.7298 
 343   0.0000       1.024206        27.8701 
 344   0.0000       1.026926        27.9441 
 345   0.0000       1.029856        28.0238 
 346   0.0000       1.034861        28.1600 
 347   0.0000       1.037443        28.2303 
 348   0.0000       1.043848        28.4045 
 349   0.0000       1.045976        28.4625 
 350   0.0000       1.049786        28.5661 
 351   0.0000       1.051189        28.6043 
 352   0.0000       1.055235        28.7144 
 353   0.0000       1.061405        28.8823 
 354   0.0000       1.065271        28.9875 
 355   0.0000       1.069070        29.0909 
 356   0.0000       1.070609        29.1328 
 357   0.0000       1.078671        29.3521 
 358   0.0000       1.081908        29.4402 
 359   0.0000       1.085074        29.5264 
 360   0.0000       1.086996        29.5787 
 361   0.0000       1.090265        29.6676 
 362   0.0000       1.094784        29.7906 
 363   0.0000       1.101116        29.9629 
 364   0.0000       1.101663        29.9778 
 365   0.0000       1.104173        30.0461 
 366   0.0000       1.111447        30.2440 
 367   0.0000       1.115273        30.3481 
 368   0.0000       1.120379        30.4871 
 369   0.0000       1.122135        30.5348 
 370   0.0000       1.129647        30.7393 
 371   0.0000       1.132703        30.8224 
 372   0.0000       1.138535        30.9811 
 373   0.0000       1.141731        31.0681 
 374   0.0000       1.143978        31.1292 
 375   0.0000       1.148753        31.2592 
 376   0.0000       1.150469        31.3059 
 377   0.0000       1.158185        31.5158 
 378   0.0000       1.165783        31.7226 
 379   0.0000       1.170878        31.8612 
 380   0.0000       1.173548        31.9339 
 381   0.0000       1.174263        31.9533 
 382   0.0000       1.179701        32.1013 
 383   0.0000       1.185937        32.2710 
 384   0.0000       1.190414        32.3928 
 385   0.0000       1.196760        32.5655 
 386   0.0000       1.200217        32.6596 
 387   0.0000       1.204551        32.7775 
 388   0.0000       1.207167        32.8487 
 389   0.0000       1.211733        32.9729 
 390   0.0000       1.218080        33.1456 
 391   0.0000       1.226037        33.3622 
 392   0.0000       1.229153        33.4470 
 393   0.0000       1.232330        33.5334 
 394   0.0000       1.236249        33.6400 
 395   0.0000       1.240694        33.7610 
 396   0.0000       1.247762        33.9533 
 397   0.0000       1.252778        34.0898 
 398   0.0000       1.254769        34.1440 
 399   0.0000       1.261934        34.3390 
 400   0.0000       1.265720        34.4420 
 401   0.0000       1.269277        34.5388 
 402   0.0000       1.274019        34.6678 
 403   0.0000       1.277486        34.7622 
 404   0.0000       1.283229        34.9184 
 405   0.0000       1.289948        35.1013 
 406   0.0000       1.293694        35.2032 
 407   0.0000       1.299736        35.3676 
 408   0.0000       1.301778        35.4232 
 409   0.0000       1.308388        35.6030 
 410   0.0000       1.311688        35.6929 
 411   0.0000       1.312763        35.7221 
 412   0.0000       1.315123        35.7863 
 413   0.0000       1.322380        35.9838 
 414   0.0000       1.331862        36.2418 
 415   0.0000       1.336229        36.3607 
 416   0.0000       1.339935        36.4615 
 417   0.0000       1.348185        36.6860 
 418   0.0000       1.350747        36.7557 
 419   0.0000       1.360545        37.0223 
 420   0.0000       1.363416        37.1004 
 421   0.0000       1.371503        37.3205 
 422   0.0000       1.376099        37.4456 
 423   0.0000       1.379122        37.5278 
 424   0.0000       1.381634        37.5962 
 425   0.0000       1.383162        37.6378 
 426   0.0000       1.392055        37.8797 
 427   0.0000       1.393479        37.9185 
 428   0.0000       1.401301        38.1313 
 429   0.0000       1.405472        38.2448 
 430   0.0000       1.413984        38.4764 
 431   0.0000       1.421868        38.6910 
 432   0.0000       1.427182        38.8356 
 433   0.0000       1.431862        38.9629 
 434   0.0000       1.440561        39.1997 
 435   0.0000       1.445507        39.3342 
 436   0.0000       1.451921        39.5088 
 437   0.0000       1.454351        39.5749 
 438   0.0000       1.461602        39.7722 
 439   0.0000       1.464420        39.8489 
 440   0.0000       1.466250        39.8987 
 441   0.0000       1.469596        39.9898 
 442   0.0000       1.473076        40.0844 
 443   0.0000       1.480617        40.2896 
 444   0.0000       1.486061        40.4378 
 445   0.0000       1.487550        40.4783 
 446   0.0000       1.490225        40.5511 
 447   0.0000       1.497776        40.7566 
 448   0.0000       1.499860        40.8133 
 449   0.0000       1.505620        40.9700 
 450   0.0000       1.515773        41.2463 
 451   0.0000       1.519576        41.3498 
 452   0.0000       1.528256        41.5860 
 453   0.0000       1.534615        41.7590 
 454   0.0000       1.537801        41.8457 
 455   0.0000       1.540303        41.9138 
 456   0.0000       1.545845        42.0646 
 457   0.0000       1.554450        42.2987 
 458   0.0000       1.560832        42.4724 
 459   0.0000       1.563763        42.5521 
 460   0.0000       1.568348        42.6769 
 461   0.0000       1.574940        42.8563 
 462   0.0000       1.581319        43.0299 
 463   0.0000       1.588684        43.2303 
 464   0.0000       1.589764        43.2597 
 465   0.0000       1.594239        43.3815 
 466   0.0000       1.602881        43.6166 
 467   0.0000       1.607031        43.7295 
 468   0.0000       1.613766        43.9128 
 469   0.0000       1.620823        44.1048 
 470   0.0000       1.623897        44.1885 
 471   0.0000       1.633989        44.4631 
 472   0.0000       1.635374        44.5008 
 473   0.0000       1.644221        44.7415 
 474   0.0000       1.647258        44.8242 
 475   0.0000       1.650660        44.9167 
 476   0.0000       1.661140        45.2019 
 477   0.0000       1.662136        45.2290 
 478   0.0000       1.668942        45.4142 
 479   0.0000       1.677283        45.6412 
 480   0.0000       1.680577        45.7308 
 481   0.0000       1.691431        46.0262 
 482   0.0000       1.694313        46.1046 
 483   0.0000       1.699079        46.2343 
 484   0.0000       1.702777        46.3349 
 485   0.0000       1.705510        46.4093 
 486   0.0000       1.710837        46.5542 
 487   0.0000       1.719903        46.8009 
 488   0.0000       1.722019        46.8585 
 489   0.0000       1.728283        47.0290 
 490   0.0000       1.732325        47.1390 
 491   0.0000       1.734006        47.1847 
 492   0.0000       1.746688        47.5298 
 493   0.0000       1.749542        47.6075 
 494   0.0000       1.759685        47.8835 
 495   0.0000       1.760473        47.9049 
 496   0.0000       1.762411        47.9576 
 497   0.0000       1.765028        48.0289 
 498   0.0000       1.771937        48.2168 
 499   0.0000       1.778720        48.4014 
 500   0.0000       1.785583        48.5882 
 501   0.0000       1.791748        48.7559 
 502   0.0000       1.795920        48.8695 
 503   0.0000       1.798824        48.9485 
 504   0.0000       1.805691        49.1353 
 505   0.0000       1.812248        49.3138 
 506   0.0000       1.816865        49.4394 
 507   0.0000       1.819730        49.5174 
 508   0.0000       1.825184        49.6658 
 509   0.0000       1.827705        49.7344 
 510   0.0000       1.833075        49.8805 
 511   0.0000       1.837446        49.9994 
 512   0.0000       1.843083        50.1528 
 513   0.0000       1.846142        50.2361 
 514   0.0000       1.856191        50.5095 
 515   0.0000       1.859685        50.6046 
 516   0.0000       1.867566        50.8191 
 517   0.0000       1.871599        50.9288 
 518   0.0000       1.875745        51.0416 
 519   0.0000       1.880375        51.1676 
 520   0.0000       1.889422        51.4138 
 521   0.0000       1.897828        51.6425 
 522   0.0000       1.903947        51.8090 
 523   0.0000       1.906707        51.8841 
 524   0.0000       1.909918        51.9715 
 525   0.0000       1.918585        52.2074 
 526   0.0000       1.921988        52.3000 
 527   0.0000       1.925019        52.3824 
 528   0.0000       1.932008        52.5726 
 529   0.0000       1.934682        52.6454 
 530   0.0000       1.936310        52.6897 
 531   0.0000       1.944625        52.9159 
 532   0.0000       1.950315        53.0708 
 533   0.0000       1.954931        53.1964 
 534   0.0000       1.961176        53.3663 
 535   0.0000       1.965102        53.4731 
 536   0.0000       1.972176        53.6656 
 537   0.0000       1.981898        53.9302 
 538   0.0000       1.991824        54.2003 
 539   0.0000       1.993949        54.2581 
 540   0.0000       2.001473        54.4628 
 541   0.0000       2.005959        54.5849 
 542   0.0000       2.006428        54.5977 
 543   0.0000       2.022935        55.0469 
 544   0.0000       2.024018        55.0763 
 545   0.0000       2.029820        55.2342 
 546   0.0000       2.034635        55.3652 
 547   0.0000       2.047806        55.7236 
 548   0.0000       2.050755        55.8039 
 549   0.0000       2.056490        55.9599 
 550   0.0000       2.061641        56.1001 
 551   0.0000       2.067925        56.2711 
 552   0.0000       2.082457        56.6665 
 553   0.0000       2.085071        56.7377 
 554   0.0000       2.089312        56.8531 
 555   0.0000       2.095965        57.0341 
 556   0.0000       2.105974        57.3065 
 557   0.0000       2.108285        57.3694 
 558   0.0000       2.114236        57.5313 
 559   0.0000       2.127385        57.8891 
 560   0.0000       2.130880        57.9842 
 561   0.0000       2.142401        58.2977 
 562   0.0000       2.146048        58.3969 
 563   0.0000       2.146721        58.4152 
 564   0.0000       2.155338        58.6497 
 565   0.0000       2.162003        58.8311 
 566   0.0000       2.169829        59.0441 
 567   0.0000       2.177762        59.2599 
 568   0.0000       2.187127        59.5148 
 569   0.0000       2.194910        59.7265 
 570   0.0000       2.199151        59.8419 
 571   0.0000       2.202908        59.9442 
 572   0.0000       2.214308        60.2544 
 573   0.0000       2.220888        60.4334 
 574   0.0000       2.229770        60.6751 
 575   0.0000       2.231849        60.7317 
 576   0.0000       2.240993        60.9805 
 577   0.0000       2.246750        61.1372 
 578   0.0000       2.249300        61.2066 
 579   0.0000       2.260502        61.5114 
 580   0.0000       2.266570        61.6765 
 581   0.0000       2.270220        61.7758 
 582   0.0000       2.284339        62.1600 
 583   0.0000       2.293997        62.4228 
 584   0.0000       2.305134        62.7259 
 585   0.0000       2.307270        62.7840 
 586   0.0000       2.314840        62.9900 
 587   0.0000       2.325591        63.2826 
 588   0.0000       2.328512        63.3620 
 589   0.0000       2.341418        63.7132 
 590   0.0000       2.348318        63.9010 
 591   0.0000       2.355178        64.0877 
 592   0.0000       2.364951        64.3536 
 593   0.0000       2.373287        64.5804 
 594   0.0000       2.380602        64.7795 
 595   0.0000       2.387425        64.9651 
 596   0.0000       2.390172        65.0399 
 597   0.0000       2.395722        65.1909 
 598   0.0000       2.400363        65.3172 
 599   0.0000       2.405416        65.4547 
 600   0.0000       2.418262        65.8043 
 601   0.0000       2.431771        66.1719 
 602   0.0000       2.433779        66.2265 
 603   0.0000       2.441084        66.4253 
 604   0.0000       2.451391        66.7057 
 605   0.0000       2.465895        67.1004 
 606   0.0000       2.483801        67.5877 
 607   0.0000       2.489516        67.7432 
 608   0.0000       2.497555        67.9619 
 609   0.0000       2.504083        68.1396 
 610   0.0000       2.515632        68.4538 
 611   0.0000       2.529012        68.8179 
 612   0.0000       2.534565        68.9690 
 613   0.0000       2.552978        69.4701 
 614   0.0000       2.563922        69.7679 
 615   0.0000       2.575001        70.0693 
 616   0.0000       2.585479        70.3545 
 617   0.0000       2.588563        70.4384 
 618   0.0000       2.621193        71.3263 
 619   0.0000       2.633176        71.6524 
 620   0.0000       2.641317        71.8739 
 621   0.0000       2.649010        72.0832 
 622   0.0000       2.654885        72.2431 
 623   0.0000       2.669000        72.6272 
 624   0.0000       2.676459        72.8301 
 625   0.0000       2.680138        72.9303 
 626   0.0000       2.687175        73.1218 
 627   0.0000       2.696984        73.3887 
 628   0.0000       2.708159        73.6928 
 629   0.0000       2.712770        73.8182 
 630   0.0000       2.717282        73.9410 
 631   0.0000       2.736578        74.4661 
 632   0.0000       2.743781        74.6621 
 633   0.0000       2.754187        74.9452 
 634   0.0000       2.759063        75.0779 
 635   0.0000       2.771338        75.4119 
 636   0.0000       2.776600        75.5551 
 637   0.0000       2.779801        75.6422 
 638   0.0000       2.792509        75.9880 
 639   0.0000       2.813604        76.5621 
 640   0.0000       2.822982        76.8173 
 641   0.0000       2.837193        77.2039 
 642   0.0000       2.843689        77.3807 
 643   0.0000       2.854971        77.6877 
 644   0.0000       2.872081        78.1533 
 645   0.0000       2.890053        78.6424 
 646   0.0000       2.892673        78.7136 
 647   0.0000       2.898162        78.8630 
 648   0.0000       2.912316        79.2482 
 649   0.0000       2.922920        79.5367 
 650   0.0000       2.936155        79.8968 
 651   0.0000       2.951446        80.3129 
 652   0.0000       2.966559        80.7242 
 653   0.0000       2.973973        80.9259 
 654   0.0000       2.998711        81.5991 
 655   0.0000       3.009105        81.8819 
 656   0.0000       3.026767        82.3625 
 657   0.0000       3.045423        82.8702 
 658   0.0000       3.062919        83.3463 
 659   0.0000       3.071871        83.5899 
 660   0.0000       3.079553        83.7989 
 661   0.0000       3.102306        84.4180 
 662   0.0000       3.112986        84.7087 
 663   0.0000       3.121829        84.9493 
 664   0.0000       3.133848        85.2763 
 665   0.0000       3.151968        85.7694 
 666   0.0000       3.169221        86.2389 
 667   0.0000       3.174585        86.3849 
 668   0.0000       3.196651        86.9853 
 669   0.0000       3.199118        87.0524 
 670   0.0000       3.210711        87.3679 
 671   0.0000       3.217798        87.5607 
 672   0.0000       3.222844        87.6980 
 673   0.0000       3.243155        88.2507 
 674   0.0000       3.248391        88.3932 
 675   0.0000       3.254144        88.5498 
 676   0.0000       3.264640        88.8354 
 677   0.0000       3.268719        88.9464 
 678   0.0000       3.275122        89.1206 
 679   0.0000       3.286548        89.4315 
 680   0.0000       3.288231        89.4773 
 681   0.0000       3.309305        90.0508 
 682   0.0000       3.330230        90.6202 
 683   0.0000       3.331322        90.6499 
 684   0.0000       3.331561        90.6564 
 685   0.0000       3.349692        91.1497 
 686   0.0000       3.360384        91.4407 
 687   0.0000       3.380493        91.9879 
 688   0.0000       3.386177        92.1426 
 689   0.0000       3.398205        92.4699 
 690   0.0000       3.412708        92.8645 
 691   0.0000       3.418733        93.0285 
 692   0.0000       3.426890        93.2504 
 693   0.0000       3.433944        93.4424 
 694   0.0000       3.434853        93.4671 
 695   0.0000       3.449728        93.8719 
 696   0.0000       3.454671        94.0064 
 697   0.0000       3.464246        94.2669 
 698   0.0000       3.471593        94.4669 
 699   0.0000       3.478008        94.6414 
 700   0.0000       3.486103        94.8617 
 701   0.0000       3.492744        95.0424 
 702   0.0000       3.504006        95.3489 
 703   0.0000       3.508370        95.4676 
 704   0.0000       3.515664        95.6661 
 705   0.0000       3.526730        95.9672 
 706   0.0000       3.540516        96.3423 
 707   0.0000       3.544389        96.4477 
 708   0.0000       3.549676        96.5916 
 709   0.0000       3.560869        96.8962 
 710   0.0000       3.569479        97.1305 
 711   0.0000       3.578704        97.3815 
 712   0.0000       3.582905        97.4958 
 713   0.0000       3.585814        97.5750 
 714   0.0000       3.597557        97.8945 
 715   0.0000       3.608617        98.1955 
 716   0.0000       3.625621        98.6582 
 717   0.0000       3.632897        98.8562 
 718   0.0000       3.638589        99.0111 
 719   0.0000       3.644501        99.1719 
 720   0.0000       3.654688        99.4491 
 721   0.0000       3.667560        99.7994 
 722   0.0000       3.672462        99.9328 
 723   0.0000       3.678282       100.0911 
 724   0.0000       3.683589       100.2355 
 725   0.0000       3.695079       100.5482 
 726   0.0000       3.698756       100.6483 
 727   0.0000       3.705015       100.8186 
 728   0.0000       3.709057       100.9286 
 729   0.0000       3.725058       101.3640 
 730   0.0000       3.728099       101.4467 
 731   0.0000       3.735848       101.6576 
 732   0.0000       3.736774       101.6828 
 733   0.0000       3.742567       101.8404 
 734   0.0000       3.752759       102.1178 
 735   0.0000       3.763904       102.4210 
 736   0.0000       3.767186       102.5103 
 737   0.0000       3.780621       102.8759 
 738   0.0000       3.785376       103.0053 
 739   0.0000       3.787240       103.0561 
 740   0.0000       3.797506       103.3354 
 741   0.0000       3.798667       103.3670 
 742   0.0000       3.805690       103.5581 
 743   0.0000       3.817977       103.8924 
 744   0.0000       3.824225       104.0624 
 745   0.0000       3.832507       104.2878 
 746   0.0000       3.839909       104.4892 
 747   0.0000       3.855147       104.9039 
 748   0.0000       3.860534       105.0505 
 749   0.0000       3.866510       105.2131 
 750   0.0000       3.871246       105.3420 
 751   0.0000       3.882275       105.6421 
 752   0.0000       3.884120       105.6923 
 753   0.0000       3.893043       105.9351 
 754   0.0000       3.897531       106.0572 
 755   0.0000       3.906195       106.2930 
 756   0.0000       3.914027       106.5061 
 757   0.0000       3.918196       106.6195 
 758   0.0000       3.919928       106.6667 
 759   0.0000       3.934762       107.0703 
 760   0.0000       3.945369       107.3589 
 761   0.0000       3.951130       107.5157 
 762   0.0000       3.951288       107.5200 
 763   0.0000       3.961352       107.7939 
 764   0.0000       3.968542       107.9895 
 765   0.0000       3.973792       108.1324 
 766   0.0000       3.983102       108.3857 
 767   0.0000       3.991693       108.6195 
 768   0.0000       3.998705       108.8103 
 769   0.0000       4.003246       108.9339 
 770   0.0000       4.009039       109.0915 
 771   0.0000       4.013841       109.2222 
 772   0.0000       4.027629       109.5974 
 773   0.0000       4.036028       109.8259 
 774   0.0000       4.038387       109.8901 
 775   0.0000       4.050140       110.2099 
 776   0.0000       4.053906       110.3124 
 777   0.0000       4.060199       110.4836 
 778   0.0000       4.073101       110.8347 
 779   0.0000       4.078564       110.9834 
 780   0.0000       4.080960       111.0486 
 781   0.0000       4.094201       111.4089 
 782   0.0000       4.106483       111.7431 
 783   0.0000       4.109367       111.8216 
 784   0.0000       4.114799       111.9694 
 785   0.0000       4.122569       112.1808 
 786   0.0000       4.127277       112.3089 
 787   0.0000       4.138982       112.6274 
 788   0.0000       4.144504       112.7777 
 789   0.0000       4.157887       113.1419 
 790   0.0000       4.160607       113.2159 
 791   0.0000       4.172976       113.5524 
 792   0.0000       4.174992       113.6073 
 793   0.0000       4.183570       113.8407 
 794   0.0000       4.194298       114.1326 
 795   0.0000       4.208701       114.5246 
 796   0.0000       4.210577       114.5756 
 797   0.0000       4.220094       114.8346 
 798   0.0000       4.224004       114.9410 
 799   0.0000       4.233760       115.2065 
 800   0.0000       4.244516       115.4992 
 801   0.0000       4.252242       115.7094 
 802   0.0000       4.255127       115.7879 
 803   0.0000       4.268551       116.1532 
 804   0.0000       4.275737       116.3487 
 805   0.0000       4.290905       116.7615 
 806   0.0000       4.299784       117.0031 
 807   0.0000       4.310689       117.2998 
 808   0.0000       4.315653       117.4349 
 809   0.0000       4.330418       117.8367 
 810   0.0000       4.336553       118.0036 
 811   0.0000       4.344821       118.2286 
 812   0.0000       4.364810       118.7725 
 813   0.0000       4.370378       118.9240 
 814   0.0000       4.372213       118.9740 
 815   0.0000       4.386414       119.3604 
 816   0.0000       4.398589       119.6917 
 817   0.0000       4.413351       120.0934 
 818   0.0000       4.423854       120.3792 
 819   0.0000       4.429414       120.5305 
 820   0.0000       4.437792       120.7585 
 821   0.0000       4.444994       120.9544 
 822   0.0000       4.454556       121.2146 
 823   0.0000       4.459722       121.3552 
 824   0.0000       4.467499       121.5668 
 825   0.0000       4.479411       121.8910 
 826   0.0000       4.494499       122.3015 
 827   0.0000       4.501815       122.5006 
 828   0.0000       4.510498       122.7369 
 829   0.0000       4.518881       122.9650 
 830   0.0000       4.522715       123.0693 
 831   0.0000       4.533401       123.3601 
 832   0.0000       4.538654       123.5031 
 833   0.0000       4.543568       123.6368 
 834   0.0000       4.551309       123.8474 
 835   0.0000       4.568744       124.3218 
 836   0.0000       4.579728       124.6207 
 837   0.0000       4.594272       125.0165 
 838   0.0000       4.611844       125.4947 
 839   0.0000       4.619179       125.6943 
 840   0.0000       4.625526       125.8670 
 841   0.0000       4.645110       126.3999 
 842   0.0000       4.648885       126.5026 
 843   0.0000       4.666901       126.9928 
 844   0.0000       4.676904       127.2650 
 845   0.0000       4.683506       127.4447 
 846   0.0000       4.691067       127.6504 
 847   0.0000       4.696737       127.8047 
 848   0.0000       4.707472       128.0968 
 849   0.0000       4.721783       128.4862 
 850   0.0000       4.728519       128.6695 
 851   0.0000       4.741717       129.0287 
 852   0.0000       4.749401       129.2378 
 853   0.0000       4.775841       129.9572 
 854   0.0000       4.800818       130.6369 
 855   0.0000       4.805981       130.7774 
 856   0.0000       4.806762       130.7986 
 857   0.0000       4.822641       131.2307 
 858   0.0000       4.824309       131.2761 
 859   0.0000       4.845447       131.8513 
 860   0.0000       4.850597       131.9915 
 861   0.0000       4.873935       132.6265 
 862   0.0000       4.888272       133.0167 
 863   0.0000       4.890743       133.0839 
 864   0.0000       4.901411       133.3742 
 865   0.0000       4.905831       133.4945 
 866   0.0000       4.908485       133.5667 
 867   0.0000       4.931050       134.1807 
 868   0.0000       4.945568       134.5758 
 869   0.0000       4.956948       134.8854 
 870   0.0000       4.962208       135.0285 
 871   0.0000       4.970009       135.2408 
 872   0.0000       4.985349       135.6582 
 873   0.0000       4.991949       135.8378 
 874   0.0000       4.997527       135.9896 
 875   0.0000       5.016550       136.5073 
 876   0.0000       5.027532       136.8061 
 877   0.0000       5.035996       137.0364 
 878   0.0000       5.040952       137.1713 
 879   0.0000       5.055275       137.5610 
 880   0.0000       5.075840       138.1206 
 881   0.0000       5.092200       138.5658 
 882   0.0000       5.099053       138.7523 
 883   0.0000       5.110087       139.0525 
 884   0.0000       5.121498       139.3630 
 885   0.0000       5.145390       140.0132 
 886   0.0000       5.157181       140.3340 
 887   0.0000       5.172771       140.7583 
 888   0.0000       5.173832       140.7871 
 889   0.0000       5.193806       141.3307 
 890   0.0000       5.199892       141.4963 
 891   0.0000       5.213377       141.8632 
 892   0.0000       5.216889       141.9588 
 893   0.0000       5.237637       142.5234 
 894   0.0000       5.243495       142.6827 
 895   0.0000       5.263888       143.2377 
 896   0.0000       5.270122       143.4073 
 897   0.0000       5.280682       143.6947 
 898   0.0000       5.286105       143.8422 
 899   0.0000       5.302047       144.2760 
 900   0.0000       5.319437       144.7492 
 901   0.0000       5.336116       145.2031 
 902   0.0000       5.351230       145.6144 
 903   0.0000       5.356733       145.7641 
 904   0.0000       5.370764       146.1459 
 905   0.0000       5.386588       146.5765 
 906   0.0000       5.396808       146.8546 
 907   0.0000       5.421886       147.5370 
 908   0.0000       5.424607       147.6111 
 909   0.0000       5.431168       147.7896 
 910   0.0000       5.444097       148.1414 
 911   0.0000       5.453145       148.3876 
 912   0.0000       5.456947       148.4911 
 913   0.0000       5.483464       149.2126 
 914   0.0000       5.499757       149.6560 
 915   0.0000       5.502011       149.7173 
 916   0.0000       5.518725       150.1721 
 917   0.0000       5.537579       150.6852 
 918   0.0000       5.546046       150.9156 
 919   0.0000       5.556224       151.1925 
 920   0.0000       5.560751       151.3157 
 921   0.0000       5.578921       151.8102 
 922   0.0000       5.591153       152.1430 
 923   0.0000       5.614164       152.7692 
 924   0.0000       5.616239       152.8256 
 925   0.0000       5.626422       153.1027 
 926   0.0000       5.632510       153.2684 
 927   0.0000       5.645805       153.6302 
 928   0.0000       5.653631       153.8431 
 929   0.0000       5.667637       154.2242 
 930   0.0000       5.691352       154.8695 
 931   0.0000       5.702089       155.1617 
 932   0.0000       5.706809       155.2902 
 933   0.0000       5.724543       155.7727 
 934   0.0000       5.740275       156.2008 
 935   0.0000       5.741010       156.2208 
 936   0.0000       5.748776       156.4321 
 937   0.0000       5.761345       156.7742 
 938   0.0000       5.780498       157.2953 
 939   0.0000       5.794309       157.6712 
 940   0.0000       5.818555       158.3309 
 941   0.0000       5.861745       159.5062 
 942   0.0000       5.868419       159.6878 
 943   0.0000       5.895395       160.4219 
 944   0.0000       5.948942       161.8789 
 945   0.0000       5.961689       162.2258 
 946   0.0000       6.053831       164.7331 
 947   0.0000       6.069687       165.1646 
 948   0.0000       6.088859       165.6863 
 949   0.0000       6.093657       165.8168 
 950   0.0000       6.140675       167.0963 
 951   0.0000       6.152223       167.4105 
 952   0.0000       6.177437       168.0966 
 953   0.0000       6.189638       168.4286 
 954   0.0000       6.201411       168.7490 
 955   0.0000       6.216110       169.1489 
 956   0.0000       6.234697       169.6547 
 957   0.0000       6.247325       169.9983 
 958   0.0000       6.248374       170.0269 
 959   0.0000       6.270485       170.6286 
 960   0.0000       6.282990       170.9689 
 961   0.0000       6.298268       171.3846 
 962   0.0000       6.315943       171.8655 
 963   0.0000       6.324910       172.1096 
 964   0.0000       6.336872       172.4351 
 965   0.0000       6.350860       172.8157 
 966   0.0000       6.380448       173.6208 
 967   0.0000       6.396622       174.0609 
 968   0.0000       6.451260       175.5477 
 969   0.0000       6.519694       177.4099 
 970   0.0000       6.580154       179.0551 
 971   0.0000       6.628046       180.3583 
 972   0.0000       6.790017       184.7658 
 973   0.0000       6.818353       185.5368 
 974   0.0000       6.835209       185.9955 
 975   0.0000       6.867325       186.8694 
 976   0.0000       6.897466       187.6896 
 977   0.0000       6.919315       188.2841 
 978   0.0000       6.937683       188.7839 
 979   0.0000       6.963280       189.4805 
 980   0.0000       6.979405       189.9193 
 981   0.0000       6.998161       190.4296 
 982   0.0000       7.021506       191.0649 
 983   0.0000       7.035781       191.4533 
 984   0.0000       7.060600       192.1287 
 985   0.0000       7.099082       193.1758 
 986   0.0000       7.212446       196.2606 
 987   0.0000       7.250737       197.3026 
 988   0.0000       7.303743       198.7449 
 989   0.0000       7.341347       199.7682 
 990   0.0000       7.488613       203.7755 
 991   0.0000       7.547133       205.3679 
 992   0.0000       7.583145       206.3479 
 993   0.0000       7.682257       209.0448 
 994   0.0000       7.733086       210.4280 
 995   0.0000       7.816777       212.7053 
 996   0.0000       7.881266       214.4602 
 997   0.0000       7.969552       216.8625 
 998   0.0000       8.232232       224.0104 
 999   0.0000       9.394572       255.6393 
 1000   0.0000       9.399285       255.7675 
 1001   0.0000       9.425733       256.4872 
 1002   0.0000       9.440132       256.8791 
 1003   0.0000       9.446294       257.0467 
 1004   0.0000       9.474792       257.8222 
 1005   0.0000       9.629923       262.0435 
 1006   0.0000      10.069832       274.0141 
 1007   0.0000      10.081789       274.3394 
 1008   0.0000      10.094062       274.6734 
 1009   0.0000      10.184255       277.1277 
 1010   0.0000      10.199942       277.5545 
 1011   0.0000      10.233973       278.4806 
 1012   0.0000      10.246695       278.8267 
 1013   0.0000      10.331805       281.1427 
 1014   0.0000      10.372770       282.2574 
 1015   0.0000      10.526056       286.4285 
 1016   0.0000      16.443773       447.4578 
 1017   0.0000      17.429911       474.2920 
 1018   0.0000      18.029689       490.6128 
 1019   0.0000      18.343868       499.1620 
 1020   0.0000      18.483102       502.9508 
 1021   0.0000      18.565016       505.1798 
 1022   0.0000      20.351563       553.7942 
 1023   0.0000      21.272382       578.8510 
 1024   0.0000      21.549813       586.4002 

                 SPIN DOWN ORBITALS
  NO   OCC          E(Eh)            E(eV) 
   0   1.0000    -261.574016     -7117.7908 
   1   1.0000    -104.793760     -2851.5832 
   2   1.0000    -104.790457     -2851.4933 
   3   1.0000    -104.788333     -2851.4355 
   4   1.0000     -32.083308      -873.0312 
   5   1.0000     -27.561253      -749.9798 
   6   1.0000     -27.561134      -749.9766 
   7   1.0000     -27.561050      -749.9743 
   8   1.0000     -20.622302      -561.1614 
   9   1.0000     -11.422089      -310.8109 
  10   1.0000     -11.278885      -306.9141 
  11   1.0000     -11.273489      -306.7672 
  12   1.0000     -11.261790      -306.4489 
  13   1.0000     -11.241475      -305.8961 
  14   1.0000     -11.240672      -305.8742 
  15   1.0000     -11.234813      -305.7148 
  16   1.0000     -11.227209      -305.5079 
  17   1.0000     -10.520393      -286.2744 
  18   1.0000     -10.517049      -286.1835 
  19   1.0000     -10.514884      -286.1245 
  20   1.0000      -7.986320      -217.3188 
  21   1.0000      -7.985558      -217.2981 
  22   1.0000      -7.985522      -217.2971 
  23   1.0000      -7.982928      -217.2265 
  24   1.0000      -7.982237      -217.2077 
  25   1.0000      -7.982145      -217.2052 
  26   1.0000      -7.980879      -217.1708 
  27   1.0000      -7.979964      -217.1459 
  28   1.0000      -7.979882      -217.1436 
  29   1.0000      -4.158055      -113.1464 
  30   1.0000      -2.679593       -72.9154 
  31   1.0000      -2.679564       -72.9146 
  32   1.0000      -2.679134       -72.9029 
  33   1.0000      -1.460615       -39.7453 
  34   1.0000      -1.121665       -30.5221 
  35   1.0000      -1.100120       -29.9358 
  36   1.0000      -1.052781       -28.6476 
  37   1.0000      -1.040165       -28.3043 
  38   1.0000      -1.036809       -28.2130 
  39   1.0000      -1.020285       -27.7634 
  40   1.0000      -1.008887       -27.4532 
  41   1.0000      -0.955401       -25.9978 
  42   1.0000      -0.893190       -24.3049 
  43   1.0000      -0.829083       -22.5605 
  44   1.0000      -0.726078       -19.7576 
  45   1.0000      -0.716714       -19.5028 
  46   1.0000      -0.704072       -19.1588 
  47   1.0000      -0.683670       -18.6036 
  48   1.0000      -0.651793       -17.7362 
  49   1.0000      -0.620741       -16.8912 
  50   1.0000      -0.618079       -16.8188 
  51   1.0000      -0.604473       -16.4485 
  52   1.0000      -0.599784       -16.3210 
  53   1.0000      -0.585954       -15.9446 
  54   1.0000      -0.578330       -15.7372 
  55   1.0000      -0.560298       -15.2465 
  56   1.0000      -0.548969       -14.9382 
  57   1.0000      -0.544538       -14.8176 
  58   1.0000      -0.537695       -14.6314 
  59   1.0000      -0.527135       -14.3441 
  60   1.0000      -0.523144       -14.2355 
  61   1.0000      -0.507685       -13.8148 
  62   1.0000      -0.489838       -13.3292 
  63   1.0000      -0.486531       -13.2392 
  64   1.0000      -0.484064       -13.1720 
  65   1.0000      -0.455404       -12.3922 
  66   1.0000      -0.452146       -12.3035 
  67   1.0000      -0.449090       -12.2204 
  68   1.0000      -0.432710       -11.7746 
  69   1.0000      -0.430534       -11.7154 
  70   1.0000      -0.414510       -11.2794 
  71   1.0000      -0.356848        -9.7103 
  72   0.0000       0.012653         0.3443 
  73   0.0000       0.023800         0.6476 
  74   0.0000       0.024528         0.6675 
  75   0.0000       0.030744         0.8366 
  76   0.0000       0.039315         1.0698 
  77   0.0000       0.041217         1.1216 
  78   0.0000       0.042659         1.1608 
  79   0.0000       0.043050         1.1715 
  80   0.0000       0.044212         1.2031 
  81   0.0000       0.054266         1.4766 
  82   0.0000       0.056631         1.5410 
  83   0.0000       0.061424         1.6714 
  84   0.0000       0.062717         1.7066 
  85   0.0000       0.064237         1.7480 
  86   0.0000       0.064854         1.7648 
  87   0.0000       0.071362         1.9419 
  88   0.0000       0.077389         2.1059 
  89   0.0000       0.082422         2.2428 
  90   0.0000       0.089337         2.4310 
  91   0.0000       0.091145         2.4802 
  92   0.0000       0.093477         2.5436 
  93   0.0000       0.095336         2.5942 
  94   0.0000       0.100156         2.7254 
  95   0.0000       0.102845         2.7986 
  96   0.0000       0.103922         2.8279 
  97   0.0000       0.105398         2.8680 
  98   0.0000       0.106247         2.8911 
  99   0.0000       0.108223         2.9449 
 100   0.0000       0.110755         3.0138 
 101   0.0000       0.115288         3.1371 
 102   0.0000       0.120058         3.2669 
 103   0.0000       0.121784         3.3139 
 104   0.0000       0.123981         3.3737 
 105   0.0000       0.125671         3.4197 
 106   0.0000       0.126396         3.4394 
 107   0.0000       0.129212         3.5160 
 108   0.0000       0.131924         3.5898 
 109   0.0000       0.133656         3.6370 
 110   0.0000       0.137166         3.7325 
 111   0.0000       0.138846         3.7782 
 112   0.0000       0.144091         3.9209 
 113   0.0000       0.146564         3.9882 
 114   0.0000       0.149995         4.0816 
 115   0.0000       0.151723         4.1286 
 116   0.0000       0.157294         4.2802 
 117   0.0000       0.162247         4.4150 
 118   0.0000       0.162743         4.4285 
 119   0.0000       0.167084         4.5466 
 120   0.0000       0.170363         4.6358 
 121   0.0000       0.171517         4.6672 
 122   0.0000       0.175542         4.7767 
 123   0.0000       0.180964         4.9243 
 124   0.0000       0.183283         4.9874 
 125   0.0000       0.186750         5.0817 
 126   0.0000       0.186985         5.0881 
 127   0.0000       0.191681         5.2159 
 128   0.0000       0.196553         5.3485 
 129   0.0000       0.198283         5.3956 
 130   0.0000       0.198891         5.4121 
 131   0.0000       0.202002         5.4968 
 132   0.0000       0.205163         5.5828 
 133   0.0000       0.208905         5.6846 
 134   0.0000       0.214895         5.8476 
 135   0.0000       0.217771         5.9259 
 136   0.0000       0.223971         6.0946 
 137   0.0000       0.227387         6.1875 
 138   0.0000       0.228360         6.2140 
 139   0.0000       0.233565         6.3556 
 140   0.0000       0.236007         6.4221 
 141   0.0000       0.239467         6.5162 
 142   0.0000       0.241120         6.5612 
 143   0.0000       0.246293         6.7020 
 144   0.0000       0.249932         6.8010 
 145   0.0000       0.251856         6.8533 
 146   0.0000       0.254186         6.9168 
 147   0.0000       0.259066         7.0495 
 148   0.0000       0.260069         7.0768 
 149   0.0000       0.266466         7.2509 
 150   0.0000       0.270015         7.3475 
 151   0.0000       0.273005         7.4288 
 152   0.0000       0.278455         7.5771 
 153   0.0000       0.282141         7.6774 
 154   0.0000       0.284805         7.7499 
 155   0.0000       0.291730         7.9384 
 156   0.0000       0.293722         7.9926 
 157   0.0000       0.296193         8.0598 
 158   0.0000       0.299205         8.1418 
 159   0.0000       0.308244         8.3877 
 160   0.0000       0.309671         8.4266 
 161   0.0000       0.316009         8.5990 
 162   0.0000       0.321102         8.7376 
 163   0.0000       0.321357         8.7446 
 164   0.0000       0.330430         8.9914 
 165   0.0000       0.332737         9.0542 
 166   0.0000       0.334584         9.1045 
 167   0.0000       0.340600         9.2682 
 168   0.0000       0.341742         9.2993 
 169   0.0000       0.344500         9.3743 
 170   0.0000       0.349680         9.5153 
 171   0.0000       0.353621         9.6225 
 172   0.0000       0.358497         9.7552 
 173   0.0000       0.359344         9.7782 
 174   0.0000       0.362604         9.8670 
 175   0.0000       0.365206         9.9378 
 176   0.0000       0.368855        10.0370 
 177   0.0000       0.376048        10.2328 
 178   0.0000       0.376723        10.2512 
 179   0.0000       0.380123        10.3437 
 180   0.0000       0.383942        10.4476 
 181   0.0000       0.384713        10.4686 
 182   0.0000       0.388370        10.5681 
 183   0.0000       0.392280        10.6745 
 184   0.0000       0.394260        10.7284 
 185   0.0000       0.394601        10.7376 
 186   0.0000       0.398879        10.8541 
 187   0.0000       0.401586        10.9277 
 188   0.0000       0.404995        11.0205 
 189   0.0000       0.406356        11.0575 
 190   0.0000       0.408588        11.1183 
 191   0.0000       0.415451        11.3050 
 192   0.0000       0.416845        11.3429 
 193   0.0000       0.423833        11.5331 
 194   0.0000       0.426258        11.5991 
 195   0.0000       0.433673        11.8008 
 196   0.0000       0.435394        11.8477 
 197   0.0000       0.442354        12.0371 
 198   0.0000       0.443982        12.0814 
 199   0.0000       0.449271        12.2253 
 200   0.0000       0.452123        12.3029 
 201   0.0000       0.457400        12.4465 
 202   0.0000       0.457730        12.4555 
 203   0.0000       0.459203        12.4955 
 204   0.0000       0.462733        12.5916 
 205   0.0000       0.465575        12.6689 
 206   0.0000       0.475301        12.9336 
 207   0.0000       0.477186        12.9849 
 208   0.0000       0.479177        13.0391 
 209   0.0000       0.482740        13.1360 
 210   0.0000       0.487315        13.2605 
 211   0.0000       0.493248        13.4219 
 212   0.0000       0.494464        13.4551 
 213   0.0000       0.497192        13.5293 
 214   0.0000       0.499277        13.5860 
 215   0.0000       0.503173        13.6920 
 216   0.0000       0.507129        13.7997 
 217   0.0000       0.509643        13.8681 
 218   0.0000       0.513781        13.9807 
 219   0.0000       0.518345        14.1049 
 220   0.0000       0.519773        14.1437 
 221   0.0000       0.521232        14.1834 
 222   0.0000       0.524242        14.2654 
 223   0.0000       0.527043        14.3416 
 224   0.0000       0.528288        14.3755 
 225   0.0000       0.531078        14.4514 
 226   0.0000       0.535183        14.5631 
 227   0.0000       0.538031        14.6406 
 228   0.0000       0.541056        14.7229 
 229   0.0000       0.543383        14.7862 
 230   0.0000       0.545200        14.8356 
 231   0.0000       0.550040        14.9674 
 232   0.0000       0.554008        15.0753 
 233   0.0000       0.558310        15.1924 
 234   0.0000       0.560997        15.2655 
 235   0.0000       0.566346        15.4111 
 236   0.0000       0.569871        15.5070 
 237   0.0000       0.573631        15.6093 
 238   0.0000       0.574917        15.6443 
 239   0.0000       0.580201        15.7881 
 240   0.0000       0.584467        15.9042 
 241   0.0000       0.587336        15.9822 
 242   0.0000       0.590568        16.0702 
 243   0.0000       0.592082        16.1114 
 244   0.0000       0.597011        16.2455 
 245   0.0000       0.604012        16.4360 
 246   0.0000       0.606167        16.4946 
 247   0.0000       0.609964        16.5980 
 248   0.0000       0.613621        16.6975 
 249   0.0000       0.616965        16.7885 
 250   0.0000       0.620407        16.8821 
 251   0.0000       0.624567        16.9953 
 252   0.0000       0.631721        17.1900 
 253   0.0000       0.634459        17.2645 
 254   0.0000       0.636620        17.3233 
 255   0.0000       0.640132        17.4189 
 256   0.0000       0.645885        17.5754 
 257   0.0000       0.647135        17.6094 
 258   0.0000       0.651487        17.7279 
 259   0.0000       0.654375        17.8065 
 260   0.0000       0.660446        17.9716 
 261   0.0000       0.665892        18.1199 
 262   0.0000       0.669164        18.2089 
 263   0.0000       0.673283        18.3210 
 264   0.0000       0.674355        18.3501 
 265   0.0000       0.677610        18.4387 
 266   0.0000       0.683587        18.6013 
 267   0.0000       0.688709        18.7407 
 268   0.0000       0.693549        18.8724 
 269   0.0000       0.697902        18.9909 
 270   0.0000       0.700725        19.0677 
 271   0.0000       0.703486        19.1428 
 272   0.0000       0.713245        19.4084 
 273   0.0000       0.714821        19.4513 
 274   0.0000       0.719568        19.5804 
 275   0.0000       0.722683        19.6652 
 276   0.0000       0.727180        19.7876 
 277   0.0000       0.735455        20.0128 
 278   0.0000       0.738023        20.0826 
 279   0.0000       0.740028        20.1372 
 280   0.0000       0.748205        20.3597 
 281   0.0000       0.748693        20.3730 
 282   0.0000       0.755483        20.5577 
 283   0.0000       0.761781        20.7291 
[...]
  | sigma^2 in % of trace(Dip) retained ...   1.56e+01
  | sigma^2 in % of trace(Dpq) retained ...   1.38e-01
  | Av. % of trace(Di) retained         ...  99.998582402935
  | Av. % of trace(Dp) retained         ...  99.999999356889
  | sigma^2 in % of trace(Di) retained  ...   6.51e-07
  | sigma^2 in % of trace(Dp) retained  ...   3.72e-13
 Distributions of % trace(Dij) recovered:
  |       >= 99.9  ...   105 ( 22.4 % of all IJ-pairs)
  |   [80.0, 90.0) ...    20 (  4.3 % of all IJ-pairs)
  |   [90.0, 99.0) ...   260 ( 55.6 % of all IJ-pairs)
  |   [99.0, 99.9) ...    83 ( 17.7 % of all IJ-pairs)
 Distributions of % trace(Dip) recovered:
  |   [80.0, 90.0) ...    12 ( 10.7 % of all IP-pairs)
  |   [90.0, 99.0) ...    51 ( 45.5 % of all IP-pairs)
  |   [99.0, 99.9) ...    49 ( 43.8 % of all IP-pairs)
 Distributions of % trace(Dpq) recovered:
  |       >= 99.9  ...     5 ( 33.3 % of all PQ-pairs)
  |   [99.0, 99.9) ...    10 ( 66.7 % of all PQ-pairs)
 Distributions of % trace(Di) recovered :
  |       >= 99.9  ...    43 (100.0 % of all I-pairs )
 Distributions of % trace(Dp) recovered :
  |       >= 99.9  ...     5 (100.0 % of all P-pairs )

                       ===========================
                       1030 OF 1665 PAIRS ARE KEPT
                       ===========================

 Initial PAO correlation energy (all pairs)    ...  -2.6794755925 Eh
 Energy constituents in PAO basis (Eh):
  | Vijab(+0) ...  -2.2522832811
  | Viab (-1) ...  -0.1739966426
  | Vab  (-2) ...  -0.0573250495
  | Va   (-1) ...  -0.0000459269
  | Vija (+1) ...  -0.0714260952
  | Vij  (+2) ...  -0.0155561096
  | Via  (+0) ...  -0.1086766898
  | Vi   (+1) ...  -0.0001657980
 Initial PNO correlation energy                ...  -2.6453059883 Eh
 Energy constituents in PNO basis (Eh):
  | Vijab(+0) ...  -2.2335577434 (err=  0.0187255377)
  | Viab (-1) ...  -0.1600656557 (err=  0.0139309869)
  | Vab  (-2) ...  -0.0568684671 (err=  0.0004565823)
  | Va   (-1) ...  -0.0000266043 (err=  0.0000193225)
  | Vija (+1) ...  -0.0705392741 (err=  0.0008868211)
  | Vij  (+2) ...  -0.0155089373 (err=  0.0000471723)
  | Via  (+0) ...  -0.1085739216 (err=  0.0001027682)
  | Vi   (+1) ...  -0.0001653847 (err=  0.0000004132)
 Sum of total truncation errors ...   0.0341696043 Eh
  | Pair screening ...   0.0121407062 Eh
  | PNO truncation ...   0.0220288981 Eh

 UMP2 correlation energy (PAO) ...  -2.6743274495
  | alpha-alpha ...  -0.3831028655 (NP_aa=  894)
  | alpha-beta  ...  -1.9876005622 (NP_ab= 1640)
  | beta -beta  ...  -0.3036240218 (NP_bb=  713)
 UMP2 correlation energy (PNO) ...  -2.6397936607
  | alpha-alpha ...  -0.3710519239 (err=  0.0120509415, NP_aa=  547)
  | alpha-beta  ...  -1.9692354248 (err=  0.0183651374, NP_ab= 1005)
  | beta -beta  ...  -0.2995063120 (err=  0.0041177098, NP_bb=  425)
 Sum of total UMP2 truncation errors ...   0.0345337888 Eh
  | Pair screening ...   0.0121464079 Eh
  | PNO truncation ...   0.0223873808 Eh
 Timing for NEV-PNO construction (sec.)
  | Intermediate construction  ..           41.940
  | Amplitude construction     ..           59.525
  | Total time                 ..          101.465
 Making pair pair interaction lists ...      ok
 Total size for 2-ext PNO integrals ...     10.5 MB
Checking the number of SOMO/SOMO doubles PNOs ... 
 #Truncate: (72, 72)[170] -> [86] .. 
 #Truncate: (73, 73)[174] -> [86] .. 
 #Truncate: (74, 74)[173] -> [86] .. 
 #Truncate: (75, 75)[173] -> [86] .. 
 #Truncate: (76, 76)[173] -> [86] .. 

--------------------------------
LOCAL RI TRANSFORMATION (VABPAO)
--------------------------------

Number of PAOs:    1030
Basis functions:   1025 (343 shells)
Aux. functions:    2424 (644 shells)

Processing maps (0.0 sec)
Average map sizes:
   Aux shells -> PAOs           1030.0
   PAOs       -> AO shells       343.0

Calculating integrals (199.3 sec, 37370.165 MB)
Finished
-----------------------------
LOCAL RI TRANSFORMATION (IJV)
-----------------------------

Orbital window:      29 to 76
Basis functions:   1025 (343 shells)
Aux. functions:    2424 (644 shells)

Processing maps (0.0 sec)
Average map sizes:
   Aux shells -> MOs(i)           46.4
   Aux shells -> MOs(j)           48.0
   MOs        -> AO shells       340.1

Calculating integrals (22.8 sec, 41.293 MB)
Sorting integrals (0.3 sec, 41.266 MB)
Total time for the integral transformation: 23.2 sec


-------------------------------------
Pair Pair Term precalculation with     
RI-(ij|mn) and (im|jn) transformation  
ON THE FLY                             
-------------------------------------

   IBatch   1 (of   2)              ... done ( 1300.353 sec)
   IBatch   2 (of   2)              ... done (  586.734 sec)
Total EXT                           ...        1887.087 sec

---------------------
RI-PNO TRANSFORMATION
---------------------

Total Number of PNOs                   ... 32354
Total Number of IJ-PNOs                ... 28283
Total Number of IP-PNOs                ...  3113
Total Number of PQ-PNOs                ...   958
Total Number of IJ-pairs               ...   893
Total Number of PI-pairs               ...   112
Total Number of PQ-pairs               ...    25
Average number of PNOs per pair        ...    31
Maximal number of PNOs per pair        ...    86
>> Statistics for ij-pairs..
   #pairs with  1 -  5 PNOs   :    0
   #pairs with  6 - 10 PNOs   :    0
   #pairs with 11 - 15 PNOs   :   86
   #pairs with 16 - 20 PNOs   :  172
   #pairs with 21 - 25 PNOs   :  160
   #pairs with 26 - 30 PNOs   :  130
   #pairs with 31 - 35 PNOs   :   60
   #pairs with 36 - 40 PNOs   :   56
   #pairs with 41 - 45 PNOs   :   44
   #pairs with 46 - 50 PNOs   :   18
   #pairs with 51 - 55 PNOs   :   32
   #pairs with 56 - 60 PNOs   :   53
   #pairs with 61 - 65 PNOs   :   77
   #pairs with 66 - 70 PNOs   :    3
   #pairs with 81 - 85 PNOs   :    2
>> Statistics for ip-pairs..
   #pairs with  1 -  5 PNOs   :    0
   #pairs with  6 - 10 PNOs   :    1
   #pairs with 11 - 15 PNOs   :   11
   #pairs with 16 - 20 PNOs   :   13
   #pairs with 21 - 25 PNOs   :   19
   #pairs with 26 - 30 PNOs   :   10
   #pairs with 31 - 35 PNOs   :   44
   #pairs with 36 - 40 PNOs   :   12
   #pairs with 41 - 45 PNOs   :    2
   #pairs with 46 - 50 PNOs   :    0
>> Statistics for pq-pairs..
   #pairs with  1 -  5 PNOs   :    0
   #pairs with  6 - 10 PNOs   :    0
   #pairs with 11 - 15 PNOs   :    0
   #pairs with 16 - 20 PNOs   :    0
   #pairs with 21 - 25 PNOs   :   10
   #pairs with 26 - 30 PNOs   :   10
   #pairs with 31 - 35 PNOs   :    0
   #pairs with 36 - 40 PNOs   :    0
   #pairs with 41 - 45 PNOs   :    0
   #pairs with 46 - 50 PNOs   :    0
   #pairs with 86 - 90 PNOs   :    5

Generation of (ij|ab)[P] integrals            ... on
Generation of (ia|bc)[P],(ja|bc)[P] integrals ... on
Storage of 3 and 4 external integrals         ... on
Generation of ALL (ka|bc)[P] integrals        ... on
Keep RI integrals in memory                   ... off

Ibatch:  1 (of  1)
Starting 2-4 index PNO integral generation ... done

Timings:
Total PNO integral transformation time     ...       1975.302 sec
Size of the 3-external file                ...       278 MB
Size of the 4-external file                ...      1900 MB
Size of the IKJL file                      ...        16 MB
Size of the all 3-external file            ...      6673 MB
Size of the 1-external file                ...        20 MB

Size of the PAO/PNO coefficient matrices   ...     203.3 MB

Making pair/pair overlap matrices          ... done (  331.471 sec)
Size of the pair overlap file              ...    2224.0 MB
Total # unrestricted pairs ...       1977
  # of alpha-alpha pairs   ...        547
  # of alpha-beta pairs    ...       1005
  # of beta-beta pairs     ...        425
Constructing the guess amplitudes          ... done (    0.622 sec)

-------------------------
FINAL STARTUP INFORMATION
-------------------------

E(0)                                       ...  -3028.471448604
E(SL-UMP2 in NEV-PNO space)                ...     -2.675260754
Initial E(tot)                             ...  -3031.146709358
<T|T>                                      ...      0.532157292
Number of unrestricted pairs included      ... 1977
Total number of pairs                      ... 4095
----------------------------------------------------------
                     OPEN-SHELL COUPLED CLUSTER ITERATIONS
----------------------------------------------------------

Number of PNO amplitudes to be optimized        ...          2005959
Number of canonical amplitudes for strong pairs ...       1785627616
Untruncated number of canonical amplitudes      ...       3698645738

Iter       E(tot)           E(Corr)          Delta-E          Residual     Time
  0  -3031.153983641     -2.647067944      0.028192811      0.020863048 1574.25
                           *** Turning on DIIS ***
  1  -3031.270693191     -2.763777494     -0.116709550      0.011011602 1556.54
  2  -3031.335731149     -2.828815451     -0.065037957      0.008343932 1564.76
  3  -3031.357886602     -2.850970905     -0.022155454      0.003364888 1576.94
  4  -3031.365643375     -2.858727678     -0.007756773      0.002646817 1573.97
  5  -3031.369912442     -2.862996744     -0.004269067      0.001505840 1562.41
  6  -3031.371484942     -2.864569244     -0.001572500      0.000750845 1561.03
  7  -3031.372143236     -2.865227539     -0.000658295      0.000475975 1562.41
  8  -3031.372289929     -2.865374231     -0.000146692      0.000215914 1566.17
  9  -3031.372349565     -2.865433867     -0.000059636      0.000148435 1575.46
 10  -3031.372352654     -2.865436957     -0.000003090      0.000074105 1578.57
 11  -3031.372365316     -2.865449619     -0.000012662      0.000066904 1579.46
 12  -3031.372370365     -2.865454668     -0.000005049      0.000036653 1580.65
 13  -3031.372372564     -2.865456867     -0.000002199      0.000018066 1582.18
 14  -3031.372374173     -2.865458475     -0.000001608      0.000011375 1574.28
 15  -3031.372373347     -2.865457650      0.000000825      0.000005043 1336.68
               --- The CCSD iterations have converged ---

E(0)                                       ...  -3028.471448604
E(CORR)(strong-pairs)                      ...     -2.865457650
E(CORR)(weak-pairs)                        ...     -0.035467094
E(CORR)(corrected)                         ...     -2.900924744
E(TOT)                                     ...  -3031.372373347
Singles norm <S|S>**1/2                    ...      0.196094528 ( 0.064530047, 0.131564482)  
T1 diagnostic                              ...      0.020556292                              
<S**2>(linearized)                         ...      8.7508628 (ideal value:      8.7500000)

----------------------
LARGEST PNO AMPLITUDES
----------------------
  49b-> 72b  -1b-> -1b       0.054939
  52b-> 73b  -1b-> -1b       0.053775
  51b-> 73b  -1b-> -1b       0.053510
  46a-> 78a  46b-> 78b       0.052976
  44a-> 77a  44b-> 77b       0.047387
  49b-> 76b  -1b-> -1b       0.047366
  49b-> 75b  -1b-> -1b       0.046357
  35b-> 72b  -1b-> -1b       0.044542
  38b-> 74b  -1b-> -1b       0.044302
  42b-> 74b  -1b-> -1b       0.044281
  55a-> 77a  55b-> 77b       0.043959
  62a-> 77a  62b-> 77b       0.043923
  70a-> 77a  70b-> 77b       0.043800
  69a-> 77a  69b-> 77b       0.043482
  43a-> 77a  43b-> 77b       0.043359
  64a-> 77a  64b-> 77b       0.043242

Total # unrestricted pairs ...       1270
  # of alpha-alpha pairs   ...        347
  # of alpha-beta pairs    ...        635
  # of beta-beta pairs     ...        288

-------------------------------------------
DLPNO BASED TRIPLES CORRECTION
-------------------------------------------

Singles multiplier          ...  1.000000
Fragment selection                          .... not used
TCutTNO                     ... 1.000e-09
TCutMP2Pairs                ... 1.000e-05
TCutDOStrong                ... 2.000e-02
TCutMKNStrong               ... 1.000e-02
TCutDOWeak                  ... 4.000e-02
TCutMKNWeak                 ... 1.000e-01
NTCutTNO                    ... 1

Number of Triples that are to be computed         ...     29998

 . . . . . . . . .
10% done  
20% done  
30% done  
40% done  
50% done  
60% done  
70% done  
80% done  
90% done  
          Batch   1   done (  11383.285 sec)

Triples-Correction TCutTNO=   1.000e-09 (NWeakPairs = 0  1  2  3)  -0.115890662362   -0.001722377341    0.000000000000    0.000000000000
Triples-Correction  -0.117613039702

Triples timings:
Total time                      ... 11853.514 sec

Triples List generation         ...     0.000 sec
TNO generation                  ...   469.996 sec
Pair density generation         ...     0.082 sec
Look up tables                  ...     0.097 sec
Generating 3-index integrals    ...  6813.188 sec
Make 4-ind.int. from 3-ind.int  ...     2.784 sec
Projecting amplitudes (D + S)   ...  4361.311 sec
Sorting integrals for spin cases...    43.088 sec
Calculate W0/W1                 ...   130.807 sec
Energy contr. (sum over a,b,c)  ...    31.995 sec

Everything after 3-index        ...  4669.623 sec

Energy contribution AAA         ...    20.123 sec
Energy contribution AAB         ...    91.347 sec
Energy contribution ABB         ...    83.422 sec
Energy contribution BBB         ...    11.031 sec
prep                ...     2.632 sec
makeTTNO            ...  4316.190 sec
copyij              ...     0.108 sec
copyil              ...     3.372 sec
transposeij         ...     0.066 sec
newMatInDoubleProj  ...    43.448 sec
BlasInDoubleProj    ...  2328.468 sec
ProjSingles         ...    36.907 sec
ProjDoubles         ...  4324.403 sec
overall Doubles for projection      ... 2645149
used Doubles for projection         ... 2645149


Number of Triples   (0, 1, 2, 3 weak pairs; overall):  13987   10799       0       0  ( 24786)
Number of Atoms     (0, 1, 2, 3 weak pairs; overall):   18.5    13.5     0.0     0.0  (    29)
Number of PAOs      (0, 1, 2, 3 weak pairs; overall):  731.6   546.5     0.0     0.0  (  1025)
Number of AuxFcns   (0, 1, 2, 3 weak pairs; overall):  834.8   571.9     0.0     0.0  (  2424)
Number of TNOs (0, 1, 2, 3 weak pairs         ):   78.3    56.2     0.0     0.0
Aver. Number of NTNO, Atoms, PAOs, AuxFcns / Triples:  24786    68.7    16.3   651.0   720.2

Triples Correction (T)                     ...     -0.117613040
    alpha-alpha-alpha ... -0.003732211 (  3.2%)
    alpha-alpha-beta  ... -0.055261483 ( 47.0%)
    alpha-beta -beta  ... -0.054615112 ( 46.4%)
    beta -beta -beta  ... -0.004004233 (  3.4%)
Final correlation energy                   ...     -3.018537783
E(CCSD)                                    ...  -3031.372373347
E(CCSD(T))                                 ...  -3031.489986387

----------------------------
STATISTICS FOR PAIR-ENERGIES
----------------------------
Minimum, maximum and average ratios of UMP and CCSD pair-energies ... 0.46, 1.45, 1.03


------------------------------------------------------------------------------- 
                                     TIMINGS                                   
------------------------------------------------------------------------------- 


Total execution time                   ...    44505.093 sec

Localization of occupied MO's          ...       10.282 sec (  0.0%)
Fock Matrix Formation                  ...     1356.055 sec (  3.0%)
Differential overlap integrals         ...        1.474 sec (  0.0%)
Organizing maps                        ...        1.626 sec (  0.0%)
RI 3-index integral generations        ...      286.055 sec (  0.6%)
RI-PNO integral transformation         ...     4352.855 sec (  9.8%)
Initial Guess                          ...     1820.471 sec (  4.1%)
DIIS Solver                            ...       16.718 sec (  0.0%)
State Vector Update                    ...        0.766 sec (  0.0%)
Sigma-vector construction              ...    24905.760 sec ( 56.0%)
  <0|H|D>                              ...        0.030 sec (  0.0% of sigma)
  <D|H|D>(0-ext)                       ...     4398.948 sec ( 17.7% of sigma)
  <D|H|D>(2-ext Fock)                  ...        1.613 sec (  0.0% of sigma)
  <D|H|D>(2-ext)                       ...     3563.731 sec ( 14.3% of sigma)
  <D|H|D>(4-ext)                       ...      155.343 sec (  0.6% of sigma)
  <D|H|D>(4-ext-corr)                  ...      971.293 sec (  3.9% of sigma)
  CCSD doubles correction              ...      388.431 sec (  1.6% of sigma)
  <S|H|S>                              ...      724.517 sec (  2.9% of sigma)
  <S|H|D>(1-ext)                       ...      269.486 sec (  1.1% of sigma)
  <D|H|S>(1-ext)                       ...        0.730 sec (  0.0% of sigma)
  <S|H|D>(3-ext)                       ...       20.600 sec (  0.1% of sigma)
  CCSD singles correction              ...        0.005 sec (  0.0% of sigma)
  Fock-dressing                        ...     6981.439 sec ( 28.0% of sigma)
  Singles amplitudes                   ...      114.696 sec (  0.5% of sigma)
  (ik|jl)-dressing                     ...     5918.201 sec ( 23.8% of sigma)
  (ij|ab),(ia|jb)-dressing             ...     1146.690 sec (  4.6% of sigma)
  Pair energies                        ...        0.116 sec (  0.0% of sigma)
Total Time for computing (T)           ...    12087.555 sec ( 27.2% of ALL)


-------------------------   --------------------
FINAL SINGLE POINT ENERGY     -3031.489986387119
-------------------------   --------------------


                            ***************************************
                            *     ORCA property calculations      *
                            ***************************************

                                    ---------------------
                                    Active property flags
                                    ---------------------
   (+) Dipole Moment


------------------------------------------------------------------------------
                       ORCA ELECTRIC PROPERTIES CALCULATION
------------------------------------------------------------------------------

Dipole Moment Calculation                       ... on
Quadrupole Moment Calculation                   ... off
Polarizability Calculation                      ... off
GBWName                                         ... simple-grid-280-295-b3lyp_d3bj-631gd-gas-singlepoint-DLPNO_CCSD_T1-NormalPNO-augtz-gas.gbw
Electron density file                           ... simple-grid-280-295-b3lyp_d3bj-631gd-gas-singlepoint-DLPNO_CCSD_T1-NormalPNO-augtz-gas.scfp.tmp
The origin for moment calculation is the CENTER OF MASS  = (-0.315866, -0.044319  0.015403)

-------------
DIPOLE MOMENT
-------------
                                X             Y             Z
Electronic contribution:    -43.88452      -5.04017       1.66227
Nuclear contribution   :     47.06411       6.60354      -2.29497
                        -----------------------------------------
Total Dipole Moment    :      3.17959       1.56337      -0.63270
                        -----------------------------------------
Magnitude (a.u.)       :      3.59920
Magnitude (Debye)      :      9.14843



--------------------
Rotational spectrum 
--------------------
 
Rotational constants in cm-1:     0.018758     0.010596     0.009974 
Rotational constants in MHz :   562.345485   317.666857   299.010375 

 Dipole components along the rotational axes: 
x,y,z [a.u.] :     3.173177    -1.559174    -0.673902 
x,y,z [Debye]:     8.065574    -3.963105    -1.712923 

 

Timings for individual modules:

Sum of individual times         ...    60387.844 sec (=1006.464 min)
GTO integral calculation        ...       11.706 sec (=   0.195 min)   0.0 %
SCF iterations                  ...    15854.006 sec (= 264.233 min)  26.3 %
MDCI module                     ...    44522.132 sec (= 742.036 min)  73.7 %
                             ****ORCA TERMINATED NORMALLY****
TOTAL RUN TIME: 0 days 16 hours 46 minutes 30 seconds 824 msec
