
                                 *****************
                                 * O   R   C   A *
                                 *****************

           --- An Ab Initio, DFT and Semiempirical electronic structure package ---

                  #######################################################
                  #                        -***-                        #
                  #          Department of theory and spectroscopy      #
                  #               Directorship: Frank Neese             #
                  #        Max Planck Institute fuer Kohlenforschung    #
                  #                Kaiser Wilhelm Platz 1               #
                  #                 D-45470 Muelheim/Ruhr               #
                  #                      Germany                        #
                  #                                                     #
                  #                  All rights reserved                #
                  #                        -***-                        #
                  #######################################################


                         Program Version 4.1.2  - RELEASE  -


 With contributions from (in alphabetic order):
   Daniel Aravena         : Magnetic Properties
   Michael Atanasov       : Ab Initio Ligand Field Theory
   Alexander A. Auer      : GIAO ZORA
   Ute Becker             : Parallelization
   Giovanni Bistoni       : ED, Open-shell LED
   Martin Brehm           : Molecular dynamics
   Dmytro Bykov           : SCF Hessian
   Vijay G. Chilkuri      : MRCI spin determinant printing
   Dipayan Datta          : RHF DLPNO-CCSD density
   Achintya Kumar Dutta   : EOM-CC, STEOM-CC
   Dmitry Ganyushin       : Spin-Orbit,Spin-Spin,Magnetic field MRCI
   Miquel Garcia          : C-PCM Hessian
   Yang Guo               : DLPNO-NEVPT2, CIM, IAO-localization
   Andreas Hansen         : Spin unrestricted coupled pair/coupled cluster methods
   Benjamin Helmich-Paris : CASSCF linear response (MC-RPA)
   Lee Huntington         : MR-EOM, pCC
   Robert Izsak           : Overlap fitted RIJCOSX, COSX-SCS-MP3, EOM
   Christian Kollmar      : KDIIS, OOCD, Brueckner-CCSD(T), CCSD density
   Simone Kossmann        : Meta GGA functionals, TD-DFT gradient, OOMP2, MP2 Hessian
   Martin Krupicka        : AUTO-CI
   Lucas Lang             : DCDCAS
   Dagmar Lenk            : GEPOL surface, SMD
   Dimitrios Liakos       : Extrapolation schemes; parallel MDCI
   Dimitrios Manganas     : ROCIS; embedding schemes
   Dimitrios Pantazis     : SARC Basis sets
   Taras Petrenko         : DFT Hessian,TD-DFT gradient, ASA, ECA, R-Raman, ABS, FL, XAS/XES, NRVS
   Peter Pinski           : DLPNO-MP2, DLPNO-MP2 Gradient
   Christoph Reimann      : Effective Core Potentials
   Marius Retegan         : Local ZFS, SOC
   Christoph Riplinger    : Optimizer, TS searches, QM/MM, DLPNO-CCSD(T), (RO)-DLPNO pert. Triples
   Tobias Risthaus        : Range-separated hybrids, TD-DFT gradient, RPA, STAB
   Michael Roemelt        : Restricted open shell CIS
   Masaaki Saitow         : Open-shell DLPNO
   Barbara Sandhoefer     : DKH picture change effects
   Avijit Sen             : IP-ROCIS
   Kantharuban Sivalingam : CASSCF convergence, NEVPT2, FIC-MRCI
   Bernardo de Souza      : ESD, SOC TD-DFT
   Georgi Stoychev        : AutoAux, RI-MP2 NMR
   Willem Van den Heuvel  : Paramagnetic NMR
   Boris Wezisla          : Elementary symmetry handling
   Frank Wennmohs         : Technical directorship


 We gratefully acknowledge several colleagues who have allowed us to
 interface, adapt or use parts of their codes:
   Stefan Grimme, W. Hujo, H. Kruse,             : VdW corrections, initial TS optimization,
                  C. Bannwarth                     DFT functionals, gCP, sTDA/sTD-DF
   Ed Valeev                                     : LibInt (2-el integral package), F12 methods
   Garnet Chan, S. Sharma, J. Yang, R. Olivares  : DMRG
   Ulf Ekstrom                                   : XCFun DFT Library
   Mihaly Kallay                                 : mrcc  (arbitrary order and MRCC methods)
   Andreas Klamt, Michael Diedenhofen            : otool_cosmo (COSMO solvation model)
   Jiri Pittner, Ondrej Demel                    : Mk-CCSD
   Frank Weinhold                                : gennbo (NPA and NBO analysis)
   Christopher J. Cramer and Donald G. Truhlar   : smd solvation model
   Lars Goerigk                                  : TD-DFT with DH, B97 family of functionals
   V. Asgeirsson, H. Jonsson                     : NEB implementation
   FAccTs GmbH                                   : IRC, NEB, NEB-TS, Multilevel


 Your calculation uses the libint2 library for the computation of 2-el integrals
 For citations please refer to: http://libint.valeyev.net

 This ORCA versions uses:
   CBLAS   interface :  Fast vector & matrix operations
   LAPACKE interface :  Fast linear algebra routines
   SCALAPACK package :  Parallel linear algebra routines


----- Orbital basis set information -----
Your calculation utilizes the basis: aug-cc-pVTZ 
    H, B-Ne : Obtained from the ccRepo (grant-hill.group.shef.ac.uk/ccrepo) Feb. 2017
              R. A. Kendall, T. H. Dunning, Jr., R. J. Harrison, J. Chem. Phys. 96, 6796 (1992)
         He : Obtained from the ccRepo (grant-hill.group.shef.ac.uk/ccrepo) Feb. 2017
              D. E. Woon, T. H. Dunning, Jr., J. Chem. Phys. 100, 2975 (1994)
  Li-Be, Na : Obtained from the ccRepo (grant-hill.group.shef.ac.uk/ccrepo) Feb. 2017
              B. P. Prascher, D. E. Woon, K. A. Peterson, T. H. Dunning, Jr., A. K. Wilson, Theor. Chem. Acc. 128, 69 (2011)
         Mg : Obtained from the Peterson Research Group Website (tyr0.chem.wsu.edu/~kipeters) Feb. 2017
              B. P. Prascher, D. E. Woon, K. A. Peterson, T. H. Dunning, Jr., A. K. Wilson, Theor. Chem. Acc. 128, 69 (2011)
      Al-Ar : Obtained from the ccRepo (grant-hill.group.shef.ac.uk/ccrepo) Feb. 2017
              D. E. Woon, T. H. Dunning, Jr., J. Chem. Phys. 98, 1358 (1993)
      Sc-Zn : Obtained from the ccRepo (grant-hill.group.shef.ac.uk/ccrepo) Feb. 2017
              N. B. Balabanov, K. A. Peterson, J. Chem. Phys. 123, 064107 (2005)
              N. B. Balabanov, K. A. Peterson, J. Chem. Phys. 125, 074110 (2006)
      Ga-Kr : Obtained from the ccRepo (grant-hill.group.shef.ac.uk/ccrepo) Feb. 2017
              A. K. Wilson, D. E. Woon, K. A. Peterson, T. H. Dunning, Jr., J. Chem. Phys. 110, 7667 (1999)
     Ag, Au : Obtained from the Peterson Research Group Website (tyr0.chem.wsu.edu/~kipeters) Feb. 2017
              K. A. Peterson, C. Puzzarini, Theor. Chem. Acc. 114, 283 (2005)

----- AuxJ basis set information -----
Your calculation utilizes the AutoAux generation procedure.
  G. L. Stoychev, A. A. Auer, F. Neese, J. Chem. Theory Comput. 13, 554 (2017)

----- AuxC basis set information -----
Your calculation utilizes the auxiliary basis: aug-cc-pVTZ/C 
  H-He, B-F, Al-Ar, Ga-Kr : Obtained from the EMSL Basis Set Exchange (bse.pnl.gov) Feb. 2017
                            F. Weigend, A. Kohn, C. Hattig, J. Chem. Phys. 116, 3175 (2002)
                   Be, Mg : Obtained from the TURBOMOLE 7.0 basis set library
                            C. Haettig, Phys. Chem. Chem. Phys. 7, 59 (2005)
                       Ne : Obtained from the EMSL Basis Set Exchange (bse.pnl.gov) Feb. 2017
                            C. Haettig, Phys. Chem. Chem. Phys. 7, 59 (2005)
                            F. Weigend, A. Kohn, C. Hattig, J. Chem. Phys. 116, 3175 (2002)
                    Sc-Zn : Obtained from the EMSL Basis Set Exchange (bse.pnl.gov) Feb. 2017
                            J. G. Hill, J. A. Platts, J. Chem. Phys. 128, 044104 (2008)

----- AuxJK basis set information -----
Your calculation utilizes the AutoAux generation procedure.
  G. L. Stoychev, A. A. Auer, F. Neese, J. Chem. Theory Comput. 13, 554 (2017)

================================================================================
                                        WARNINGS
                       Please study these warnings very carefully!
================================================================================


WARNING: your system is open-shell and RHF/RKS was chosen
  ===> : WILL SWITCH to UHF/UKS


WARNING: MDCI localization with Augmented Hessian Foster-Boys
  ===> : Switching off randomization!

WARNING: Post HF methods need fully converged wavefunctions
  ===> : Setting SCFConvForced true
         You can overwrite this default with %scf ConvForced false 


INFO   : the flag for use of LIBINT has been found!

================================================================================
                                       INPUT FILE
================================================================================
NAME = simple-grid-225-225-b3lyp_d3bj-631gd-gas-singlepoint-DLPNO_CCSD_T1-NormalPNO-augtz-gas.inp
|  1> ! aug-cc-pVTZ aug-cc-pVTZ/C DLPNO-CCSD(T1) TightSCF NormalPNO UNO MiniPrint AutoAux
|  2> %pal nproc 10 end
|  3> %maxcore 20000
|  4> %mdci
|  5>      density none
|  6> end
|  7> 
|  8> * xyz 0 6
|  9>  O     -0.34213900     -0.09048300     -0.54871900
| 10>  C     -1.21781600     -1.03601100     -0.49914100
| 11>  C     -3.14764400      0.02970500     -0.04912800
| 12>  C     -2.25311800      1.04978700     -0.21644900
| 13>  C     -2.08043200      1.72086000     -1.54369200
| 14> Fe      1.45791500      0.06025700      0.05717900
| 15> Cl      2.07535300      1.98732100     -0.78469200
| 16>  C     -1.58111500      1.72905900      0.93833100
| 17> Cl      2.39422700     -1.74841700     -0.77427900
| 18> Cl      1.41978100      0.03124100      2.26075600
| 19>  H     -3.69989100     -0.28758600     -0.93102300
| 20>  H     -2.28051000      2.47654700      1.33944500
| 21>  H     -1.32262300      1.05095200      1.75278000
| 22>  H     -0.67705400      2.25344400      0.62242300
| 23>  H     -2.51926700      2.72532400     -1.46394900
| 24>  H     -1.02278400      1.84809700     -1.78885800
| 25>  H     -2.59468600      1.19897500     -2.35415600
| 26>  C     -3.72381400     -0.42559300      1.26468600
| 27>  H     -4.65021600      0.12869000      1.46723700
| 28>  H     -3.98895800     -1.48729800      1.24581200
| 29>  H     -3.05290800     -0.25552100      2.10947300
| 30>  C     -1.18885100     -1.96225200      0.68262100
| 31>  H     -2.06536000     -2.60817400      0.73678200
| 32>  H     -0.30247600     -2.59613200      0.52967600
| 33>  H     -1.03799900     -1.42513600      1.61935600
| 34>  C     -1.63738000     -1.62326100     -1.81989900
| 35>  H     -0.78754200     -2.24194100     -2.14322700
| 36>  H     -2.52167300     -2.25794800     -1.73710100
| 37>  H     -1.78286100     -0.85135900     -2.57587600
| 38> *
| 39> 
| 40> 
| 41>                          ****END OF INPUT****
================================================================================

                       ****************************
                       * Single Point Calculation *
                       ****************************

---------------------------------
CARTESIAN COORDINATES (ANGSTROEM)
---------------------------------
  O     -0.342139   -0.090483   -0.548719
  C     -1.217816   -1.036011   -0.499141
  C     -3.147644    0.029705   -0.049128
  C     -2.253118    1.049787   -0.216449
  C     -2.080432    1.720860   -1.543692
  Fe     1.457915    0.060257    0.057179
  Cl     2.075353    1.987321   -0.784692
  C     -1.581115    1.729059    0.938331
  Cl     2.394227   -1.748417   -0.774279
  Cl     1.419781    0.031241    2.260756
  H     -3.699891   -0.287586   -0.931023
  H     -2.280510    2.476547    1.339445
  H     -1.322623    1.050952    1.752780
  H     -0.677054    2.253444    0.622423
  H     -2.519267    2.725324   -1.463949
  H     -1.022784    1.848097   -1.788858
  H     -2.594686    1.198975   -2.354156
  C     -3.723814   -0.425593    1.264686
  H     -4.650216    0.128690    1.467237
  H     -3.988958   -1.487298    1.245812
  H     -3.052908   -0.255521    2.109473
  C     -1.188851   -1.962252    0.682621
  H     -2.065360   -2.608174    0.736782
  H     -0.302476   -2.596132    0.529676
  H     -1.037999   -1.425136    1.619356
  C     -1.637380   -1.623261   -1.819899
  H     -0.787542   -2.241941   -2.143227
  H     -2.521673   -2.257948   -1.737101
  H     -1.782861   -0.851359   -2.575876

----------------------------
CARTESIAN COORDINATES (A.U.)
----------------------------
  NO LB      ZA    FRAG     MASS         X           Y           Z
   0 O     8.0000    0    15.999   -0.646549   -0.170988   -1.036929
   1 C     6.0000    0    12.011   -2.301339   -1.957777   -0.943240
   2 C     6.0000    0    12.011   -5.948185    0.056134   -0.092838
   3 C     6.0000    0    12.011   -4.257776    1.983810   -0.409029
   4 C     6.0000    0    12.011   -3.931447    3.251954   -2.917155
   5 Fe   26.0000    0    55.850    2.755060    0.113869    0.108053
   6 Cl   17.0000    0    35.453    3.921849    3.755492   -1.482853
   7 C     6.0000    0    12.011   -2.987874    3.267448    1.773189
   8 Cl   17.0000    0    35.453    4.524433   -3.304029   -1.463175
   9 Cl   17.0000    0    35.453    2.682997    0.059037    4.272210
  10 H     1.0000    0     1.008   -6.991781   -0.543459   -1.759378
  11 H     1.0000    0     1.008   -4.309539    4.679996    2.531184
  12 H     1.0000    0     1.008   -2.499395    1.986011    3.312274
  13 H     1.0000    0     1.008   -1.279447    4.258392    1.176209
  14 H     1.0000    0     1.008   -4.760725    5.150116   -2.766463
  15 H     1.0000    0     1.008   -1.932782    3.492397   -3.380452
  16 H     1.0000    0     1.008   -4.903246    2.265734   -4.448710
  17 C     6.0000    0    12.011   -7.036989   -0.804254    2.389910
  18 H     1.0000    0     1.008   -8.787635    0.243189    2.772676
  19 H     1.0000    0     1.008   -7.538038   -2.810586    2.354243
  20 H     1.0000    0     1.008   -5.769160   -0.482865    3.986326
  21 C     6.0000    0    12.011   -2.246603   -3.708119    1.289967
  22 H     1.0000    0     1.008   -3.902965   -4.928735    1.392316
  23 H     1.0000    0     1.008   -0.571597   -4.905978    1.000943
  24 H     1.0000    0     1.008   -1.961534   -2.693117    3.060139
  25 C     6.0000    0    12.011   -3.094200   -3.067519   -3.439111
  26 H     1.0000    0     1.008   -1.488239   -4.236654   -4.050112
  27 H     1.0000    0     1.008   -4.765271   -4.266903   -3.282645
  28 H     1.0000    0     1.008   -3.369119   -1.608835   -4.867700



           ************************************************************
           *        Program running with 10 parallel MPI-processes    *
           *              working on a common directory               *
           ************************************************************


           ************************************************************
           *        Program running with 10 parallel MPI-processes    *
           *              working on a common directory               *
           ************************************************************

Diagonalization of the overlap matrix:
Smallest eigenvalue                        ... 6.144e-07
Time for diagonalization                   ...    0.326 sec
Threshold for overlap eigenvalues          ... 1.000e-08
Number of eigenvalues below threshold      ... 0
Time for construction of square roots      ...    0.273 sec
Total time needed                          ...    0.605 sec

-------------------
DFT GRID GENERATION
-------------------

General Integration Accuracy     IntAcc      ...  4.340
Radial Grid Type                 RadialGrid  ... Gauss-Chebyshev
Angular Grid (max. acc.)         AngularGrid ... Lebedev-110
Angular grid pruning method      GridPruning ... 3 (G Style)
Weight generation scheme         WeightScheme... Becke
Basis function cutoff            BFCut       ...    1.0000e-11
Integration weight cutoff        WCut        ...    1.0000e-14
Grids for H and He will be reduced by one unit

# of grid points (after initial pruning)     ...  36112 (   0.0 sec)
# of grid points (after weights+screening)   ...  32315 (   0.1 sec)
nearest neighbour list constructed           ...    0.0 sec
Grid point re-assignment to atoms done       ...    0.0 sec
Grid point division into batches done        ...    0.0 sec
Reduced shell lists constructed in    0.2 sec

Total number of grid points                  ...    32315
Total number of batches                      ...      522
Average number of points per batch           ...       61
Average number of grid points per atom       ...     1114
Average number of shells per batch           ...   293.65 (85.61%)
Average number of basis functions per batch  ...   872.87 (85.16%)
Average number of large shells per batch     ...   242.39 (82.54%)
Average number of large basis fcns per batch ...   719.06 (82.38%)
Maximum spatial batch extension              ...   3.40,  3.14,  3.19 au
Average spatial batch extension              ...   0.18,  0.18,  0.17 au

Time for grid setup =    0.341 sec

Loading Hartree-Fock densities                     ... done
Calculating cut-offs                               ... done
Setting up the integral package                    ... done
Initializing the effective Hamiltonian             ... done
Starting the Coulomb interaction                   ... done (   1.1 sec)
Reading the grid                                   ... done
Mapping shells                                     ... done
Starting the XC term evaluation                    ... done (   0.8 sec)
Transforming the Hamiltonian                       ... done (   0.2 sec)
Diagonalizing the Hamiltonian                      ... done (   0.3 sec)
Back transforming the eigenvectors                 ... done (   0.1 sec)
Now organizing SCF variables                       ... done
--------------
SCF ITERATIONS
--------------
ITER       Energy         Delta-E        Max-DP      RMS-DP      [F,P]     Damp
               ***  Starting incremental Fock matrix formation  ***
  0  -3027.5592619959   0.000000000000 0.23117841  0.00112846  0.2654258 0.7000
  1  -3027.8104132724  -0.251151276543 0.16489518  0.00087553  0.1621629 0.7000
                               ***Turning on DIIS***
  2  -3027.9791353831  -0.168722110704 0.11408094  0.00064233  0.1090258 0.7000
  3  -3029.6377628730  -1.658627489826 0.25340027  0.00160664  0.0816707 0.0000
  4  -3028.2840297974   1.353733075551 0.04764057  0.00024266  0.0198042 0.0000
  5  -3028.4064214533  -0.122391655866 0.03958850  0.00017795  0.0120094 0.0000
  6  -3028.4383134812  -0.031892027973 0.02145262  0.00007113  0.0054839 0.0000
  7  -3028.4544651294  -0.016151648167 0.00918340  0.00003234  0.0034841 0.0000
  8  -3028.4493490336   0.005116095849 0.00609439  0.00001863  0.0014375 0.0000
  9  -3028.4402497108   0.009099322799 0.00235586  0.00001052  0.0007594 0.0000
 10  -3028.4286605546   0.011589156215 0.00106923  0.00000348  0.0004466 0.0000
 11  -3028.4354023173  -0.006741762749 0.00028963  0.00000198  0.0000684 0.0000
 12  -3028.4331847894   0.002217527928 0.00043030  0.00000156  0.0000234 0.0000
 13  -3028.4331583431   0.000026446256 0.00060412  0.00000142  0.0000078 0.0000
 14  -3028.4331576046   0.000000738512 0.00064835  0.00000183  0.0000052 0.0000
 15  -3028.4331149015   0.000042703106 0.00098871  0.00000232  0.0000027 0.0000
 16  -3028.4331236368  -0.000008735288 0.00096323  0.00000276  0.0000020 0.0000
 17  -3028.4331332705  -0.000009633723 0.00120695  0.00000309  0.0000014 0.0000
 18  -3028.4331216613   0.000011609178 0.00174479  0.00000411  0.0000011 0.0000
                            ***DIIS convergence achieved***

               *****************************************************
               *                     SUCCESS                       *
               *           SCF CONVERGED AFTER  19 CYCLES          *
               *****************************************************

Total Energy       :        -3028.43313524 Eh          -82407.85514 eV
  Last Energy change         ...   -1.3581e-05  Tolerance :   1.0000e-08
  Last MAX-Density change    ...    9.2389e-04  Tolerance :   1.0000e-07
             **** THE GBW FILE WAS UPDATED (simple-grid-225-225-b3lyp_d3bj-631gd-gas-singlepoint-DLPNO_CCSD_T1-NormalPNO-augtz-gas.gbw) ****
             **** DENSITY FILE WAS UPDATED (simple-grid-225-225-b3lyp_d3bj-631gd-gas-singlepoint-DLPNO_CCSD_T1-NormalPNO-augtz-gas.scfp.tmp) ****
             **** ENERGY FILE WAS UPDATED (simple-grid-225-225-b3lyp_d3bj-631gd-gas-singlepoint-DLPNO_CCSD_T1-NormalPNO-augtz-gas.en.tmp) ****
----------------------
UHF SPIN CONTAMINATION
----------------------

Expectation value of <S**2>     :     8.764734
Ideal value S*(S+1) for S=2.5   :     8.750000
Deviation                       :     0.014734

----------------
ORBITAL ENERGIES
----------------
                 SPIN UP ORBITALS
  NO   OCC          E(Eh)            E(eV) 
   0   1.0000    -261.563497     -7117.5046 
   1   1.0000    -104.784284     -2851.3253 
   2   1.0000    -104.783885     -2851.3145 
   3   1.0000    -104.782960     -2851.2893 
   4   1.0000     -32.231322      -877.0589 
   5   1.0000     -27.707555      -753.9609 
   6   1.0000     -27.706791      -753.9401 
   7   1.0000     -27.706673      -753.9369 
   8   1.0000     -20.579531      -559.9975 
   9   1.0000     -11.415672      -310.6362 
  10   1.0000     -11.313181      -307.8473 
  11   1.0000     -11.269298      -306.6532 
  12   1.0000     -11.265099      -306.5389 
  13   1.0000     -11.260277      -306.4077 
  14   1.0000     -11.253409      -306.2208 
  15   1.0000     -11.251065      -306.1570 
  16   1.0000     -11.247407      -306.0575 
  17   1.0000     -10.510922      -286.0167 
  18   1.0000     -10.510471      -286.0044 
  19   1.0000     -10.509516      -285.9785 
  20   1.0000      -7.977789      -217.0867 
  21   1.0000      -7.977334      -217.0743 
  22   1.0000      -7.976989      -217.0649 
  23   1.0000      -7.976944      -217.0637 
  24   1.0000      -7.976567      -217.0534 
  25   1.0000      -7.976481      -217.0511 
  26   1.0000      -7.976310      -217.0464 
  27   1.0000      -7.975634      -217.0280 
  28   1.0000      -7.975559      -217.0260 
  29   1.0000      -4.586601      -124.8078 
  30   1.0000      -3.199601       -87.0656 
  31   1.0000      -3.198326       -87.0309 
  32   1.0000      -3.197964       -87.0210 
  33   1.0000      -1.435758       -39.0690 
  34   1.0000      -1.151337       -31.3295 
  35   1.0000      -1.094913       -29.7941 
  36   1.0000      -1.057278       -28.7700 
  37   1.0000      -1.051838       -28.6220 
  38   1.0000      -1.050307       -28.5803 
  39   1.0000      -1.031851       -28.0781 
  40   1.0000      -1.005126       -27.3509 
  41   1.0000      -0.976305       -26.5666 
  42   1.0000      -0.933836       -25.4110 
  43   1.0000      -0.916134       -24.9293 
  44   1.0000      -0.916017       -24.9261 
  45   1.0000      -0.914134       -24.8748 
  46   1.0000      -0.906085       -24.6558 
  47   1.0000      -0.905654       -24.6441 
  48   1.0000      -0.798912       -21.7395 
  49   1.0000      -0.748051       -20.3555 
  50   1.0000      -0.700114       -19.0511 
  51   1.0000      -0.695587       -18.9279 
  52   1.0000      -0.687296       -18.7023 
  53   1.0000      -0.666875       -18.1466 
  54   1.0000      -0.635964       -17.3055 
  55   1.0000      -0.619767       -16.8647 
  56   1.0000      -0.602469       -16.3940 
  57   1.0000      -0.598758       -16.2930 
  58   1.0000      -0.582316       -15.8456 
  59   1.0000      -0.576679       -15.6922 
  60   1.0000      -0.570043       -15.5117 
  61   1.0000      -0.567201       -15.4343 
  62   1.0000      -0.548905       -14.9365 
  63   1.0000      -0.547663       -14.9027 
  64   1.0000      -0.542272       -14.7560 
  65   1.0000      -0.520076       -14.1520 
  66   1.0000      -0.513569       -13.9749 
  67   1.0000      -0.490775       -13.3547 
  68   1.0000      -0.471454       -12.8289 
  69   1.0000      -0.463053       -12.6003 
  70   1.0000      -0.439494       -11.9592 
  71   1.0000      -0.433523       -11.7968 
  72   1.0000      -0.431836       -11.7509 
  73   1.0000      -0.424061       -11.5393 
  74   1.0000      -0.422011       -11.4835 
  75   1.0000      -0.421767       -11.4769 
  76   1.0000      -0.366914        -9.9842 
  77   0.0000       0.011812         0.3214 
  78   0.0000       0.022461         0.6112 
  79   0.0000       0.023337         0.6350 
  80   0.0000       0.030346         0.8258 
  81   0.0000       0.039222         1.0673 
  82   0.0000       0.040505         1.1022 
  83   0.0000       0.042483         1.1560 
  84   0.0000       0.043394         1.1808 
  85   0.0000       0.044212         1.2031 
  86   0.0000       0.056356         1.5335 
  87   0.0000       0.056591         1.5399 
  88   0.0000       0.059702         1.6246 
  89   0.0000       0.064273         1.7490 
  90   0.0000       0.067404         1.8342 
  91   0.0000       0.070198         1.9102 
  92   0.0000       0.072247         1.9659 
  93   0.0000       0.075501         2.0545 
  94   0.0000       0.080768         2.1978 
  95   0.0000       0.089228         2.4280 
  96   0.0000       0.091036         2.4772 
  97   0.0000       0.092482         2.5166 
  98   0.0000       0.099423         2.7054 
  99   0.0000       0.101419         2.7598 
 100   0.0000       0.103185         2.8078 
 101   0.0000       0.108968         2.9652 
 102   0.0000       0.115188         3.1344 
 103   0.0000       0.119765         3.2590 
 104   0.0000       0.123007         3.3472 
 105   0.0000       0.125460         3.4139 
 106   0.0000       0.127828         3.4784 
 107   0.0000       0.128730         3.5029 
 108   0.0000       0.130446         3.5496 
 109   0.0000       0.132821         3.6142 
 110   0.0000       0.135764         3.6943 
 111   0.0000       0.139285         3.7901 
 112   0.0000       0.142980         3.8907 
 113   0.0000       0.147251         4.0069 
 114   0.0000       0.149727         4.0743 
 115   0.0000       0.154241         4.1971 
 116   0.0000       0.156410         4.2561 
 117   0.0000       0.158987         4.3262 
 118   0.0000       0.160530         4.3682 
 119   0.0000       0.168256         4.5785 
 120   0.0000       0.169063         4.6004 
 121   0.0000       0.173035         4.7085 
 122   0.0000       0.174475         4.7477 
 123   0.0000       0.177638         4.8338 
 124   0.0000       0.181614         4.9420 
 125   0.0000       0.183875         5.0035 
 126   0.0000       0.188633         5.1330 
 127   0.0000       0.191455         5.2098 
 128   0.0000       0.193670         5.2700 
 129   0.0000       0.198619         5.4047 
 130   0.0000       0.200174         5.4470 
 131   0.0000       0.204024         5.5518 
 132   0.0000       0.207118         5.6360 
 133   0.0000       0.210279         5.7220 
 134   0.0000       0.211544         5.7564 
 135   0.0000       0.213837         5.8188 
 136   0.0000       0.216603         5.8941 
 137   0.0000       0.222063         6.0426 
 138   0.0000       0.228157         6.2085 
 139   0.0000       0.229714         6.2508 
 140   0.0000       0.233646         6.3578 
 141   0.0000       0.236422         6.4334 
 142   0.0000       0.238874         6.5001 
 143   0.0000       0.242339         6.5944 
 144   0.0000       0.246520         6.7082 
 145   0.0000       0.251559         6.8453 
 146   0.0000       0.253473         6.8974 
 147   0.0000       0.255799         6.9606 
 148   0.0000       0.260396         7.0857 
 149   0.0000       0.263767         7.1775 
 150   0.0000       0.266140         7.2420 
 151   0.0000       0.271875         7.3981 
 152   0.0000       0.274469         7.4687 
 153   0.0000       0.280815         7.6414 
 154   0.0000       0.284663         7.7461 
 155   0.0000       0.287939         7.8352 
 156   0.0000       0.289725         7.8838 
 157   0.0000       0.297193         8.0870 
 158   0.0000       0.298261         8.1161 
 159   0.0000       0.302357         8.2276 
 160   0.0000       0.307433         8.3657 
 161   0.0000       0.309783         8.4296 
 162   0.0000       0.317625         8.6430 
 163   0.0000       0.319978         8.7071 
 164   0.0000       0.324491         8.8299 
 165   0.0000       0.332445         9.0463 
 166   0.0000       0.333688         9.0801 
 167   0.0000       0.336772         9.1640 
 168   0.0000       0.341760         9.2998 
 169   0.0000       0.342614         9.3230 
 170   0.0000       0.353471         9.6184 
 171   0.0000       0.356820         9.7096 
 172   0.0000       0.357247         9.7212 
 173   0.0000       0.361734         9.8433 
 174   0.0000       0.365138         9.9359 
 175   0.0000       0.365607         9.9487 
 176   0.0000       0.368285        10.0215 
 177   0.0000       0.368556        10.0289 
 178   0.0000       0.373581        10.1657 
 179   0.0000       0.376222        10.2375 
 180   0.0000       0.382785        10.4161 
 181   0.0000       0.383283        10.4296 
 182   0.0000       0.387648        10.5485 
 183   0.0000       0.389902        10.6098 
 184   0.0000       0.390193        10.6177 
 185   0.0000       0.393133        10.6977 
 186   0.0000       0.397228        10.8091 
 187   0.0000       0.400399        10.8954 
 188   0.0000       0.405243        11.0272 
 189   0.0000       0.410999        11.1838 
 190   0.0000       0.413167        11.2428 
 191   0.0000       0.416687        11.3386 
 192   0.0000       0.419394        11.4123 
 193   0.0000       0.424029        11.5384 
 194   0.0000       0.430431        11.7126 
 195   0.0000       0.433075        11.7846 
 196   0.0000       0.435325        11.8458 
 197   0.0000       0.439057        11.9473 
 198   0.0000       0.446478        12.1493 
 199   0.0000       0.449122        12.2212 
 200   0.0000       0.453994        12.3538 
 201   0.0000       0.454863        12.3775 
 202   0.0000       0.456453        12.4207 
 203   0.0000       0.464470        12.6389 
 204   0.0000       0.466880        12.7044 
 205   0.0000       0.469171        12.7668 
 206   0.0000       0.473188        12.8761 
 207   0.0000       0.475645        12.9430 
 208   0.0000       0.476056        12.9541 
 209   0.0000       0.479544        13.0490 
 210   0.0000       0.483147        13.1471 
 211   0.0000       0.486777        13.2459 
 212   0.0000       0.491274        13.3683 
 213   0.0000       0.496074        13.4988 
 214   0.0000       0.500087        13.6081 
 215   0.0000       0.503122        13.6906 
 216   0.0000       0.505592        13.7579 
 217   0.0000       0.508490        13.8367 
 218   0.0000       0.509355        13.8603 
 219   0.0000       0.512452        13.9445 
 220   0.0000       0.515830        14.0364 
 221   0.0000       0.520172        14.1546 
 222   0.0000       0.520994        14.1770 
 223   0.0000       0.525862        14.3094 
 224   0.0000       0.528703        14.3867 
 225   0.0000       0.532592        14.4926 
 226   0.0000       0.536508        14.5991 
 227   0.0000       0.540991        14.7211 
 228   0.0000       0.542749        14.7689 
 229   0.0000       0.544457        14.8154 
 230   0.0000       0.552324        15.0295 
 231   0.0000       0.556438        15.1414 
 232   0.0000       0.557890        15.1810 
 233   0.0000       0.562677        15.3112 
 234   0.0000       0.566492        15.4150 
 235   0.0000       0.568525        15.4703 
 236   0.0000       0.569271        15.4907 
 237   0.0000       0.573898        15.6166 
 238   0.0000       0.578154        15.7324 
 239   0.0000       0.581189        15.8150 
 240   0.0000       0.585532        15.9331 
 241   0.0000       0.597496        16.2587 
 242   0.0000       0.600576        16.3425 
 243   0.0000       0.601877        16.3779 
 244   0.0000       0.602613        16.3979 
 245   0.0000       0.611013        16.6265 
 246   0.0000       0.613062        16.6823 
 247   0.0000       0.617691        16.8082 
 248   0.0000       0.622227        16.9316 
 249   0.0000       0.624785        17.0013 
 250   0.0000       0.628568        17.1042 
 251   0.0000       0.633152        17.2289 
 252   0.0000       0.634211        17.2578 
 253   0.0000       0.639002        17.3881 
 254   0.0000       0.641522        17.4567 
 255   0.0000       0.646307        17.5869 
 256   0.0000       0.648087        17.6353 
 257   0.0000       0.649260        17.6673 
 258   0.0000       0.655091        17.8259 
 259   0.0000       0.659661        17.9503 
 260   0.0000       0.662841        18.0368 
 261   0.0000       0.666900        18.1473 
 262   0.0000       0.671916        18.2838 
 263   0.0000       0.672518        18.3001 
 264   0.0000       0.674313        18.3490 
 265   0.0000       0.682378        18.5684 
 266   0.0000       0.688222        18.7275 
 267   0.0000       0.693291        18.8654 
 268   0.0000       0.700748        19.0683 
 269   0.0000       0.704138        19.1606 
 270   0.0000       0.705040        19.1851 
 271   0.0000       0.711215        19.3531 
 272   0.0000       0.716006        19.4835 
 273   0.0000       0.721089        19.6218 
 274   0.0000       0.727760        19.8033 
 275   0.0000       0.729913        19.8620 
 276   0.0000       0.732182        19.9237 
 277   0.0000       0.737440        20.0668 
 278   0.0000       0.741949        20.1895 
 279   0.0000       0.748022        20.3547 
 280   0.0000       0.754419        20.5288 
 281   0.0000       0.756659        20.5897 
 282   0.0000       0.762821        20.7574 
 283   0.0000       0.772768        21.0281 
 284   0.0000       0.777968        21.1696 
 285   0.0000       0.784071        21.3357 
 286   0.0000       0.785709        21.3802 
 287   0.0000       0.795566        21.6485 
 288   0.0000       0.800190        21.7743 
 289   0.0000       0.806677        21.9508 
 290   0.0000       0.809817        22.0362 
 291   0.0000       0.821534        22.3551 
 292   0.0000       0.825506        22.4632 
 293   0.0000       0.830033        22.5863 
 294   0.0000       0.834336        22.7034 
 295   0.0000       0.838456        22.8156 
 296   0.0000       0.848409        23.0864 
 297   0.0000       0.853835        23.2340 
 298   0.0000       0.857578        23.3359 
 299   0.0000       0.859771        23.3956 
 300   0.0000       0.866721        23.5847 
 301   0.0000       0.872449        23.7405 
 302   0.0000       0.878925        23.9168 
 303   0.0000       0.881089        23.9757 
 304   0.0000       0.889302        24.1991 
 305   0.0000       0.889521        24.2051 
 306   0.0000       0.891488        24.2586 
 307   0.0000       0.891872        24.2691 
 308   0.0000       0.895183        24.3592 
 309   0.0000       0.901615        24.5342 
 310   0.0000       0.907208        24.6864 
 311   0.0000       0.912467        24.8295 
 312   0.0000       0.916979        24.9523 
 313   0.0000       0.918520        24.9942 
 314   0.0000       0.921473        25.0746 
 315   0.0000       0.929238        25.2858 
 316   0.0000       0.933488        25.4015 
 317   0.0000       0.939586        25.5674 
 318   0.0000       0.940105        25.5816 
 319   0.0000       0.945330        25.7237 
 320   0.0000       0.950597        25.8670 
 321   0.0000       0.953207        25.9381 
 322   0.0000       0.955231        25.9931 
 323   0.0000       0.957360        26.0511 
 324   0.0000       0.963236        26.2110 
 325   0.0000       0.970581        26.4108 
 326   0.0000       0.971696        26.4412 
 327   0.0000       0.975536        26.5457 
 328   0.0000       0.979937        26.6654 
 329   0.0000       0.981615        26.7111 
 330   0.0000       0.985822        26.8256 
 331   0.0000       0.987658        26.8755 
 332   0.0000       0.990606        26.9558 
 333   0.0000       0.994576        27.0638 
 334   0.0000       0.998803        27.1788 
 335   0.0000       1.003423        27.3045 
 336   0.0000       1.005809        27.3695 
 337   0.0000       1.010014        27.4839 
 338   0.0000       1.013423        27.5766 
 339   0.0000       1.016208        27.6524 
 340   0.0000       1.018332        27.7102 
 341   0.0000       1.022114        27.8131 
 342   0.0000       1.026218        27.9248 
 343   0.0000       1.033104        28.1122 
 344   0.0000       1.035250        28.1706 
 345   0.0000       1.037642        28.2357 
 346   0.0000       1.041335        28.3362 
 347   0.0000       1.042791        28.3758 
 348   0.0000       1.049471        28.5576 
 349   0.0000       1.052540        28.6411 
 350   0.0000       1.056319        28.7439 
 351   0.0000       1.057945        28.7881 
 352   0.0000       1.061300        28.8794 
 353   0.0000       1.061989        28.8982 
 354   0.0000       1.067663        29.0526 
 355   0.0000       1.075179        29.2571 
 356   0.0000       1.076466        29.2921 
 357   0.0000       1.081080        29.4177 
 358   0.0000       1.085075        29.5264 
 359   0.0000       1.090449        29.6726 
 360   0.0000       1.094495        29.7827 
 361   0.0000       1.097253        29.8578 
 362   0.0000       1.104545        30.0562 
 363   0.0000       1.106250        30.1026 
 364   0.0000       1.110891        30.2289 
 365   0.0000       1.115279        30.3483 
 366   0.0000       1.119346        30.4590 
 367   0.0000       1.127327        30.6761 
 368   0.0000       1.133419        30.8419 
 369   0.0000       1.134903        30.8823 
 370   0.0000       1.139804        31.0156 
 371   0.0000       1.141491        31.0615 
 372   0.0000       1.149786        31.2873 
 373   0.0000       1.153567        31.3901 
 374   0.0000       1.157468        31.4963 
 375   0.0000       1.160174        31.5699 
 376   0.0000       1.164237        31.6805 
 377   0.0000       1.169459        31.8226 
 378   0.0000       1.175382        31.9838 
 379   0.0000       1.180691        32.1282 
 380   0.0000       1.183723        32.2107 
 381   0.0000       1.188016        32.3276 
 382   0.0000       1.194829        32.5130 
 383   0.0000       1.198887        32.6234 
 384   0.0000       1.204012        32.7628 
 385   0.0000       1.207323        32.8529 
 386   0.0000       1.210406        32.9368 
 387   0.0000       1.216811        33.1111 
 388   0.0000       1.219755        33.1912 
 389   0.0000       1.225537        33.3485 
 390   0.0000       1.232010        33.5247 
 391   0.0000       1.233913        33.5765 
 392   0.0000       1.240196        33.7474 
 393   0.0000       1.241185        33.7744 
 394   0.0000       1.245614        33.8949 
 395   0.0000       1.253352        34.1054 
 396   0.0000       1.261101        34.3163 
 397   0.0000       1.265584        34.4383 
 398   0.0000       1.267698        34.4958 
 399   0.0000       1.274719        34.6869 
 400   0.0000       1.279872        34.8271 
 401   0.0000       1.284445        34.9515 
 402   0.0000       1.290100        35.1054 
 403   0.0000       1.300343        35.3841 
 404   0.0000       1.303870        35.4801 
 405   0.0000       1.306611        35.5547 
 406   0.0000       1.310991        35.6739 
 407   0.0000       1.314067        35.7576 
 408   0.0000       1.318543        35.8794 
 409   0.0000       1.325257        36.0621 
 410   0.0000       1.331828        36.2409 
 411   0.0000       1.337656        36.3995 
 412   0.0000       1.344125        36.5755 
 413   0.0000       1.346600        36.6429 
 414   0.0000       1.348896        36.7053 
 415   0.0000       1.354406        36.8553 
 416   0.0000       1.361655        37.0525 
 417   0.0000       1.365317        37.1522 
 418   0.0000       1.369668        37.2706 
 419   0.0000       1.377076        37.4721 
 420   0.0000       1.385699        37.7068 
 421   0.0000       1.392027        37.8790 
 422   0.0000       1.396605        38.0035 
 423   0.0000       1.401028        38.1239 
 424   0.0000       1.407866        38.3100 
 425   0.0000       1.413686        38.4684 
 426   0.0000       1.416496        38.5448 
 427   0.0000       1.422838        38.7174 
 428   0.0000       1.427366        38.8406 
 429   0.0000       1.432755        38.9872 
 430   0.0000       1.441027        39.2123 
 431   0.0000       1.443463        39.2786 
 432   0.0000       1.448267        39.4094 
 433   0.0000       1.452936        39.5364 
 434   0.0000       1.455859        39.6159 
 435   0.0000       1.458593        39.6903 
 436   0.0000       1.467340        39.9284 
 437   0.0000       1.478949        40.2442 
 438   0.0000       1.482049        40.3286 
 439   0.0000       1.485592        40.4250 
 440   0.0000       1.488490        40.5039 
 441   0.0000       1.498756        40.7832 
 442   0.0000       1.501309        40.8527 
 443   0.0000       1.507623        41.0245 
 444   0.0000       1.513479        41.1839 
 445   0.0000       1.518171        41.3115 
 446   0.0000       1.524828        41.4927 
 447   0.0000       1.527838        41.5746 
 448   0.0000       1.532740        41.7080 
 449   0.0000       1.538974        41.8776 
 450   0.0000       1.542420        41.9714 
 451   0.0000       1.546661        42.0868 
 452   0.0000       1.550911        42.2024 
 453   0.0000       1.554968        42.3128 
 454   0.0000       1.558320        42.4040 
 455   0.0000       1.570280        42.7295 
 456   0.0000       1.578728        42.9594 
 457   0.0000       1.582350        43.0579 
 458   0.0000       1.585950        43.1559 
 459   0.0000       1.587324        43.1933 
 460   0.0000       1.594112        43.3780 
 461   0.0000       1.600256        43.5452 
 462   0.0000       1.601586        43.5814 
 463   0.0000       1.603735        43.6398 
 464   0.0000       1.611880        43.8615 
 465   0.0000       1.619739        44.0753 
 466   0.0000       1.623627        44.1811 
 467   0.0000       1.628669        44.3183 
 468   0.0000       1.639554        44.6145 
 469   0.0000       1.642158        44.6854 
 470   0.0000       1.646754        44.8105 
 471   0.0000       1.656145        45.0660 
 472   0.0000       1.661378        45.2084 
 473   0.0000       1.664681        45.2983 
 474   0.0000       1.671658        45.4881 
 475   0.0000       1.678928        45.6860 
 476   0.0000       1.681444        45.7544 
 477   0.0000       1.683350        45.8063 
 478   0.0000       1.697647        46.1953 
 479   0.0000       1.699784        46.2535 
 480   0.0000       1.707127        46.4533 
 481   0.0000       1.710829        46.5540 
 482   0.0000       1.712801        46.6077 
 483   0.0000       1.717545        46.7368 
 484   0.0000       1.725463        46.9522 
 485   0.0000       1.730373        47.0859 
 486   0.0000       1.732879        47.1540 
 487   0.0000       1.738465        47.3060 
 488   0.0000       1.743198        47.4348 
 489   0.0000       1.751133        47.6507 
 490   0.0000       1.756542        47.7979 
 491   0.0000       1.762706        47.9657 
 492   0.0000       1.764905        48.0255 
 493   0.0000       1.767309        48.0909 
 494   0.0000       1.779123        48.4124 
 495   0.0000       1.779441        48.4211 
 496   0.0000       1.782279        48.4983 
 497   0.0000       1.787550        48.6417 
 498   0.0000       1.793801        48.8118 
 499   0.0000       1.797809        48.9209 
 500   0.0000       1.804270        49.0967 
 501   0.0000       1.807060        49.1726 
 502   0.0000       1.810726        49.2723 
 503   0.0000       1.819235        49.5039 
 504   0.0000       1.822154        49.5833 
 505   0.0000       1.827951        49.7411 
 506   0.0000       1.836572        49.9757 
 507   0.0000       1.837865        50.0108 
 508   0.0000       1.850399        50.3519 
 509   0.0000       1.855388        50.4877 
 510   0.0000       1.859332        50.5950 
 511   0.0000       1.865379        50.7595 
 512   0.0000       1.869876        50.8819 
 513   0.0000       1.877327        51.0847 
 514   0.0000       1.878573        51.1186 
 515   0.0000       1.881998        51.2118 
 516   0.0000       1.887041        51.3490 
 517   0.0000       1.890991        51.4565 
 518   0.0000       1.896013        51.5931 
 519   0.0000       1.905419        51.8491 
 520   0.0000       1.906905        51.8895 
 521   0.0000       1.915836        52.1326 
 522   0.0000       1.923189        52.3326 
 523   0.0000       1.929572        52.5063 
 524   0.0000       1.936282        52.6889 
 525   0.0000       1.938175        52.7404 
 526   0.0000       1.941711        52.8366 
 527   0.0000       1.943474        52.8846 
 528   0.0000       1.954007        53.1712 
 529   0.0000       1.957783        53.2740 
 530   0.0000       1.962415        53.4000 
 531   0.0000       1.969583        53.5951 
 532   0.0000       1.983125        53.9636 
 533   0.0000       1.991730        54.1977 
 534   0.0000       1.995533        54.3012 
 535   0.0000       1.997305        54.3494 
 536   0.0000       2.005453        54.5711 
 537   0.0000       2.014394        54.8145 
 538   0.0000       2.021877        55.0181 
 539   0.0000       2.023942        55.0743 
 540   0.0000       2.027586        55.1734 
 541   0.0000       2.032533        55.3080 
 542   0.0000       2.038448        55.4690 
 543   0.0000       2.040574        55.5269 
 544   0.0000       2.054418        55.9036 
 545   0.0000       2.060629        56.0726 
 546   0.0000       2.069411        56.3115 
 547   0.0000       2.073215        56.4150 
 548   0.0000       2.080400        56.6106 
 549   0.0000       2.085795        56.7574 
 550   0.0000       2.089166        56.8491 
 551   0.0000       2.101702        57.1902 
 552   0.0000       2.102048        57.1996 
 553   0.0000       2.107451        57.3467 
 554   0.0000       2.115686        57.5707 
 555   0.0000       2.121001        57.7154 
 556   0.0000       2.129977        57.9596 
 557   0.0000       2.140502        58.2460 
 558   0.0000       2.144818        58.3635 
 559   0.0000       2.155511        58.6544 
 560   0.0000       2.160902        58.8011 
 561   0.0000       2.167852        58.9902 
 562   0.0000       2.169990        59.0484 
 563   0.0000       2.182058        59.3768 
 564   0.0000       2.188031        59.5394 
 565   0.0000       2.195154        59.7332 
 566   0.0000       2.211821        60.1867 
 567   0.0000       2.216683        60.3190 
 568   0.0000       2.217621        60.3445 
 569   0.0000       2.228580        60.6428 
 570   0.0000       2.233226        60.7692 
 571   0.0000       2.237092        60.8744 
 572   0.0000       2.252390        61.2907 
 573   0.0000       2.256420        61.4003 
 574   0.0000       2.263761        61.6001 
 575   0.0000       2.265029        61.6346 
 576   0.0000       2.274607        61.8952 
 577   0.0000       2.278397        61.9983 
 578   0.0000       2.289939        62.3124 
 579   0.0000       2.293776        62.4168 
 580   0.0000       2.295956        62.4761 
 581   0.0000       2.302209        62.6463 
 582   0.0000       2.312208        62.9184 
 583   0.0000       2.314026        62.9679 
 584   0.0000       2.327134        63.3245 
 585   0.0000       2.338591        63.6363 
 586   0.0000       2.339637        63.6648 
 587   0.0000       2.351453        63.9863 
 588   0.0000       2.362040        64.2744 
 589   0.0000       2.372855        64.5687 
 590   0.0000       2.376037        64.6552 
 591   0.0000       2.382471        64.8303 
 592   0.0000       2.392991        65.1166 
 593   0.0000       2.398653        65.2707 
 594   0.0000       2.408294        65.5330 
 595   0.0000       2.419458        65.8368 
 596   0.0000       2.430264        66.1309 
 597   0.0000       2.434629        66.2496 
 598   0.0000       2.444101        66.5074 
 599   0.0000       2.449862        66.6641 
 600   0.0000       2.456460        66.8437 
 601   0.0000       2.473639        67.3111 
 602   0.0000       2.475307        67.3565 
 603   0.0000       2.483400        67.5767 
 604   0.0000       2.487671        67.6930 
 605   0.0000       2.498675        67.9924 
 606   0.0000       2.503477        68.1231 
 607   0.0000       2.513688        68.4009 
 608   0.0000       2.531747        68.8923 
 609   0.0000       2.550770        69.4100 
 610   0.0000       2.557834        69.6022 
 611   0.0000       2.564919        69.7950 
 612   0.0000       2.575943        70.0950 
 613   0.0000       2.593728        70.5789 
 614   0.0000       2.600034        70.7505 
 615   0.0000       2.609159        70.9988 
 616   0.0000       2.610130        71.0253 
 617   0.0000       2.627658        71.5022 
 618   0.0000       2.641743        71.8855 
 619   0.0000       2.660334        72.3914 
 620   0.0000       2.665550        72.5333 
 621   0.0000       2.677442        72.8569 
 622   0.0000       2.681461        72.9663 
 623   0.0000       2.694389        73.3181 
 624   0.0000       2.697499        73.4027 
 625   0.0000       2.700612        73.4874 
 626   0.0000       2.711408        73.7812 
 627   0.0000       2.722019        74.0699 
 628   0.0000       2.731420        74.3257 
 629   0.0000       2.739329        74.5409 
 630   0.0000       2.744925        74.6932 
 631   0.0000       2.760967        75.1297 
 632   0.0000       2.767797        75.3156 
 633   0.0000       2.775375        75.5218 
 634   0.0000       2.780096        75.6503 
 635   0.0000       2.789039        75.8936 
 636   0.0000       2.796062        76.0847 
 637   0.0000       2.818003        76.6817 
 638   0.0000       2.830563        77.0235 
 639   0.0000       2.841326        77.3164 
 640   0.0000       2.855681        77.7070 
 641   0.0000       2.868628        78.0593 
 642   0.0000       2.876127        78.2634 
 643   0.0000       2.894778        78.7709 
 644   0.0000       2.905927        79.0743 
 645   0.0000       2.910284        79.1929 
 646   0.0000       2.935958        79.8915 
 647   0.0000       2.953315        80.3638 
 648   0.0000       2.956704        80.4560 
 649   0.0000       2.977706        81.0275 
 650   0.0000       2.988113        81.3107 
 651   0.0000       2.997229        81.5587 
 652   0.0000       3.015121        82.0456 
 653   0.0000       3.019044        82.1524 
 654   0.0000       3.030552        82.4655 
 655   0.0000       3.054986        83.1304 
 656   0.0000       3.058404        83.2234 
 657   0.0000       3.078686        83.7753 
 658   0.0000       3.093886        84.1889 
 659   0.0000       3.107924        84.5709 
 660   0.0000       3.116728        84.8105 
 661   0.0000       3.123869        85.0048 
 662   0.0000       3.152644        85.7878 
 663   0.0000       3.165076        86.1261 
 664   0.0000       3.176749        86.4437 
 665   0.0000       3.198053        87.0235 
 666   0.0000       3.212457        87.4154 
 667   0.0000       3.217861        87.5624 
 668   0.0000       3.223048        87.7036 
 669   0.0000       3.227085        87.8134 
 670   0.0000       3.238117        88.1136 
 671   0.0000       3.245949        88.3268 
 672   0.0000       3.262578        88.7793 
 673   0.0000       3.268972        88.9533 
 674   0.0000       3.278290        89.2068 
 675   0.0000       3.289875        89.5221 
 676   0.0000       3.298727        89.7629 
 677   0.0000       3.307124        89.9914 
 678   0.0000       3.313454        90.1637 
 679   0.0000       3.314581        90.1943 
 680   0.0000       3.324699        90.4697 
 681   0.0000       3.335525        90.7642 
 682   0.0000       3.350707        91.1774 
 683   0.0000       3.352768        91.2335 
 684   0.0000       3.363127        91.5153 
 685   0.0000       3.376209        91.8713 
 686   0.0000       3.395899        92.4071 
 687   0.0000       3.399575        92.5071 
 688   0.0000       3.407321        92.7179 
 689   0.0000       3.421344        93.0995 
 690   0.0000       3.428185        93.2856 
 691   0.0000       3.434957        93.4699 
 692   0.0000       3.442102        93.6643 
 693   0.0000       3.457875        94.0936 
 694   0.0000       3.472669        94.4961 
 695   0.0000       3.476350        94.5963 
 696   0.0000       3.488790        94.9348 
 697   0.0000       3.490749        94.9881 
 698   0.0000       3.496031        95.1319 
 699   0.0000       3.508422        95.4690 
 700   0.0000       3.513179        95.5984 
 701   0.0000       3.526347        95.9568 
 702   0.0000       3.533185        96.1429 
 703   0.0000       3.553977        96.7086 
 704   0.0000       3.559916        96.8702 
 705   0.0000       3.565143        97.0125 
 706   0.0000       3.573211        97.2320 
 707   0.0000       3.578827        97.3848 
 708   0.0000       3.582609        97.4877 
 709   0.0000       3.592263        97.7504 
 710   0.0000       3.603421        98.0541 
 711   0.0000       3.620927        98.5304 
 712   0.0000       3.627653        98.7134 
 713   0.0000       3.629245        98.7568 
 714   0.0000       3.639033        99.0231 
 715   0.0000       3.646588        99.2287 
 716   0.0000       3.656690        99.5036 
 717   0.0000       3.660807        99.6156 
 718   0.0000       3.668234        99.8177 
 719   0.0000       3.677995       100.0833 
 720   0.0000       3.689500       100.3964 
 721   0.0000       3.692087       100.4668 
 722   0.0000       3.699325       100.6638 
 723   0.0000       3.709813       100.9491 
 724   0.0000       3.715321       101.0990 
 725   0.0000       3.721176       101.2583 
 726   0.0000       3.731132       101.5293 
 727   0.0000       3.743755       101.8727 
 728   0.0000       3.746364       101.9438 
 729   0.0000       3.755017       102.1792 
 730   0.0000       3.759513       102.3016 
 731   0.0000       3.769246       102.5664 
 732   0.0000       3.774000       102.6958 
 733   0.0000       3.783460       102.9532 
 734   0.0000       3.788282       103.0844 
 735   0.0000       3.794052       103.2414 
 736   0.0000       3.796357       103.3041 
 737   0.0000       3.803741       103.5051 
 738   0.0000       3.820097       103.9501 
 739   0.0000       3.827721       104.1576 
 740   0.0000       3.832505       104.2878 
 741   0.0000       3.839019       104.4650 
 742   0.0000       3.847861       104.7056 
 743   0.0000       3.850483       104.7770 
 744   0.0000       3.856656       104.9449 
 745   0.0000       3.862678       105.1088 
 746   0.0000       3.876637       105.4886 
 747   0.0000       3.889652       105.8428 
 748   0.0000       3.896874       106.0393 
 749   0.0000       3.898897       106.0944 
 750   0.0000       3.904612       106.2499 
 751   0.0000       3.912033       106.4518 
 752   0.0000       3.924160       106.7818 
 753   0.0000       3.931269       106.9753 
 754   0.0000       3.936223       107.1101 
 755   0.0000       3.940228       107.2190 
 756   0.0000       3.945554       107.3640 
 757   0.0000       3.946826       107.3986 
 758   0.0000       3.965109       107.8961 
 759   0.0000       3.970362       108.0391 
 760   0.0000       3.975827       108.1878 
 761   0.0000       3.989263       108.5534 
 762   0.0000       3.990616       108.5902 
 763   0.0000       3.994588       108.6983 
 764   0.0000       4.006031       109.0096 
 765   0.0000       4.009482       109.1035 
 766   0.0000       4.028108       109.6104 
 767   0.0000       4.030895       109.6862 
 768   0.0000       4.034151       109.7748 
 769   0.0000       4.043633       110.0329 
 770   0.0000       4.056365       110.3793 
 771   0.0000       4.060873       110.5020 
 772   0.0000       4.062548       110.5476 
 773   0.0000       4.073299       110.8401 
 774   0.0000       4.085350       111.1680 
 775   0.0000       4.095606       111.4471 
 776   0.0000       4.100138       111.5704 
 777   0.0000       4.106493       111.7434 
 778   0.0000       4.110338       111.8480 
 779   0.0000       4.120585       112.1268 
 780   0.0000       4.127939       112.3269 
 781   0.0000       4.129618       112.3726 
 782   0.0000       4.137741       112.5936 
 783   0.0000       4.150810       112.9493 
 784   0.0000       4.164303       113.3164 
 785   0.0000       4.165382       113.3458 
 786   0.0000       4.174815       113.6025 
 787   0.0000       4.180179       113.7484 
 788   0.0000       4.191844       114.0659 
 789   0.0000       4.209400       114.5436 
 790   0.0000       4.214843       114.6917 
 791   0.0000       4.219084       114.8071 
 792   0.0000       4.225667       114.9862 
 793   0.0000       4.239165       115.3535 
 794   0.0000       4.243188       115.4630 
 795   0.0000       4.250343       115.6577 
 796   0.0000       4.258458       115.8785 
 797   0.0000       4.268381       116.1485 
 798   0.0000       4.278691       116.4291 
 799   0.0000       4.287106       116.6581 
 800   0.0000       4.290322       116.7456 
 801   0.0000       4.301446       117.0483 
 802   0.0000       4.307829       117.2220 
 803   0.0000       4.317165       117.4760 
 804   0.0000       4.327659       117.7616 
 805   0.0000       4.332435       117.8916 
 806   0.0000       4.346547       118.2756 
 807   0.0000       4.351540       118.4114 
 808   0.0000       4.355732       118.5255 
 809   0.0000       4.373156       118.9996 
 810   0.0000       4.380456       119.1983 
 811   0.0000       4.388315       119.4121 
 812   0.0000       4.405524       119.8804 
 813   0.0000       4.414161       120.1154 
 814   0.0000       4.422099       120.3314 
 815   0.0000       4.433801       120.6499 
 816   0.0000       4.438784       120.7855 
 817   0.0000       4.446449       120.9940 
 818   0.0000       4.450021       121.0912 
 819   0.0000       4.461560       121.4052 
 820   0.0000       4.468865       121.6040 
 821   0.0000       4.479935       121.9052 
 822   0.0000       4.482678       121.9799 
 823   0.0000       4.488904       122.1493 
 824   0.0000       4.503115       122.5360 
 825   0.0000       4.515604       122.8758 
 826   0.0000       4.522148       123.0539 
 827   0.0000       4.533032       123.3501 
 828   0.0000       4.549136       123.7883 
 829   0.0000       4.554697       123.9396 
 830   0.0000       4.561311       124.1196 
 831   0.0000       4.575062       124.4938 
 832   0.0000       4.584595       124.7532 
 833   0.0000       4.599349       125.1547 
 834   0.0000       4.602383       125.2372 
 835   0.0000       4.617439       125.6469 
 836   0.0000       4.629103       125.9643 
 837   0.0000       4.635649       126.1424 
 838   0.0000       4.661342       126.8416 
 839   0.0000       4.664326       126.9228 
 840   0.0000       4.678004       127.2950 
 841   0.0000       4.689344       127.6036 
 842   0.0000       4.708690       128.1300 
 843   0.0000       4.713015       128.2477 
 844   0.0000       4.724261       128.5537 
 845   0.0000       4.734809       128.8407 
 846   0.0000       4.743238       129.0701 
 847   0.0000       4.765363       129.6721 
 848   0.0000       4.772421       129.8642 
 849   0.0000       4.779079       130.0454 
 850   0.0000       4.788249       130.2949 
 851   0.0000       4.802232       130.6754 
 852   0.0000       4.807916       130.8300 
 853   0.0000       4.820547       131.1738 
 854   0.0000       4.836611       131.6109 
 855   0.0000       4.856728       132.1583 
 856   0.0000       4.863120       132.3322 
 857   0.0000       4.866099       132.4133 
 858   0.0000       4.877335       132.7190 
 859   0.0000       4.895636       133.2170 
 860   0.0000       4.904840       133.4675 
 861   0.0000       4.918800       133.8473 
 862   0.0000       4.922370       133.9445 
 863   0.0000       4.934966       134.2872 
 864   0.0000       4.951448       134.7357 
 865   0.0000       4.959501       134.9549 
 866   0.0000       4.969474       135.2263 
 867   0.0000       4.991126       135.8154 
 868   0.0000       4.995035       135.9218 
 869   0.0000       5.002393       136.1220 
 870   0.0000       5.013985       136.4375 
 871   0.0000       5.025609       136.7538 
 872   0.0000       5.037249       137.0705 
 873   0.0000       5.043230       137.2333 
 874   0.0000       5.054167       137.5309 
 875   0.0000       5.065615       137.8424 
 876   0.0000       5.078706       138.1986 
 877   0.0000       5.087446       138.4364 
 878   0.0000       5.105610       138.9307 
 879   0.0000       5.113929       139.1571 
 880   0.0000       5.129434       139.5790 
 881   0.0000       5.135935       139.7559 
 882   0.0000       5.150598       140.1549 
 883   0.0000       5.161084       140.4402 
 884   0.0000       5.178057       140.9021 
 885   0.0000       5.194640       141.3533 
 886   0.0000       5.206045       141.6637 
 887   0.0000       5.216989       141.9615 
 888   0.0000       5.236462       142.4914 
 889   0.0000       5.240604       142.6041 
 890   0.0000       5.246727       142.7707 
 891   0.0000       5.260802       143.1537 
 892   0.0000       5.271644       143.4487 
 893   0.0000       5.293525       144.0441 
 894   0.0000       5.299078       144.1952 
 895   0.0000       5.305046       144.3576 
 896   0.0000       5.320127       144.7680 
 897   0.0000       5.334473       145.1584 
 898   0.0000       5.362542       145.9222 
 899   0.0000       5.364562       145.9771 
 900   0.0000       5.389756       146.6627 
 901   0.0000       5.395236       146.8118 
 902   0.0000       5.398999       146.9142 
 903   0.0000       5.415840       147.3725 
 904   0.0000       5.423773       147.5884 
 905   0.0000       5.429580       147.7464 
 906   0.0000       5.433351       147.8490 
 907   0.0000       5.456338       148.4745 
 908   0.0000       5.463057       148.6573 
 909   0.0000       5.472855       148.9240 
 910   0.0000       5.480925       149.1436 
 911   0.0000       5.507106       149.8560 
 912   0.0000       5.516593       150.1141 
 913   0.0000       5.544385       150.8704 
 914   0.0000       5.548000       150.9687 
 915   0.0000       5.564908       151.4289 
 916   0.0000       5.572105       151.6247 
 917   0.0000       5.579550       151.8273 
 918   0.0000       5.584912       151.9732 
 919   0.0000       5.611766       152.7039 
 920   0.0000       5.625107       153.0669 
 921   0.0000       5.633124       153.2851 
 922   0.0000       5.638431       153.4295 
 923   0.0000       5.645811       153.6303 
 924   0.0000       5.662580       154.0866 
 925   0.0000       5.667194       154.2122 
 926   0.0000       5.676910       154.4766 
 927   0.0000       5.684956       154.6955 
 928   0.0000       5.699162       155.0821 
 929   0.0000       5.717079       155.5696 
 930   0.0000       5.730261       155.9283 
 931   0.0000       5.736359       156.0943 
 932   0.0000       5.747025       156.3845 
 933   0.0000       5.757332       156.6650 
 934   0.0000       5.770984       157.0365 
 935   0.0000       5.783781       157.3847 
 936   0.0000       5.793080       157.6377 
 937   0.0000       5.822983       158.4514 
 938   0.0000       5.827789       158.5822 
 939   0.0000       5.845146       159.0545 
 940   0.0000       5.863268       159.5476 
 941   0.0000       5.882232       160.0637 
 942   0.0000       5.904492       160.6694 
 943   0.0000       5.931844       161.4137 
 944   0.0000       5.968594       162.4137 
 945   0.0000       5.987575       162.9302 
 946   0.0000       6.041220       164.3899 
 947   0.0000       6.111624       166.3057 
 948   0.0000       6.117879       166.4759 
 949   0.0000       6.138397       167.0343 
 950   0.0000       6.164144       167.7349 
 951   0.0000       6.179806       168.1611 
 952   0.0000       6.200571       168.7261 
 953   0.0000       6.210096       168.9853 
 954   0.0000       6.237556       169.7325 
 955   0.0000       6.248229       170.0230 
 956   0.0000       6.263507       170.4387 
 957   0.0000       6.269541       170.6029 
 958   0.0000       6.277764       170.8266 
 959   0.0000       6.301238       171.4654 
 960   0.0000       6.317148       171.8983 
 961   0.0000       6.321785       172.0245 
 962   0.0000       6.349888       172.7892 
 963   0.0000       6.361622       173.1085 
 964   0.0000       6.384623       173.7344 
 965   0.0000       6.409208       174.4034 
 966   0.0000       6.433238       175.0573 
 967   0.0000       6.446386       175.4151 
 968   0.0000       6.521788       177.4669 
 969   0.0000       6.533229       177.7782 
 970   0.0000       6.616840       180.0534 
 971   0.0000       6.693424       182.1373 
 972   0.0000       6.848016       186.3440 
 973   0.0000       6.868508       186.9016 
 974   0.0000       6.876984       187.1322 
 975   0.0000       6.910132       188.0343 
 976   0.0000       6.951579       189.1621 
 977   0.0000       6.969125       189.6395 
 978   0.0000       6.991914       190.2596 
 979   0.0000       7.001489       190.5202 
 980   0.0000       7.008362       190.7072 
 981   0.0000       7.039033       191.5418 
 982   0.0000       7.063633       192.2112 
 983   0.0000       7.093819       193.0326 
 984   0.0000       7.161914       194.8856 
 985   0.0000       7.244210       197.1250 
 986   0.0000       7.385831       200.9787 
 987   0.0000       7.431438       202.2197 
 988   0.0000       7.496798       203.9983 
 989   0.0000       7.550803       205.4678 
 990   0.0000       7.567866       205.9321 
 991   0.0000       7.611021       207.1064 
 992   0.0000       7.676963       208.9008 
 993   0.0000       7.742341       210.6798 
 994   0.0000       7.850532       213.6238 
 995   0.0000       7.919613       215.5036 
 996   0.0000       8.052145       219.1100 
 997   0.0000       8.117788       220.8962 
 998   0.0000       8.293060       225.6656 
 999   0.0000       9.421148       256.3625 
 1000   0.0000       9.450196       257.1529 
 1001   0.0000       9.454772       257.2774 
 1002   0.0000       9.460297       257.4278 
 1003   0.0000       9.476882       257.8791 
 1004   0.0000       9.499678       258.4994 
 1005   0.0000       9.718076       264.4423 
 1006   0.0000      10.087986       274.5080 
 1007   0.0000      10.121620       275.4233 
 1008   0.0000      10.131554       275.6936 
 1009   0.0000      10.211964       277.8817 
 1010   0.0000      10.217803       278.0406 
 1011   0.0000      10.259950       279.1874 
 1012   0.0000      10.366205       282.0788 
 1013   0.0000      10.413704       283.3713 
 1014   0.0000      10.520900       286.2883 
 1015   0.0000      17.261319       469.7044 
 1016   0.0000      18.072056       491.7657 
 1017   0.0000      18.296040       497.8606 
 1018   0.0000      18.638959       507.1919 
 1019   0.0000      18.827819       512.3310 
 1020   0.0000      19.075291       519.0650 
 1021   0.0000      19.338048       526.2150 
 1022   0.0000      20.474496       557.1393 
 1023   0.0000      21.460791       583.9778 
 1024   0.0000      21.963476       597.6566 

                 SPIN DOWN ORBITALS
  NO   OCC          E(Eh)            E(eV) 
   0   1.0000    -261.559941     -7117.4078 
   1   1.0000    -104.782836     -2851.2859 
   2   1.0000    -104.782417     -2851.2745 
   3   1.0000    -104.781513     -2851.2499 
   4   1.0000     -32.069309      -872.6503 
   5   1.0000     -27.547250      -749.5988 
   6   1.0000     -27.547198      -749.5974 
   7   1.0000     -27.546913      -749.5896 
   8   1.0000     -20.575190      -559.8794 
   9   1.0000     -11.415525      -310.6322 
  10   1.0000     -11.313293      -307.8503 
  11   1.0000     -11.269206      -306.6507 
  12   1.0000     -11.265077      -306.5383 
  13   1.0000     -11.259882      -306.3970 
  14   1.0000     -11.253453      -306.2220 
  15   1.0000     -11.251040      -306.1564 
  16   1.0000     -11.247413      -306.0577 
  17   1.0000     -10.509372      -285.9745 
  18   1.0000     -10.508900      -285.9617 
  19   1.0000     -10.507974      -285.9365 
  20   1.0000      -7.975273      -217.0182 
  21   1.0000      -7.974798      -217.0053 
  22   1.0000      -7.974632      -217.0008 
  23   1.0000      -7.974561      -216.9988 
  24   1.0000      -7.974160      -216.9879 
  25   1.0000      -7.974063      -216.9853 
  26   1.0000      -7.973961      -216.9825 
  27   1.0000      -7.973180      -216.9613 
  28   1.0000      -7.973090      -216.9588 
  29   1.0000      -4.144386      -112.7745 
  30   1.0000      -2.666039       -72.5466 
  31   1.0000      -2.665939       -72.5439 
  32   1.0000      -2.665594       -72.5345 
  33   1.0000      -1.424720       -38.7686 
  34   1.0000      -1.150527       -31.3074 
  35   1.0000      -1.092313       -29.7234 
  36   1.0000      -1.042282       -28.3619 
  37   1.0000      -1.031392       -28.0656 
  38   1.0000      -1.030283       -28.0354 
  39   1.0000      -1.029281       -28.0082 
  40   1.0000      -1.004329       -27.3292 
  41   1.0000      -0.976219       -26.5643 
  42   1.0000      -0.915923       -24.9235 
  43   1.0000      -0.812886       -22.1198 
  44   1.0000      -0.748105       -20.3570 
  45   1.0000      -0.701751       -19.0956 
  46   1.0000      -0.697156       -18.9706 
  47   1.0000      -0.685406       -18.6509 
  48   1.0000      -0.666784       -18.1441 
  49   1.0000      -0.635898       -17.3037 
  50   1.0000      -0.619566       -16.8592 
  51   1.0000      -0.601894       -16.3784 
  52   1.0000      -0.598701       -16.2915 
  53   1.0000      -0.581966       -15.8361 
  54   1.0000      -0.576266       -15.6810 
  55   1.0000      -0.569963       -15.5095 
  56   1.0000      -0.566917       -15.4266 
  57   1.0000      -0.548439       -14.9238 
  58   1.0000      -0.545121       -14.8335 
  59   1.0000      -0.540673       -14.7125 
  60   1.0000      -0.513905       -13.9841 
  61   1.0000      -0.512657       -13.9501 
  62   1.0000      -0.488189       -13.2843 
  63   1.0000      -0.475770       -12.9464 
  64   1.0000      -0.473789       -12.8924 
  65   1.0000      -0.446044       -12.1375 
  66   1.0000      -0.443365       -12.0646 
  67   1.0000      -0.441044       -12.0014 
  68   1.0000      -0.427323       -11.6280 
  69   1.0000      -0.421433       -11.4678 
  70   1.0000      -0.407535       -11.0896 
  71   1.0000      -0.365536        -9.9467 
  72   0.0000       0.011808         0.3213 
  73   0.0000       0.022423         0.6101 
  74   0.0000       0.023310         0.6343 
  75   0.0000       0.030367         0.8263 
  76   0.0000       0.039196         1.0666 
  77   0.0000       0.040393         1.0991 
  78   0.0000       0.042372         1.1530 
  79   0.0000       0.043283         1.1778 
  80   0.0000       0.044255         1.2042 
  81   0.0000       0.055200         1.5021 
  82   0.0000       0.056506         1.5376 
  83   0.0000       0.059693         1.6243 
  84   0.0000       0.064218         1.7475 
  85   0.0000       0.065854         1.7920 
  86   0.0000       0.069023         1.8782 
  87   0.0000       0.071825         1.9545 
  88   0.0000       0.075354         2.0505 
  89   0.0000       0.080646         2.1945 
  90   0.0000       0.088983         2.4213 
  91   0.0000       0.090463         2.4616 
  92   0.0000       0.092156         2.5077 
  93   0.0000       0.099307         2.7023 
  94   0.0000       0.100747         2.7415 
  95   0.0000       0.103100         2.8055 
  96   0.0000       0.107608         2.9282 
  97   0.0000       0.113407         3.0860 
  98   0.0000       0.114164         3.1066 
  99   0.0000       0.115862         3.1528 
 100   0.0000       0.116714         3.1760 
 101   0.0000       0.118901         3.2354 
 102   0.0000       0.120213         3.2712 
 103   0.0000       0.122791         3.3413 
 104   0.0000       0.125591         3.4175 
 105   0.0000       0.126926         3.4538 
 106   0.0000       0.129643         3.5278 
 107   0.0000       0.130855         3.5608 
 108   0.0000       0.132707         3.6111 
 109   0.0000       0.134791         3.6679 
 110   0.0000       0.136964         3.7270 
 111   0.0000       0.140312         3.8181 
 112   0.0000       0.145196         3.9510 
 113   0.0000       0.148466         4.0400 
 114   0.0000       0.150590         4.0978 
 115   0.0000       0.154838         4.2134 
 116   0.0000       0.157605         4.2887 
 117   0.0000       0.160095         4.3564 
 118   0.0000       0.164016         4.4631 
 119   0.0000       0.168760         4.5922 
 120   0.0000       0.170446         4.6381 
 121   0.0000       0.173375         4.7178 
 122   0.0000       0.177312         4.8249 
 123   0.0000       0.178908         4.8683 
 124   0.0000       0.182966         4.9788 
 125   0.0000       0.185157         5.0384 
 126   0.0000       0.189545         5.1578 
 127   0.0000       0.194099         5.2817 
 128   0.0000       0.194944         5.3047 
 129   0.0000       0.200923         5.4674 
 130   0.0000       0.202252         5.5036 
 131   0.0000       0.209128         5.6907 
 132   0.0000       0.209875         5.7110 
 133   0.0000       0.211965         5.7679 
 134   0.0000       0.213968         5.8224 
 135   0.0000       0.215890         5.8747 
 136   0.0000       0.225888         6.1467 
 137   0.0000       0.227021         6.1775 
 138   0.0000       0.232428         6.3247 
 139   0.0000       0.232849         6.3361 
 140   0.0000       0.237084         6.4514 
 141   0.0000       0.239531         6.5180 
 142   0.0000       0.241529         6.5723 
 143   0.0000       0.245247         6.6735 
 144   0.0000       0.250145         6.8068 
 145   0.0000       0.255085         6.9412 
 146   0.0000       0.257029         6.9941 
 147   0.0000       0.260891         7.0992 
 148   0.0000       0.261741         7.1223 
 149   0.0000       0.267924         7.2906 
 150   0.0000       0.271439         7.3862 
 151   0.0000       0.278468         7.5775 
 152   0.0000       0.281411         7.6576 
 153   0.0000       0.285882         7.7792 
 154   0.0000       0.287988         7.8365 
 155   0.0000       0.293686         7.9916 
 156   0.0000       0.299722         8.1559 
 157   0.0000       0.303624         8.2620 
 158   0.0000       0.304596         8.2885 
 159   0.0000       0.308663         8.3991 
 160   0.0000       0.311729         8.4826 
 161   0.0000       0.314831         8.5670 
 162   0.0000       0.320938         8.7332 
 163   0.0000       0.325811         8.8658 
 164   0.0000       0.330385         8.9902 
 165   0.0000       0.334241         9.0952 
 166   0.0000       0.335889         9.1400 
 167   0.0000       0.340344         9.2612 
 168   0.0000       0.342595         9.3225 
 169   0.0000       0.345103         9.3907 
 170   0.0000       0.354832         9.6555 
 171   0.0000       0.360275         9.8036 
 172   0.0000       0.361201         9.8288 
 173   0.0000       0.364495         9.9184 
 174   0.0000       0.366450         9.9716 
 175   0.0000       0.369757        10.0616 
 176   0.0000       0.370503        10.0819 
 177   0.0000       0.374427        10.1887 
 178   0.0000       0.377691        10.2775 
 179   0.0000       0.380222        10.3464 
 180   0.0000       0.387565        10.5462 
 181   0.0000       0.388918        10.5830 
 182   0.0000       0.392568        10.6823 
 183   0.0000       0.392986        10.6937 
 184   0.0000       0.394931        10.7466 
 185   0.0000       0.400846        10.9076 
 186   0.0000       0.402523        10.9532 
 187   0.0000       0.403926        10.9914 
 188   0.0000       0.411011        11.1842 
 189   0.0000       0.413556        11.2534 
 190   0.0000       0.416083        11.3222 
 191   0.0000       0.418105        11.3772 
 192   0.0000       0.423528        11.5248 
 193   0.0000       0.425287        11.5727 
 194   0.0000       0.431870        11.7518 
 195   0.0000       0.436211        11.8699 
 196   0.0000       0.437344        11.9007 
 197   0.0000       0.449859        12.2413 
 198   0.0000       0.451289        12.2802 
 199   0.0000       0.452391        12.3102 
 200   0.0000       0.456500        12.4220 
 201   0.0000       0.461590        12.5605 
 202   0.0000       0.463783        12.6202 
 203   0.0000       0.469729        12.7820 
 204   0.0000       0.469964        12.7884 
 205   0.0000       0.474292        12.9061 
 206   0.0000       0.476730        12.9725 
 207   0.0000       0.478847        13.0301 
 208   0.0000       0.482798        13.1376 
 209   0.0000       0.483436        13.1550 
 210   0.0000       0.485110        13.2005 
 211   0.0000       0.490712        13.3530 
 212   0.0000       0.493554        13.4303 
 213   0.0000       0.501614        13.6496 
 214   0.0000       0.504207        13.7202 
 215   0.0000       0.506118        13.7722 
 216   0.0000       0.507481        13.8093 
 217   0.0000       0.509804        13.8725 
 218   0.0000       0.512929        13.9575 
 219   0.0000       0.516204        14.0466 
 220   0.0000       0.519887        14.1468 
 221   0.0000       0.521999        14.2043 
 222   0.0000       0.526022        14.3138 
 223   0.0000       0.527514        14.3544 
 224   0.0000       0.532181        14.4814 
 225   0.0000       0.537227        14.6187 
 226   0.0000       0.540902        14.7187 
 227   0.0000       0.543506        14.7896 
 228   0.0000       0.545664        14.8483 
 229   0.0000       0.548964        14.9381 
 230   0.0000       0.554789        15.0966 
 231   0.0000       0.557705        15.1759 
 232   0.0000       0.561968        15.2919 
 233   0.0000       0.563703        15.3391 
 234   0.0000       0.568688        15.4748 
 235   0.0000       0.570010        15.5108 
 236   0.0000       0.571205        15.5433 
 237   0.0000       0.577977        15.7275 
 238   0.0000       0.579494        15.7688 
 239   0.0000       0.582653        15.8548 
 240   0.0000       0.587374        15.9833 
 241   0.0000       0.598464        16.2850 
 242   0.0000       0.602263        16.3884 
 243   0.0000       0.603990        16.4354 
 244   0.0000       0.606876        16.5139 
 245   0.0000       0.613340        16.6898 
 246   0.0000       0.615834        16.7577 
 247   0.0000       0.619732        16.8638 
 248   0.0000       0.625180        17.0120 
 249   0.0000       0.627594        17.0777 
 250   0.0000       0.629887        17.1401 
 251   0.0000       0.634790        17.2735 
 252   0.0000       0.635785        17.3006 
 253   0.0000       0.640341        17.4246 
 254   0.0000       0.643412        17.5081 
 255   0.0000       0.647639        17.6232 
 256   0.0000       0.651240        17.7211 
 257   0.0000       0.651477        17.7276 
 258   0.0000       0.656990        17.8776 
 259   0.0000       0.661952        18.0126 
 260   0.0000       0.664837        18.0911 
 261   0.0000       0.671425        18.2704 
 262   0.0000       0.674348        18.3499 
 263   0.0000       0.676324        18.4037 
 264   0.0000       0.677767        18.4430 
 265   0.0000       0.685863        18.6633 
 266   0.0000       0.692231        18.8366 
 267   0.0000       0.697152        18.9705 
 268   0.0000       0.701626        19.0922 
 269   0.0000       0.707623        19.2554 
 270   0.0000       0.709996        19.3200 
 271   0.0000       0.715331        19.4652 
 272   0.0000       0.718092        19.5403 
 273   0.0000       0.723748        19.6942 
 274   0.0000       0.730443        19.8764 
 275   0.0000       0.731888        19.9157 
 276   0.0000       0.738117        20.0852 
 277   0.0000       0.741182        20.1686 
 278   0.0000       0.746780        20.3209 
 279   0.0000       0.751942        20.4614 
 280   0.0000       0.759262        20.6606 
 281   0.0000       0.760139        20.6844 
 282   0.0000       0.765115        20.8198 
 283   0.0000       0.777696        21.1622 
[...]
  | sigma^2 in % of trace(Dip) retained ...   1.56e+01
  | sigma^2 in % of trace(Dpq) retained ...   1.35e-01
  | Av. % of trace(Di) retained         ...  99.998494397417
  | Av. % of trace(Dp) retained         ...  99.999999169934
  | sigma^2 in % of trace(Di) retained  ...   7.74e-07
  | sigma^2 in % of trace(Dp) retained  ...   1.46e-12
 Distributions of % trace(Dij) recovered:
  |       >= 99.9  ...   105 ( 20.3 % of all IJ-pairs)
  |   [80.0, 90.0) ...    33 (  6.4 % of all IJ-pairs)
  |   [90.0, 99.0) ...   286 ( 55.4 % of all IJ-pairs)
  |   [99.0, 99.9) ...    92 ( 17.8 % of all IJ-pairs)
 Distributions of % trace(Dip) recovered:
  |   [70.0, 80.0) ...     1 (  0.9 % of all IP-pairs)
  |   [80.0, 90.0) ...    11 (  9.4 % of all IP-pairs)
  |   [90.0, 99.0) ...    63 ( 53.8 % of all IP-pairs)
  |   [99.0, 99.9) ...    42 ( 35.9 % of all IP-pairs)
 Distributions of % trace(Dpq) recovered:
  |       >= 99.9  ...     5 ( 33.3 % of all PQ-pairs)
  |   [99.0, 99.9) ...    10 ( 66.7 % of all PQ-pairs)
 Distributions of % trace(Di) recovered :
  |       >= 99.9  ...    43 (100.0 % of all I-pairs )
 Distributions of % trace(Dp) recovered :
  |       >= 99.9  ...     5 (100.0 % of all P-pairs )

                       ===========================
                       1131 OF 1721 PAIRS ARE KEPT
                       ===========================

 Initial PAO correlation energy (all pairs)    ...  -2.6947713770 Eh
 Energy constituents in PAO basis (Eh):
  | Vijab(+0) ...  -2.2655774247
  | Viab (-1) ...  -0.1752339738
  | Vab  (-2) ...  -0.0573564313
  | Va   (-1) ...  -0.0000436996
  | Vija (+1) ...  -0.0724493548
  | Vij  (+2) ...  -0.0155253420
  | Via  (+0) ...  -0.1084240851
  | Vi   (+1) ...  -0.0001610657
 Initial PNO correlation energy                ...  -2.6599527427 Eh
 Energy constituents in PNO basis (Eh):
  | Vijab(+0) ...  -2.2470131786 (err=  0.0185642461)
  | Viab (-1) ...  -0.1607014061 (err=  0.0145325677)
  | Vab  (-2) ...  -0.0569040114 (err=  0.0004524199)
  | Va   (-1) ...  -0.0000253354 (err=  0.0000183642)
  | Vija (+1) ...  -0.0713853523 (err=  0.0010640025)
  | Vij  (+2) ...  -0.0154646018 (err=  0.0000607403)
  | Via  (+0) ...  -0.1082984281 (err=  0.0001256569)
  | Vi   (+1) ...  -0.0001604290 (err=  0.0000006367)
 Sum of total truncation errors ...   0.0348186344 Eh
  | Pair screening ...   0.0115707706 Eh
  | PNO truncation ...   0.0232478638 Eh

 UMP2 correlation energy (PAO) ...  -2.6897865443
  | alpha-alpha ...  -0.3869304332 (NP_aa=  935)
  | alpha-beta  ...  -1.9954960984 (NP_ab= 1696)
  | beta -beta  ...  -0.3073600126 (NP_bb=  728)
 UMP2 correlation energy (PNO) ...  -2.6545896188
  | alpha-alpha ...  -0.3747541621 (err=  0.0121762711, NP_aa=  600)
  | alpha-beta  ...  -1.9765442241 (err=  0.0189518743, NP_ab= 1106)
  | beta -beta  ...  -0.3032912327 (err=  0.0040687799, NP_bb=  473)
 Sum of total UMP2 truncation errors ...   0.0351969254 Eh
  | Pair screening ...   0.0115805466 Eh
  | PNO truncation ...   0.0236163788 Eh
 Timing for NEV-PNO construction (sec.)
  | Intermediate construction  ..           47.965
  | Amplitude construction     ..           64.492
  | Total time                 ..          112.456
 Making pair pair interaction lists ...      ok
 Total size for 2-ext PNO integrals ...     11.1 MB
Checking the number of SOMO/SOMO doubles PNOs ... 
 #Truncate: (72, 72)[176] -> [84] .. 
 #Truncate: (73, 73)[177] -> [84] .. 
 #Truncate: (74, 74)[176] -> [84] .. 
 #Truncate: (75, 75)[175] -> [84] .. 
 #Truncate: (76, 76)[177] -> [84] .. 

--------------------------------
LOCAL RI TRANSFORMATION (VABPAO)
--------------------------------

Number of PAOs:    1030
Basis functions:   1025 (343 shells)
Aux. functions:    2424 (644 shells)

Processing maps (0.0 sec)
Average map sizes:
   Aux shells -> PAOs           1030.0
   PAOs       -> AO shells       343.0

Calculating integrals (188.7 sec, 37370.165 MB)
Finished
-----------------------------
LOCAL RI TRANSFORMATION (IJV)
-----------------------------

Orbital window:      29 to 76
Basis functions:   1025 (343 shells)
Aux. functions:    2424 (644 shells)

Processing maps (0.0 sec)
Average map sizes:
   Aux shells -> MOs(i)           46.5
   Aux shells -> MOs(j)           48.0
   MOs        -> AO shells       340.3

Calculating integrals (23.2 sec, 41.404 MB)
Sorting integrals (0.3 sec, 41.377 MB)
Total time for the integral transformation: 23.6 sec


-------------------------------------
Pair Pair Term precalculation with     
RI-(ij|mn) and (im|jn) transformation  
ON THE FLY                             
-------------------------------------

   IBatch   1 (of   2)              ... done ( 1169.746 sec)
   IBatch   2 (of   2)              ... done ( 1373.692 sec)
Total EXT                           ...        2543.439 sec

---------------------
RI-PNO TRANSFORMATION
---------------------

Total Number of PNOs                   ... 34939
Total Number of IJ-PNOs                ... 30773
Total Number of IP-PNOs                ...  3218
Total Number of PQ-PNOs                ...   948
Total Number of IJ-pairs               ...   989
Total Number of PI-pairs               ...   117
Total Number of PQ-pairs               ...    25
Average number of PNOs per pair        ...    30
Maximal number of PNOs per pair        ...    84
>> Statistics for ij-pairs..
   #pairs with  1 -  5 PNOs   :    0
   #pairs with  6 - 10 PNOs   :    0
   #pairs with 11 - 15 PNOs   :   62
   #pairs with 16 - 20 PNOs   :  260
   #pairs with 21 - 25 PNOs   :  160
   #pairs with 26 - 30 PNOs   :  138
   #pairs with 31 - 35 PNOs   :   76
   #pairs with 36 - 40 PNOs   :   42
   #pairs with 41 - 45 PNOs   :   56
   #pairs with 46 - 50 PNOs   :   24
   #pairs with 51 - 55 PNOs   :   37
   #pairs with 56 - 60 PNOs   :   57
   #pairs with 61 - 65 PNOs   :   72
   #pairs with 66 - 70 PNOs   :    2
   #pairs with 71 - 75 PNOs   :    1
   #pairs with 81 - 85 PNOs   :    2
>> Statistics for ip-pairs..
   #pairs with  1 -  5 PNOs   :    0
   #pairs with  6 - 10 PNOs   :    1
   #pairs with 11 - 15 PNOs   :   14
   #pairs with 16 - 20 PNOs   :    5
   #pairs with 21 - 25 PNOs   :   27
   #pairs with 26 - 30 PNOs   :   12
   #pairs with 31 - 35 PNOs   :   44
   #pairs with 36 - 40 PNOs   :   14
   #pairs with 41 - 45 PNOs   :    0
   #pairs with 46 - 50 PNOs   :    0
>> Statistics for pq-pairs..
   #pairs with  1 -  5 PNOs   :    0
   #pairs with  6 - 10 PNOs   :    0
   #pairs with 11 - 15 PNOs   :    0
   #pairs with 16 - 20 PNOs   :    0
   #pairs with 21 - 25 PNOs   :   10
   #pairs with 26 - 30 PNOs   :   10
   #pairs with 31 - 35 PNOs   :    0
   #pairs with 36 - 40 PNOs   :    0
   #pairs with 41 - 45 PNOs   :    0
   #pairs with 46 - 50 PNOs   :    0
   #pairs with 81 - 85 PNOs   :    5

Generation of (ij|ab)[P] integrals            ... on
Generation of (ia|bc)[P],(ja|bc)[P] integrals ... on
Storage of 3 and 4 external integrals         ... on
Generation of ALL (ka|bc)[P] integrals        ... on
Keep RI integrals in memory                   ... off

Ibatch:  1 (of  1)
Starting 2-4 index PNO integral generation ... done

Timings:
Total PNO integral transformation time     ...       2420.267 sec
Size of the 3-external file                ...       288 MB
Size of the 4-external file                ...      1946 MB
Size of the IKJL file                      ...        19 MB
Size of the all 3-external file            ...      6914 MB
Size of the 1-external file                ...        22 MB

Size of the PAO/PNO coefficient matrices   ...     230.3 MB

Making pair/pair overlap matrices          ... done (  422.319 sec)
Size of the pair overlap file              ...    2492.0 MB
Total # unrestricted pairs ...       2179
  # of alpha-alpha pairs   ...        600
  # of alpha-beta pairs    ...       1106
  # of beta-beta pairs     ...        473
Constructing the guess amplitudes          ... done (    0.601 sec)

-------------------------
FINAL STARTUP INFORMATION
-------------------------

E(0)                                       ...  -3028.425091234
E(SL-UMP2 in NEV-PNO space)                ...     -2.690715177
Initial E(tot)                             ...  -3031.115806411
<T|T>                                      ...      0.534936570
Number of unrestricted pairs included      ... 2179
Total number of pairs                      ... 4095
----------------------------------------------------------
                     OPEN-SHELL COUPLED CLUSTER ITERATIONS
----------------------------------------------------------

Number of PNO amplitudes to be optimized        ...          2137194
Number of canonical amplitudes for strong pairs ...       1968100804
Untruncated number of canonical amplitudes      ...       3698645738

Iter       E(tot)           E(Corr)          Delta-E          Residual     Time
  0  -3031.123023390     -2.661806598      0.028908579      0.021025457 2049.58
                           *** Turning on DIIS ***
  1  -3031.235243641     -2.774026850     -0.112220252      0.009868671 2085.44
  2  -3031.299661266     -2.838444474     -0.064417625      0.008373192 2020.82
  3  -3031.320925544     -2.859708753     -0.021264278      0.003019614 2102.92
  4  -3031.328138639     -2.866921847     -0.007213094      0.002682320 2063.24
  5  -3031.331975665     -2.870758874     -0.003837027      0.001640761 2078.05
  6  -3031.333365587     -2.872148796     -0.001389922      0.000830594 2030.00
  7  -3031.334090670     -2.872873878     -0.000725083      0.000521401 2103.56
  8  -3031.334251785     -2.873034993     -0.000161115      0.000217651 2089.30
  9  -3031.334305244     -2.873088452     -0.000053459      0.000147343 2081.19
 10  -3031.334299235     -2.873082443      0.000006009      0.000085247 1967.18
 11  -3031.334310542     -2.873093750     -0.000011307      0.000062866 1753.91
 12  -3031.334316651     -2.873099859     -0.000006109      0.000032407 1756.52
 13  -3031.334319289     -2.873102498     -0.000002638      0.000015109 1773.72
 14  -3031.334320737     -2.873103945     -0.000001447      0.000007428 1760.81
               --- The CCSD iterations have converged ---

E(0)                                       ...  -3028.425091234
E(CORR)(strong-pairs)                      ...     -2.873103945
E(CORR)(weak-pairs)                        ...     -0.036125558
E(CORR)(corrected)                         ...     -2.909229503
E(TOT)                                     ...  -3031.334320737
Singles norm <S|S>**1/2                    ...      0.191879848 ( 0.064371508, 0.127508340)  
T1 diagnostic                              ...      0.020114474                              
<S**2>(linearized)                         ...      8.7508166 (ideal value:      8.7500000)

----------------------
LARGEST PNO AMPLITUDES
----------------------
  71a-> 78a  71b-> 78b       0.061807
  50b-> 76b  -1b-> -1b       0.055405
  51b-> 76b  -1b-> -1b       0.051233
  48b-> 72b  -1b-> -1b       0.050362
  71a-> 77a  71b-> 77b       0.048336
  48b-> 75b  -1b-> -1b       0.046373
  48b-> 74b  -1b-> -1b       0.045981
  65a-> 77a  65b-> 77b       0.045381
  54a-> 77a  54b-> 77b       0.045167
  55a-> 77a  55b-> 77b       0.044359
  43a-> 77a  -1a-> -1a       0.044246
  69a-> 77a  69b-> 77b       0.043870
  38b-> 73b  -1b-> -1b       0.043572
  61a-> 77a  61b-> 77b       0.043121
  63a-> 77a  63b-> 77b       0.043113
  59a-> 77a  59b-> 77b       0.042434

Total # unrestricted pairs ...       1180
  # of alpha-alpha pairs   ...        335
  # of alpha-beta pairs    ...        590
  # of beta-beta pairs     ...        255

-------------------------------------------
DLPNO BASED TRIPLES CORRECTION
-------------------------------------------

Singles multiplier          ...  1.000000
Fragment selection                          .... not used
TCutTNO                     ... 1.000e-09
TCutMP2Pairs                ... 1.000e-05
TCutDOStrong                ... 2.000e-02
TCutMKNStrong               ... 1.000e-02
TCutDOWeak                  ... 4.000e-02
TCutMKNWeak                 ... 1.000e-01
NTCutTNO                    ... 1

Number of Triples that are to be computed         ...     35884

 . . . . . . . . .
10% done  
20% done  
30% done  
40% done  
50% done  
60% done  
70% done  
80% done  
90% done  
          Batch   1   done (  15987.510 sec)

Triples-Correction TCutTNO=   1.000e-09 (NWeakPairs = 0  1  2  3)  -0.117719127524   -0.002007543632    0.000000000000    0.000000000000
Triples-Correction  -0.119726671156

Triples timings:
Total time                      ... 16649.997 sec

Triples List generation         ...     0.000 sec
TNO generation                  ...   662.252 sec
Pair density generation         ...     0.086 sec
Look up tables                  ...     0.120 sec
Generating 3-index integrals    ...  9817.854 sec
Make 4-ind.int. from 3-ind.int  ...     3.658 sec
Projecting amplitudes (D + S)   ...  5895.538 sec
Sorting integrals for spin cases...    55.633 sec
Calculate W0/W1                 ...   173.642 sec
Energy contr. (sum over a,b,c)  ...    41.039 sec

Everything after 3-index        ...  6301.564 sec

Energy contribution AAA         ...    26.183 sec
Energy contribution AAB         ...   119.704 sec
Energy contribution ABB         ...   109.692 sec
Energy contribution BBB         ...    14.773 sec
prep                ...     3.304 sec
makeTTNO            ...  5835.740 sec
copyij              ...     0.134 sec
copyil              ...     4.361 sec
transposeij         ...     0.081 sec
newMatInDoubleProj  ...    56.235 sec
BlasInDoubleProj    ...  3150.926 sec
ProjSingles         ...    49.258 sec
ProjDoubles         ...  5846.279 sec
overall Doubles for projection      ... 3285093
used Doubles for projection         ... 3285093


Number of Triples   (0, 1, 2, 3 weak pairs; overall):  17131   12630       0       0  ( 29761)
Number of Atoms     (0, 1, 2, 3 weak pairs; overall):   20.1    14.9     0.0     0.0  (    29)
Number of PAOs      (0, 1, 2, 3 weak pairs; overall):  775.3   599.7     0.0     0.0  (  1025)
Number of AuxFcns   (0, 1, 2, 3 weak pairs; overall):  906.9   576.2     0.0     0.0  (  2424)
Number of TNOs (0, 1, 2, 3 weak pairs         ):   78.9    56.0     0.0     0.0
Aver. Number of NTNO, Atoms, PAOs, AuxFcns / Triples:  29761    69.2    17.9   700.8   766.5

Triples Correction (T)                     ...     -0.119726671
    alpha-alpha-alpha ... -0.003914123 (  3.3%)
    alpha-alpha-beta  ... -0.056174708 ( 46.9%)
    alpha-beta -beta  ... -0.055483579 ( 46.3%)
    beta -beta -beta  ... -0.004154261 (  3.5%)
Final correlation energy                   ...     -3.028956174
E(CCSD)                                    ...  -3031.334320737
E(CCSD(T))                                 ...  -3031.454047408

----------------------------
STATISTICS FOR PAIR-ENERGIES
----------------------------
Minimum, maximum and average ratios of UMP and CCSD pair-energies ... 0.45, 1.44, 1.02


------------------------------------------------------------------------------- 
                                     TIMINGS                                   
------------------------------------------------------------------------------- 


Total execution time                   ...    55731.253 sec

Localization of occupied MO's          ...       10.195 sec (  0.0%)
Fock Matrix Formation                  ...     1529.804 sec (  2.7%)
Differential overlap integrals         ...        1.563 sec (  0.0%)
Organizing maps                        ...        1.720 sec (  0.0%)
RI 3-index integral generations        ...      277.265 sec (  0.5%)
RI-PNO integral transformation         ...     5480.743 sec (  9.8%)
Initial Guess                          ...     1994.786 sec (  3.6%)
DIIS Solver                            ...       17.255 sec (  0.0%)
State Vector Update                    ...        0.854 sec (  0.0%)
Sigma-vector construction              ...    29716.230 sec ( 53.3%)
  <0|H|D>                              ...        0.031 sec (  0.0% of sigma)
  <D|H|D>(0-ext)                       ...     5665.363 sec ( 19.1% of sigma)
  <D|H|D>(2-ext Fock)                  ...        1.390 sec (  0.0% of sigma)
  <D|H|D>(2-ext)                       ...     4361.865 sec ( 14.7% of sigma)
  <D|H|D>(4-ext)                       ...      149.555 sec (  0.5% of sigma)
  <D|H|D>(4-ext-corr)                  ...      927.925 sec (  3.1% of sigma)
  CCSD doubles correction              ...      552.826 sec (  1.9% of sigma)
  <S|H|S>                              ...      698.131 sec (  2.3% of sigma)
  <S|H|D>(1-ext)                       ...      279.100 sec (  0.9% of sigma)
  <D|H|S>(1-ext)                       ...        0.726 sec (  0.0% of sigma)
  <S|H|D>(3-ext)                       ...       22.179 sec (  0.1% of sigma)
  CCSD singles correction              ...        0.004 sec (  0.0% of sigma)
  Fock-dressing                        ...     8749.888 sec ( 29.4% of sigma)
  Singles amplitudes                   ...      116.945 sec (  0.4% of sigma)
  (ik|jl)-dressing                     ...     6489.489 sec ( 21.8% of sigma)
  (ij|ab),(ia|jb)-dressing             ...     1509.094 sec (  5.1% of sigma)
  Pair energies                        ...        0.172 sec (  0.0% of sigma)
Total Time for computing (T)           ...    17095.232 sec ( 30.7% of ALL)


-------------------------   --------------------
FINAL SINGLE POINT ENERGY     -3031.454047407700
-------------------------   --------------------


                            ***************************************
                            *     ORCA property calculations      *
                            ***************************************

                                    ---------------------
                                    Active property flags
                                    ---------------------
   (+) Dipole Moment


------------------------------------------------------------------------------
                       ORCA ELECTRIC PROPERTIES CALCULATION
------------------------------------------------------------------------------

Dipole Moment Calculation                       ... on
Quadrupole Moment Calculation                   ... off
Polarizability Calculation                      ... off
GBWName                                         ... simple-grid-225-225-b3lyp_d3bj-631gd-gas-singlepoint-DLPNO_CCSD_T1-NormalPNO-augtz-gas.gbw
Electron density file                           ... simple-grid-225-225-b3lyp_d3bj-631gd-gas-singlepoint-DLPNO_CCSD_T1-NormalPNO-augtz-gas.scfp.tmp
The origin for moment calculation is the CENTER OF MASS  = ( 0.312441,  0.019060  0.018124)

-------------
DIPOLE MOMENT
-------------
                                X             Y             Z
Electronic contribution:     42.57840       2.23275       2.18046
Nuclear contribution   :    -46.55375      -2.84003      -2.70043
                        -----------------------------------------
Total Dipole Moment    :     -3.97535      -0.60727      -0.51996
                        -----------------------------------------
Magnitude (a.u.)       :      4.05494
Magnitude (Debye)      :     10.30684



--------------------
Rotational spectrum 
--------------------
 
Rotational constants in cm-1:     0.019601     0.011136     0.010443 
Rotational constants in MHz :   587.616011   333.834041   313.069586 

 Dipole components along the rotational axes: 
x,y,z [a.u.] :     3.972776    -0.628596    -0.514264 
x,y,z [Debye]:    10.097993    -1.597765    -1.307156 

 

Timings for individual modules:

Sum of individual times         ...    72683.280 sec (=1211.388 min)
GTO integral calculation        ...       11.845 sec (=   0.197 min)   0.0 %
SCF iterations                  ...    16921.825 sec (= 282.030 min)  23.3 %
MDCI module                     ...    55749.610 sec (= 929.160 min)  76.7 %
                             ****ORCA TERMINATED NORMALLY****
TOTAL RUN TIME: 0 days 20 hours 11 minutes 25 seconds 752 msec
