
                                 *****************
                                 * O   R   C   A *
                                 *****************

           --- An Ab Initio, DFT and Semiempirical electronic structure package ---

                  #######################################################
                  #                        -***-                        #
                  #          Department of theory and spectroscopy      #
                  #               Directorship: Frank Neese             #
                  #        Max Planck Institute fuer Kohlenforschung    #
                  #                Kaiser Wilhelm Platz 1               #
                  #                 D-45470 Muelheim/Ruhr               #
                  #                      Germany                        #
                  #                                                     #
                  #                  All rights reserved                #
                  #                        -***-                        #
                  #######################################################


                         Program Version 4.1.2  - RELEASE  -


 With contributions from (in alphabetic order):
   Daniel Aravena         : Magnetic Properties
   Michael Atanasov       : Ab Initio Ligand Field Theory
   Alexander A. Auer      : GIAO ZORA
   Ute Becker             : Parallelization
   Giovanni Bistoni       : ED, Open-shell LED
   Martin Brehm           : Molecular dynamics
   Dmytro Bykov           : SCF Hessian
   Vijay G. Chilkuri      : MRCI spin determinant printing
   Dipayan Datta          : RHF DLPNO-CCSD density
   Achintya Kumar Dutta   : EOM-CC, STEOM-CC
   Dmitry Ganyushin       : Spin-Orbit,Spin-Spin,Magnetic field MRCI
   Miquel Garcia          : C-PCM Hessian
   Yang Guo               : DLPNO-NEVPT2, CIM, IAO-localization
   Andreas Hansen         : Spin unrestricted coupled pair/coupled cluster methods
   Benjamin Helmich-Paris : CASSCF linear response (MC-RPA)
   Lee Huntington         : MR-EOM, pCC
   Robert Izsak           : Overlap fitted RIJCOSX, COSX-SCS-MP3, EOM
   Christian Kollmar      : KDIIS, OOCD, Brueckner-CCSD(T), CCSD density
   Simone Kossmann        : Meta GGA functionals, TD-DFT gradient, OOMP2, MP2 Hessian
   Martin Krupicka        : AUTO-CI
   Lucas Lang             : DCDCAS
   Dagmar Lenk            : GEPOL surface, SMD
   Dimitrios Liakos       : Extrapolation schemes; parallel MDCI
   Dimitrios Manganas     : ROCIS; embedding schemes
   Dimitrios Pantazis     : SARC Basis sets
   Taras Petrenko         : DFT Hessian,TD-DFT gradient, ASA, ECA, R-Raman, ABS, FL, XAS/XES, NRVS
   Peter Pinski           : DLPNO-MP2, DLPNO-MP2 Gradient
   Christoph Reimann      : Effective Core Potentials
   Marius Retegan         : Local ZFS, SOC
   Christoph Riplinger    : Optimizer, TS searches, QM/MM, DLPNO-CCSD(T), (RO)-DLPNO pert. Triples
   Tobias Risthaus        : Range-separated hybrids, TD-DFT gradient, RPA, STAB
   Michael Roemelt        : Restricted open shell CIS
   Masaaki Saitow         : Open-shell DLPNO
   Barbara Sandhoefer     : DKH picture change effects
   Avijit Sen             : IP-ROCIS
   Kantharuban Sivalingam : CASSCF convergence, NEVPT2, FIC-MRCI
   Bernardo de Souza      : ESD, SOC TD-DFT
   Georgi Stoychev        : AutoAux, RI-MP2 NMR
   Willem Van den Heuvel  : Paramagnetic NMR
   Boris Wezisla          : Elementary symmetry handling
   Frank Wennmohs         : Technical directorship


 We gratefully acknowledge several colleagues who have allowed us to
 interface, adapt or use parts of their codes:
   Stefan Grimme, W. Hujo, H. Kruse,             : VdW corrections, initial TS optimization,
                  C. Bannwarth                     DFT functionals, gCP, sTDA/sTD-DF
   Ed Valeev                                     : LibInt (2-el integral package), F12 methods
   Garnet Chan, S. Sharma, J. Yang, R. Olivares  : DMRG
   Ulf Ekstrom                                   : XCFun DFT Library
   Mihaly Kallay                                 : mrcc  (arbitrary order and MRCC methods)
   Andreas Klamt, Michael Diedenhofen            : otool_cosmo (COSMO solvation model)
   Jiri Pittner, Ondrej Demel                    : Mk-CCSD
   Frank Weinhold                                : gennbo (NPA and NBO analysis)
   Christopher J. Cramer and Donald G. Truhlar   : smd solvation model
   Lars Goerigk                                  : TD-DFT with DH, B97 family of functionals
   V. Asgeirsson, H. Jonsson                     : NEB implementation
   FAccTs GmbH                                   : IRC, NEB, NEB-TS, Multilevel


 Your calculation uses the libint2 library for the computation of 2-el integrals
 For citations please refer to: http://libint.valeyev.net

 This ORCA versions uses:
   CBLAS   interface :  Fast vector & matrix operations
   LAPACKE interface :  Fast linear algebra routines
   SCALAPACK package :  Parallel linear algebra routines


----- Orbital basis set information -----
Your calculation utilizes the basis: aug-cc-pVTZ 
    H, B-Ne : Obtained from the ccRepo (grant-hill.group.shef.ac.uk/ccrepo) Feb. 2017
              R. A. Kendall, T. H. Dunning, Jr., R. J. Harrison, J. Chem. Phys. 96, 6796 (1992)
         He : Obtained from the ccRepo (grant-hill.group.shef.ac.uk/ccrepo) Feb. 2017
              D. E. Woon, T. H. Dunning, Jr., J. Chem. Phys. 100, 2975 (1994)
  Li-Be, Na : Obtained from the ccRepo (grant-hill.group.shef.ac.uk/ccrepo) Feb. 2017
              B. P. Prascher, D. E. Woon, K. A. Peterson, T. H. Dunning, Jr., A. K. Wilson, Theor. Chem. Acc. 128, 69 (2011)
         Mg : Obtained from the Peterson Research Group Website (tyr0.chem.wsu.edu/~kipeters) Feb. 2017
              B. P. Prascher, D. E. Woon, K. A. Peterson, T. H. Dunning, Jr., A. K. Wilson, Theor. Chem. Acc. 128, 69 (2011)
      Al-Ar : Obtained from the ccRepo (grant-hill.group.shef.ac.uk/ccrepo) Feb. 2017
              D. E. Woon, T. H. Dunning, Jr., J. Chem. Phys. 98, 1358 (1993)
      Sc-Zn : Obtained from the ccRepo (grant-hill.group.shef.ac.uk/ccrepo) Feb. 2017
              N. B. Balabanov, K. A. Peterson, J. Chem. Phys. 123, 064107 (2005)
              N. B. Balabanov, K. A. Peterson, J. Chem. Phys. 125, 074110 (2006)
      Ga-Kr : Obtained from the ccRepo (grant-hill.group.shef.ac.uk/ccrepo) Feb. 2017
              A. K. Wilson, D. E. Woon, K. A. Peterson, T. H. Dunning, Jr., J. Chem. Phys. 110, 7667 (1999)
     Ag, Au : Obtained from the Peterson Research Group Website (tyr0.chem.wsu.edu/~kipeters) Feb. 2017
              K. A. Peterson, C. Puzzarini, Theor. Chem. Acc. 114, 283 (2005)

----- AuxJ basis set information -----
Your calculation utilizes the AutoAux generation procedure.
  G. L. Stoychev, A. A. Auer, F. Neese, J. Chem. Theory Comput. 13, 554 (2017)

----- AuxC basis set information -----
Your calculation utilizes the auxiliary basis: aug-cc-pVTZ/C 
  H-He, B-F, Al-Ar, Ga-Kr : Obtained from the EMSL Basis Set Exchange (bse.pnl.gov) Feb. 2017
                            F. Weigend, A. Kohn, C. Hattig, J. Chem. Phys. 116, 3175 (2002)
                   Be, Mg : Obtained from the TURBOMOLE 7.0 basis set library
                            C. Haettig, Phys. Chem. Chem. Phys. 7, 59 (2005)
                       Ne : Obtained from the EMSL Basis Set Exchange (bse.pnl.gov) Feb. 2017
                            C. Haettig, Phys. Chem. Chem. Phys. 7, 59 (2005)
                            F. Weigend, A. Kohn, C. Hattig, J. Chem. Phys. 116, 3175 (2002)
                    Sc-Zn : Obtained from the EMSL Basis Set Exchange (bse.pnl.gov) Feb. 2017
                            J. G. Hill, J. A. Platts, J. Chem. Phys. 128, 044104 (2008)

----- AuxJK basis set information -----
Your calculation utilizes the AutoAux generation procedure.
  G. L. Stoychev, A. A. Auer, F. Neese, J. Chem. Theory Comput. 13, 554 (2017)

================================================================================
                                        WARNINGS
                       Please study these warnings very carefully!
================================================================================


WARNING: your system is open-shell and RHF/RKS was chosen
  ===> : WILL SWITCH to UHF/UKS


WARNING: MDCI localization with Augmented Hessian Foster-Boys
  ===> : Switching off randomization!

WARNING: Post HF methods need fully converged wavefunctions
  ===> : Setting SCFConvForced true
         You can overwrite this default with %scf ConvForced false 


INFO   : the flag for use of LIBINT has been found!

================================================================================
                                       INPUT FILE
================================================================================
NAME = simple-grid-210-235-b3lyp_d3bj-631gd-gas-singlepoint-DLPNO_CCSD_T1-NormalPNO-augtz-gas.inp
|  1> ! aug-cc-pVTZ aug-cc-pVTZ/C DLPNO-CCSD(T1) TightSCF NormalPNO UNO MiniPrint AutoAux
|  2> %pal nproc 10 end
|  3> %maxcore 20000
|  4> %mdci
|  5>      density none
|  6> end
|  7> 
|  8> * xyz 0 6
|  9>  O     -0.32717900     -0.12064800     -0.62146100
| 10>  C     -1.25207900     -1.03682500     -0.54823800
| 11>  C     -3.01998100     -0.09138900      0.07679800
| 12>  C     -2.31163900      1.05913000     -0.18264400
| 13>  C     -2.30005800      1.69300500     -1.53305100
| 14> Fe      1.43513900      0.06821700      0.04166200
| 15> Cl      2.02184100      2.03702800     -0.73772400
| 16>  C     -1.56761600      1.80109100      0.87655900
| 17> Cl      2.50098000     -1.67819300     -0.76380000
| 18> Cl      1.32269800      0.01858400      2.25143900
| 19>  H     -3.66740100     -0.44628300     -0.72182900
| 20>  H     -2.26446700      2.52983300      1.31799100
| 21>  H     -1.20385500      1.16305500      1.68221300
| 22>  H     -0.72576700      2.35734500      0.45721100
| 23>  H     -2.65233700      2.72791200     -1.42914400
| 24>  H     -1.27140400      1.74564600     -1.90687300
| 25>  H     -2.94031900      1.18256400     -2.25502900
| 26>  C     -3.43433900     -0.52493500      1.46321800
| 27>  H     -4.33229100      0.03106000      1.76221600
| 28>  H     -3.69066500     -1.58697800      1.49074500
| 29>  H     -2.66787700     -0.33967100      2.21846900
| 30>  C     -1.10140100     -2.07070500      0.54041900
| 31>  H     -1.95791800     -2.74242500      0.60922100
| 32>  H     -0.22049000     -2.66259500      0.25262100
| 33>  H     -0.88224900     -1.62000300      1.50850600
| 34>  C     -1.71645900     -1.56728900     -1.88754100
| 35>  H     -0.87311700     -2.15124800     -2.28008600
| 36>  H     -2.58629100     -2.22222000     -1.80211100
| 37>  H     -1.91212100     -0.76308500     -2.59730500
| 38> *
| 39> 
| 40> 
| 41>                          ****END OF INPUT****
================================================================================

                       ****************************
                       * Single Point Calculation *
                       ****************************

---------------------------------
CARTESIAN COORDINATES (ANGSTROEM)
---------------------------------
  O     -0.327179   -0.120648   -0.621461
  C     -1.252079   -1.036825   -0.548238
  C     -3.019981   -0.091389    0.076798
  C     -2.311639    1.059130   -0.182644
  C     -2.300058    1.693005   -1.533051
  Fe     1.435139    0.068217    0.041662
  Cl     2.021841    2.037028   -0.737724
  C     -1.567616    1.801091    0.876559
  Cl     2.500980   -1.678193   -0.763800
  Cl     1.322698    0.018584    2.251439
  H     -3.667401   -0.446283   -0.721829
  H     -2.264467    2.529833    1.317991
  H     -1.203855    1.163055    1.682213
  H     -0.725767    2.357345    0.457211
  H     -2.652337    2.727912   -1.429144
  H     -1.271404    1.745646   -1.906873
  H     -2.940319    1.182564   -2.255029
  C     -3.434339   -0.524935    1.463218
  H     -4.332291    0.031060    1.762216
  H     -3.690665   -1.586978    1.490745
  H     -2.667877   -0.339671    2.218469
  C     -1.101401   -2.070705    0.540419
  H     -1.957918   -2.742425    0.609221
  H     -0.220490   -2.662595    0.252621
  H     -0.882249   -1.620003    1.508506
  C     -1.716459   -1.567289   -1.887541
  H     -0.873117   -2.151248   -2.280086
  H     -2.586291   -2.222220   -1.802111
  H     -1.912121   -0.763085   -2.597305

----------------------------
CARTESIAN COORDINATES (A.U.)
----------------------------
  NO LB      ZA    FRAG     MASS         X           Y           Z
   0 O     8.0000    0    15.999   -0.618279   -0.227992   -1.174391
   1 C     6.0000    0    12.011   -2.366086   -1.959315   -1.036020
   2 C     6.0000    0    12.011   -5.706937   -0.172700    0.145127
   3 C     6.0000    0    12.011   -4.368365    2.001466   -0.345147
   4 C     6.0000    0    12.011   -4.346480    3.199316   -2.897047
   5 Fe   26.0000    0    55.850    2.712020    0.128911    0.078730
   6 Cl   17.0000    0    35.453    3.820726    3.849425   -1.394096
   7 C     6.0000    0    12.011   -2.962365    3.403569    1.656456
   8 Cl   17.0000    0    35.453    4.726167   -3.171325   -1.443373
   9 Cl   17.0000    0    35.453    2.499537    0.035119    4.254603
  10 H     1.0000    0     1.008   -6.930384   -0.843353   -1.364059
  11 H     1.0000    0     1.008   -4.279222    4.780692    2.490642
  12 H     1.0000    0     1.008   -2.274956    2.197855    3.178922
  13 H     1.0000    0     1.008   -1.371501    4.454736    0.864004
  14 H     1.0000    0     1.008   -5.012191    5.155007   -2.700691
  15 H     1.0000    0     1.008   -2.402605    3.298793   -3.603468
  16 H     1.0000    0     1.008   -5.556398    2.234722   -4.261387
  17 C     6.0000    0    12.011   -6.489960   -0.991983    2.765081
  18 H     1.0000    0     1.008   -8.186844    0.058695    3.330106
  19 H     1.0000    0     1.008   -6.974346   -2.998954    2.817100
  20 H     1.0000    0     1.008   -5.041557   -0.641885    4.192299
  21 C     6.0000    0    12.011   -2.081346   -3.913065    1.021244
  22 H     1.0000    0     1.008   -3.699929   -5.182432    1.151261
  23 H     1.0000    0     1.008   -0.416666   -5.031575    0.477385
  24 H     1.0000    0     1.008   -1.667209   -3.061362    2.850663
  25 C     6.0000    0    12.011   -3.243637   -2.961747   -3.566936
  26 H     1.0000    0     1.008   -1.649952   -4.065270   -4.308738
  27 H     1.0000    0     1.008   -4.887382   -4.199387   -3.405496
  28 H     1.0000    0     1.008   -3.613385   -1.442022   -4.908195



           ************************************************************
           *        Program running with 10 parallel MPI-processes    *
           *              working on a common directory               *
           ************************************************************


           ************************************************************
           *        Program running with 10 parallel MPI-processes    *
           *              working on a common directory               *
           ************************************************************

Diagonalization of the overlap matrix:
Smallest eigenvalue                        ... 6.191e-07
Time for diagonalization                   ...    0.327 sec
Threshold for overlap eigenvalues          ... 1.000e-08
Number of eigenvalues below threshold      ... 0
Time for construction of square roots      ...    0.270 sec
Total time needed                          ...    0.601 sec

-------------------
DFT GRID GENERATION
-------------------

General Integration Accuracy     IntAcc      ...  4.340
Radial Grid Type                 RadialGrid  ... Gauss-Chebyshev
Angular Grid (max. acc.)         AngularGrid ... Lebedev-110
Angular grid pruning method      GridPruning ... 3 (G Style)
Weight generation scheme         WeightScheme... Becke
Basis function cutoff            BFCut       ...    1.0000e-11
Integration weight cutoff        WCut        ...    1.0000e-14
Grids for H and He will be reduced by one unit

# of grid points (after initial pruning)     ...  36112 (   0.0 sec)
# of grid points (after weights+screening)   ...  32315 (   0.1 sec)
nearest neighbour list constructed           ...    0.0 sec
Grid point re-assignment to atoms done       ...    0.0 sec
Grid point division into batches done        ...    0.0 sec
Reduced shell lists constructed in    0.2 sec

Total number of grid points                  ...    32315
Total number of batches                      ...      520
Average number of points per batch           ...       62
Average number of grid points per atom       ...     1114
Average number of shells per batch           ...   293.83 (85.66%)
Average number of basis functions per batch  ...   873.68 (85.24%)
Average number of large shells per batch     ...   242.57 (82.55%)
Average number of large basis fcns per batch ...   720.38 (82.45%)
Maximum spatial batch extension              ...   2.56,  3.74,  4.53 au
Average spatial batch extension              ...   0.17,  0.18,  0.17 au

Time for grid setup =    0.346 sec

Loading Hartree-Fock densities                     ... done
Calculating cut-offs                               ... done
Setting up the integral package                    ... done
Initializing the effective Hamiltonian             ... done
Starting the Coulomb interaction                   ... done (   1.1 sec)
Reading the grid                                   ... done
Mapping shells                                     ... done
Starting the XC term evaluation                    ... done (   0.8 sec)
Transforming the Hamiltonian                       ... done (   0.2 sec)
Diagonalizing the Hamiltonian                      ... done (   0.3 sec)
Back transforming the eigenvectors                 ... done (   0.1 sec)
Now organizing SCF variables                       ... done
--------------
SCF ITERATIONS
--------------
ITER       Energy         Delta-E        Max-DP      RMS-DP      [F,P]     Damp
               ***  Starting incremental Fock matrix formation  ***
  0  -3027.5682000584   0.000000000000 0.20588869  0.00115951  0.2727324 0.7000
  1  -3027.8170686319  -0.248868573491 0.14900657  0.00089887  0.1653151 0.7000
                               ***Turning on DIIS***
  2  -3027.9844446732  -0.167376041246 0.10459421  0.00065921  0.1092524 0.7000
  3  -3029.6520364427  -1.667591769545 0.25579669  0.00164407  0.0819981 0.0000
  4  -3028.2890759688   1.362960473945 0.04675129  0.00023438  0.0195029 0.0000
  5  -3028.4095289350  -0.120452966197 0.04007067  0.00017491  0.0118684 0.0000
  6  -3028.4413850681  -0.031856133111 0.02077427  0.00006983  0.0054612 0.0000
  7  -3028.4551251402  -0.013740072174 0.00912241  0.00003198  0.0034031 0.0000
  8  -3028.4504657270   0.004659413238 0.00603060  0.00001840  0.0013987 0.0000
  9  -3028.4417834759   0.008682251093 0.00231522  0.00001047  0.0007384 0.0000
 10  -3028.4306807045   0.011102771447 0.00101332  0.00000335  0.0004302 0.0000
 11  -3028.4369668925  -0.006286188060 0.00038382  0.00000192  0.0000742 0.0000
 12  -3028.4345380567   0.002428835845 0.00082654  0.00000195  0.0000283 0.0000
 13  -3028.4345546534  -0.000016596707 0.00097927  0.00000268  0.0000096 0.0000
 14  -3028.4345949278  -0.000040274395 0.00114380  0.00000242  0.0000063 0.0000
 15  -3028.4345419865   0.000052941255 0.00110285  0.00000237  0.0000029 0.0000
 16  -3028.4345622905  -0.000020303980 0.00157093  0.00000314  0.0000020 0.0000
 17  -3028.4345759094  -0.000013618944 0.00104700  0.00000263  0.0000016 0.0000
 18  -3028.4345591085   0.000016800917 0.00234450  0.00000468  0.0000014 0.0000
 19  -3028.4345709562  -0.000011847719 0.00136765  0.00000400  0.0000012 0.0000
               *** Restarting incremental Fock matrix formation ***
                                   *** Resetting DIIS ***
                            ***DIIS convergence achieved***

               *****************************************************
               *                     SUCCESS                       *
               *           SCF CONVERGED AFTER  20 CYCLES          *
               *****************************************************

Total Energy       :        -3028.43456855 Eh          -82407.89415 eV
  Last Energy change         ...    2.4112e-06  Tolerance :   1.0000e-08
  Last MAX-Density change    ...    9.6939e-03  Tolerance :   1.0000e-07
             **** THE GBW FILE WAS UPDATED (simple-grid-210-235-b3lyp_d3bj-631gd-gas-singlepoint-DLPNO_CCSD_T1-NormalPNO-augtz-gas.gbw) ****
             **** DENSITY FILE WAS UPDATED (simple-grid-210-235-b3lyp_d3bj-631gd-gas-singlepoint-DLPNO_CCSD_T1-NormalPNO-augtz-gas.scfp.tmp) ****
             **** ENERGY FILE WAS UPDATED (simple-grid-210-235-b3lyp_d3bj-631gd-gas-singlepoint-DLPNO_CCSD_T1-NormalPNO-augtz-gas.en.tmp) ****
----------------------
UHF SPIN CONTAMINATION
----------------------

Expectation value of <S**2>     :     8.764485
Ideal value S*(S+1) for S=2.5   :     8.750000
Deviation                       :     0.014485

----------------
ORBITAL ENERGIES
----------------
                 SPIN UP ORBITALS
  NO   OCC          E(Eh)            E(eV) 
   0   1.0000    -261.557774     -7117.3489 
   1   1.0000    -104.781076     -2851.2380 
   2   1.0000    -104.778898     -2851.1788 
   3   1.0000    -104.778592     -2851.1704 
   4   1.0000     -32.225637      -876.9042 
   5   1.0000     -27.701735      -753.8025 
   6   1.0000     -27.701211      -753.7883 
   7   1.0000     -27.701033      -753.7834 
   8   1.0000     -20.567716      -559.6760 
   9   1.0000     -11.403222      -310.2974 
  10   1.0000     -11.335290      -308.4489 
  11   1.0000     -11.270462      -306.6849 
  12   1.0000     -11.263117      -306.4850 
  13   1.0000     -11.262405      -306.4656 
  14   1.0000     -11.257201      -306.3240 
  15   1.0000     -11.256658      -306.3092 
  16   1.0000     -11.254067      -306.2387 
  17   1.0000     -10.507700      -285.9291 
  18   1.0000     -10.505454      -285.8679 
  19   1.0000     -10.505175      -285.8603 
  20   1.0000      -7.974575      -216.9992 
  21   1.0000      -7.973748      -216.9767 
  22   1.0000      -7.973708      -216.9756 
  23   1.0000      -7.972263      -216.9363 
  24   1.0000      -7.972029      -216.9299 
  25   1.0000      -7.971563      -216.9172 
  26   1.0000      -7.971483      -216.9151 
  27   1.0000      -7.971274      -216.9094 
  28   1.0000      -7.971191      -216.9071 
  29   1.0000      -4.580959      -124.6542 
  30   1.0000      -3.193775       -86.9070 
  31   1.0000      -3.192833       -86.8814 
  32   1.0000      -3.192421       -86.8702 
  33   1.0000      -1.417540       -38.5732 
  34   1.0000      -1.164505       -31.6878 
  35   1.0000      -1.088481       -29.6191 
  36   1.0000      -1.052900       -28.6509 
  37   1.0000      -1.047485       -28.5035 
  38   1.0000      -1.045464       -28.4485 
  39   1.0000      -1.038487       -28.2587 
  40   1.0000      -0.997581       -27.1456 
  41   1.0000      -0.984343       -26.7853 
  42   1.0000      -0.930366       -25.3165 
  43   1.0000      -0.919767       -25.0281 
  44   1.0000      -0.910426       -24.7739 
  45   1.0000      -0.910300       -24.7705 
  46   1.0000      -0.900839       -24.5131 
  47   1.0000      -0.900648       -24.5079 
  48   1.0000      -0.791793       -21.5458 
  49   1.0000      -0.756884       -20.5959 
  50   1.0000      -0.695625       -18.9289 
  51   1.0000      -0.691345       -18.8125 
  52   1.0000      -0.681817       -18.5532 
  53   1.0000      -0.664380       -18.0787 
  54   1.0000      -0.643751       -17.5173 
  55   1.0000      -0.621601       -16.9146 
  56   1.0000      -0.602509       -16.3951 
  57   1.0000      -0.595898       -16.2152 
  58   1.0000      -0.584631       -15.9086 
  59   1.0000      -0.575885       -15.6706 
  60   1.0000      -0.573984       -15.6189 
  61   1.0000      -0.564911       -15.3720 
  62   1.0000      -0.553814       -15.0701 
  63   1.0000      -0.550686       -14.9849 
  64   1.0000      -0.542288       -14.7564 
  65   1.0000      -0.521810       -14.1992 
  66   1.0000      -0.516932       -14.0664 
  67   1.0000      -0.483686       -13.1618 
  68   1.0000      -0.466922       -12.7056 
  69   1.0000      -0.458502       -12.4765 
  70   1.0000      -0.434129       -11.8132 
  71   1.0000      -0.429604       -11.6901 
  72   1.0000      -0.428037       -11.6475 
  73   1.0000      -0.419801       -11.4234 
  74   1.0000      -0.418169       -11.3790 
  75   1.0000      -0.417540       -11.3618 
  76   1.0000      -0.379197       -10.3185 
  77   0.0000       0.010461         0.2846 
  78   0.0000       0.020955         0.5702 
  79   0.0000       0.022340         0.6079 
  80   0.0000       0.030181         0.8213 
  81   0.0000       0.038145         1.0380 
  82   0.0000       0.038911         1.0588 
  83   0.0000       0.041867         1.1393 
  84   0.0000       0.043945         1.1958 
  85   0.0000       0.045213         1.2303 
  86   0.0000       0.051157         1.3921 
  87   0.0000       0.056319         1.5325 
  88   0.0000       0.059240         1.6120 
  89   0.0000       0.062973         1.7136 
  90   0.0000       0.065603         1.7852 
  91   0.0000       0.068352         1.8599 
  92   0.0000       0.072167         1.9638 
  93   0.0000       0.074399         2.0245 
  94   0.0000       0.078330         2.1315 
  95   0.0000       0.090511         2.4629 
  96   0.0000       0.090840         2.4719 
  97   0.0000       0.091905         2.5009 
  98   0.0000       0.096964         2.6385 
  99   0.0000       0.101123         2.7517 
 100   0.0000       0.102273         2.7830 
 101   0.0000       0.109780         2.9873 
 102   0.0000       0.114627         3.1192 
 103   0.0000       0.120402         3.2763 
 104   0.0000       0.123428         3.3586 
 105   0.0000       0.125561         3.4167 
 106   0.0000       0.127687         3.4745 
 107   0.0000       0.129049         3.5116 
 108   0.0000       0.131254         3.5716 
 109   0.0000       0.133950         3.6450 
 110   0.0000       0.137830         3.7505 
 111   0.0000       0.139016         3.7828 
 112   0.0000       0.142602         3.8804 
 113   0.0000       0.148834         4.0500 
 114   0.0000       0.150804         4.1036 
 115   0.0000       0.151849         4.1320 
 116   0.0000       0.155938         4.2433 
 117   0.0000       0.159536         4.3412 
 118   0.0000       0.164354         4.4723 
 119   0.0000       0.167759         4.5650 
 120   0.0000       0.168875         4.5953 
 121   0.0000       0.171921         4.6782 
 122   0.0000       0.173482         4.7207 
 123   0.0000       0.176806         4.8111 
 124   0.0000       0.181240         4.9318 
 125   0.0000       0.187519         5.1026 
 126   0.0000       0.189225         5.1491 
 127   0.0000       0.192782         5.2459 
 128   0.0000       0.193281         5.2594 
 129   0.0000       0.200469         5.4550 
 130   0.0000       0.201532         5.4840 
 131   0.0000       0.205076         5.5804 
 132   0.0000       0.206569         5.6210 
 133   0.0000       0.210290         5.7223 
 134   0.0000       0.213031         5.7969 
 135   0.0000       0.215027         5.8512 
 136   0.0000       0.217046         5.9061 
 137   0.0000       0.223361         6.0780 
 138   0.0000       0.228842         6.2271 
 139   0.0000       0.230795         6.2803 
 140   0.0000       0.234298         6.3756 
 141   0.0000       0.236565         6.4373 
 142   0.0000       0.237710         6.4684 
 143   0.0000       0.244339         6.6488 
 144   0.0000       0.247542         6.7360 
 145   0.0000       0.251822         6.8524 
 146   0.0000       0.253487         6.8977 
 147   0.0000       0.253632         6.9017 
 148   0.0000       0.260732         7.0949 
 149   0.0000       0.262479         7.1424 
 150   0.0000       0.267878         7.2893 
 151   0.0000       0.270066         7.3489 
 152   0.0000       0.274919         7.4809 
 153   0.0000       0.280840         7.6420 
 154   0.0000       0.284246         7.7347 
 155   0.0000       0.287387         7.8202 
 156   0.0000       0.289695         7.8830 
 157   0.0000       0.298084         8.1113 
 158   0.0000       0.302185         8.2229 
 159   0.0000       0.305057         8.3010 
 160   0.0000       0.307290         8.3618 
 161   0.0000       0.311398         8.4736 
 162   0.0000       0.318053         8.6547 
 163   0.0000       0.320189         8.7128 
 164   0.0000       0.324918         8.8415 
 165   0.0000       0.330778         9.0009 
 166   0.0000       0.332994         9.0612 
 167   0.0000       0.337158         9.1745 
 168   0.0000       0.340563         9.2672 
 169   0.0000       0.344798         9.3824 
 170   0.0000       0.349956         9.5228 
 171   0.0000       0.356295         9.6953 
 172   0.0000       0.358226         9.7478 
 173   0.0000       0.360827         9.8186 
 174   0.0000       0.362427         9.8621 
 175   0.0000       0.365533         9.9466 
 176   0.0000       0.368305        10.0221 
 177   0.0000       0.370313        10.0767 
 178   0.0000       0.371765        10.1162 
 179   0.0000       0.374958        10.2031 
 180   0.0000       0.381485        10.3807 
 181   0.0000       0.385330        10.4854 
 182   0.0000       0.388453        10.5703 
 183   0.0000       0.391122        10.6430 
 184   0.0000       0.391429        10.6513 
 185   0.0000       0.396930        10.8010 
 186   0.0000       0.397433        10.8147 
 187   0.0000       0.401408        10.9229 
 188   0.0000       0.404595        11.0096 
 189   0.0000       0.408799        11.1240 
 190   0.0000       0.412805        11.2330 
 191   0.0000       0.415376        11.3030 
 192   0.0000       0.417652        11.3649 
 193   0.0000       0.423220        11.5164 
 194   0.0000       0.432016        11.7557 
 195   0.0000       0.432791        11.7768 
 196   0.0000       0.438159        11.9229 
 197   0.0000       0.439649        11.9635 
 198   0.0000       0.445966        12.1353 
 199   0.0000       0.449448        12.2301 
 200   0.0000       0.453474        12.3396 
 201   0.0000       0.454550        12.3689 
 202   0.0000       0.458156        12.4671 
 203   0.0000       0.461065        12.5462 
 204   0.0000       0.464938        12.6516 
 205   0.0000       0.470162        12.7937 
 206   0.0000       0.472206        12.8494 
 207   0.0000       0.475872        12.9491 
 208   0.0000       0.476958        12.9787 
 209   0.0000       0.478856        13.0303 
 210   0.0000       0.481452        13.1010 
 211   0.0000       0.486420        13.2362 
 212   0.0000       0.486938        13.2503 
 213   0.0000       0.496512        13.5108 
 214   0.0000       0.498464        13.5639 
 215   0.0000       0.504151        13.7187 
 216   0.0000       0.506656        13.7868 
 217   0.0000       0.506831        13.7916 
 218   0.0000       0.509714        13.8700 
 219   0.0000       0.511407        13.9161 
 220   0.0000       0.514156        13.9909 
 221   0.0000       0.514968        14.0130 
 222   0.0000       0.520975        14.1764 
 223   0.0000       0.525706        14.3052 
 224   0.0000       0.529517        14.4089 
 225   0.0000       0.533324        14.5125 
 226   0.0000       0.537005        14.6126 
 227   0.0000       0.542656        14.7664 
 228   0.0000       0.544176        14.8078 
 229   0.0000       0.545424        14.8417 
 230   0.0000       0.551123        14.9968 
 231   0.0000       0.554019        15.0756 
 232   0.0000       0.558326        15.1928 
 233   0.0000       0.563302        15.3282 
 234   0.0000       0.567105        15.4317 
 235   0.0000       0.570700        15.5295 
 236   0.0000       0.571265        15.5449 
 237   0.0000       0.576488        15.6870 
 238   0.0000       0.578514        15.7422 
 239   0.0000       0.585154        15.9228 
 240   0.0000       0.589708        16.0468 
 241   0.0000       0.593812        16.1584 
 242   0.0000       0.598913        16.2972 
 243   0.0000       0.600609        16.3434 
 244   0.0000       0.603350        16.4180 
 245   0.0000       0.608616        16.5613 
 246   0.0000       0.611220        16.6322 
 247   0.0000       0.618109        16.8196 
 248   0.0000       0.620672        16.8893 
 249   0.0000       0.620928        16.8963 
 250   0.0000       0.629541        17.1307 
 251   0.0000       0.634646        17.2696 
 252   0.0000       0.636583        17.3223 
 253   0.0000       0.639775        17.4092 
 254   0.0000       0.643579        17.5127 
 255   0.0000       0.646666        17.5967 
 256   0.0000       0.650586        17.7033 
 257   0.0000       0.652072        17.7438 
 258   0.0000       0.654922        17.8213 
 259   0.0000       0.656963        17.8769 
 260   0.0000       0.661109        17.9897 
 261   0.0000       0.666967        18.1491 
 262   0.0000       0.671181        18.2638 
 263   0.0000       0.674791        18.3620 
 264   0.0000       0.676438        18.4068 
 265   0.0000       0.683884        18.6094 
 266   0.0000       0.690121        18.7791 
 267   0.0000       0.694502        18.8984 
 268   0.0000       0.697568        18.9818 
 269   0.0000       0.698117        18.9967 
 270   0.0000       0.706329        19.2202 
 271   0.0000       0.712772        19.3955 
 272   0.0000       0.715475        19.4691 
 273   0.0000       0.718951        19.5637 
 274   0.0000       0.727344        19.7920 
 275   0.0000       0.732191        19.9239 
 276   0.0000       0.735117        20.0035 
 277   0.0000       0.739795        20.1308 
 278   0.0000       0.742964        20.2171 
 279   0.0000       0.745860        20.2959 
 280   0.0000       0.752996        20.4901 
 281   0.0000       0.756366        20.5818 
 282   0.0000       0.761889        20.7320 
 283   0.0000       0.772748        21.0275 
 284   0.0000       0.776801        21.1378 
 285   0.0000       0.779021        21.1982 
 286   0.0000       0.783041        21.3076 
 287   0.0000       0.793349        21.5881 
 288   0.0000       0.798702        21.7338 
 289   0.0000       0.808410        21.9980 
 290   0.0000       0.814229        22.1563 
 291   0.0000       0.816217        22.2104 
 292   0.0000       0.825469        22.4621 
 293   0.0000       0.829166        22.5628 
 294   0.0000       0.829949        22.5841 
 295   0.0000       0.835863        22.7450 
 296   0.0000       0.838444        22.8152 
 297   0.0000       0.850987        23.1565 
 298   0.0000       0.853255        23.2183 
 299   0.0000       0.858280        23.3550 
 300   0.0000       0.863750        23.5038 
 301   0.0000       0.872861        23.7518 
 302   0.0000       0.881141        23.9771 
 303   0.0000       0.881729        23.9931 
 304   0.0000       0.883562        24.0429 
 305   0.0000       0.888476        24.1767 
 306   0.0000       0.893472        24.3126 
 307   0.0000       0.900528        24.5046 
 308   0.0000       0.903940        24.5975 
 309   0.0000       0.906227        24.6597 
 310   0.0000       0.909262        24.7423 
 311   0.0000       0.910933        24.7877 
 312   0.0000       0.918669        24.9982 
 313   0.0000       0.920333        25.0435 
 314   0.0000       0.922098        25.0916 
 315   0.0000       0.932289        25.3689 
 316   0.0000       0.937958        25.5231 
 317   0.0000       0.941717        25.6254 
 318   0.0000       0.943142        25.6642 
 319   0.0000       0.945649        25.7324 
 320   0.0000       0.951177        25.8828 
 321   0.0000       0.954336        25.9688 
 322   0.0000       0.956855        26.0374 
 323   0.0000       0.959597        26.1120 
 324   0.0000       0.962342        26.1866 
 325   0.0000       0.966427        26.2978 
 326   0.0000       0.968933        26.3660 
 327   0.0000       0.971570        26.4378 
 328   0.0000       0.977066        26.5873 
 329   0.0000       0.983260        26.7559 
 330   0.0000       0.986029        26.8312 
 331   0.0000       0.987059        26.8592 
 332   0.0000       0.992128        26.9972 
 333   0.0000       0.995193        27.0806 
 334   0.0000       0.999535        27.1987 
 335   0.0000       1.002375        27.2760 
 336   0.0000       1.006582        27.3905 
 337   0.0000       1.008773        27.4501 
 338   0.0000       1.012439        27.5499 
 339   0.0000       1.015856        27.6428 
 340   0.0000       1.024325        27.8733 
 341   0.0000       1.025828        27.9142 
 342   0.0000       1.029494        28.0140 
 343   0.0000       1.033172        28.1141 
 344   0.0000       1.035479        28.1768 
 345   0.0000       1.039133        28.2762 
 346   0.0000       1.042039        28.3553 
 347   0.0000       1.044678        28.4271 
 348   0.0000       1.048516        28.5316 
 349   0.0000       1.054604        28.6972 
 350   0.0000       1.056161        28.7396 
 351   0.0000       1.065766        29.0010 
 352   0.0000       1.066639        29.0247 
 353   0.0000       1.069717        29.1085 
 354   0.0000       1.072273        29.1780 
 355   0.0000       1.075660        29.2702 
 356   0.0000       1.081095        29.4181 
 357   0.0000       1.082060        29.4443 
 358   0.0000       1.086027        29.5523 
 359   0.0000       1.089540        29.6479 
 360   0.0000       1.100513        29.9465 
 361   0.0000       1.103196        30.0195 
 362   0.0000       1.104542        30.0561 
 363   0.0000       1.106917        30.1207 
 364   0.0000       1.111626        30.2489 
 365   0.0000       1.116653        30.3857 
 366   0.0000       1.120682        30.4953 
 367   0.0000       1.125829        30.6354 
 368   0.0000       1.131994        30.8031 
 369   0.0000       1.132950        30.8291 
 370   0.0000       1.142399        31.0863 
 371   0.0000       1.142825        31.0978 
 372   0.0000       1.148434        31.2505 
 373   0.0000       1.152014        31.3479 
 374   0.0000       1.160522        31.5794 
 375   0.0000       1.163765        31.6676 
 376   0.0000       1.167688        31.7744 
 377   0.0000       1.172820        31.9141 
 378   0.0000       1.174704        31.9653 
 379   0.0000       1.181554        32.1517 
 380   0.0000       1.185409        32.2566 
 381   0.0000       1.190227        32.3877 
 382   0.0000       1.192070        32.4379 
 383   0.0000       1.202252        32.7149 
 384   0.0000       1.206573        32.8325 
 385   0.0000       1.211585        32.9689 
 386   0.0000       1.213605        33.0239 
 387   0.0000       1.216535        33.1036 
 388   0.0000       1.219800        33.1924 
 389   0.0000       1.228451        33.4279 
 390   0.0000       1.234353        33.5884 
 391   0.0000       1.239046        33.7161 
 392   0.0000       1.241514        33.7833 
 393   0.0000       1.245762        33.8989 
 394   0.0000       1.255279        34.1579 
 395   0.0000       1.257575        34.2204 
 396   0.0000       1.262772        34.3618 
 397   0.0000       1.265381        34.4328 
 398   0.0000       1.270665        34.5766 
 399   0.0000       1.272293        34.6208 
 400   0.0000       1.279583        34.8192 
 401   0.0000       1.284651        34.9571 
 402   0.0000       1.292142        35.1610 
 403   0.0000       1.294834        35.2342 
 404   0.0000       1.298422        35.3319 
 405   0.0000       1.306632        35.5553 
 406   0.0000       1.311036        35.6751 
 407   0.0000       1.314974        35.7823 
 408   0.0000       1.323042        36.0018 
 409   0.0000       1.328900        36.1612 
 410   0.0000       1.334277        36.3075 
 411   0.0000       1.335987        36.3541 
 412   0.0000       1.338939        36.4344 
 413   0.0000       1.348773        36.7020 
 414   0.0000       1.350991        36.7623 
 415   0.0000       1.362109        37.0649 
 416   0.0000       1.366379        37.1811 
 417   0.0000       1.368003        37.2253 
 418   0.0000       1.372189        37.3392 
 419   0.0000       1.376197        37.4482 
 420   0.0000       1.383779        37.6546 
 421   0.0000       1.390587        37.8398 
 422   0.0000       1.395421        37.9713 
 423   0.0000       1.399666        38.0869 
 424   0.0000       1.407165        38.2909 
 425   0.0000       1.412142        38.4263 
 426   0.0000       1.416925        38.5565 
 427   0.0000       1.422500        38.7082 
 428   0.0000       1.431298        38.9476 
 429   0.0000       1.435302        39.0566 
 430   0.0000       1.440252        39.1913 
 431   0.0000       1.443019        39.2666 
 432   0.0000       1.445778        39.3416 
 433   0.0000       1.457691        39.6658 
 434   0.0000       1.460117        39.7318 
 435   0.0000       1.461674        39.7742 
 436   0.0000       1.473185        40.0874 
 437   0.0000       1.476443        40.1761 
 438   0.0000       1.482893        40.3516 
 439   0.0000       1.486719        40.4557 
 440   0.0000       1.493841        40.6495 
 441   0.0000       1.496784        40.7296 
 442   0.0000       1.502296        40.8796 
 443   0.0000       1.505607        40.9697 
 444   0.0000       1.511762        41.1371 
 445   0.0000       1.516930        41.2778 
 446   0.0000       1.519891        41.3583 
 447   0.0000       1.523394        41.4537 
 448   0.0000       1.538187        41.8562 
 449   0.0000       1.541264        41.9399 
 450   0.0000       1.542480        41.9730 
 451   0.0000       1.547746        42.1163 
 452   0.0000       1.550686        42.1963 
 453   0.0000       1.560116        42.4529 
 454   0.0000       1.566816        42.6352 
 455   0.0000       1.571099        42.7518 
 456   0.0000       1.574479        42.8437 
 457   0.0000       1.580741        43.0142 
 458   0.0000       1.583758        43.0963 
 459   0.0000       1.586435        43.1691 
 460   0.0000       1.592600        43.3368 
 461   0.0000       1.600180        43.5431 
 462   0.0000       1.607106        43.7316 
 463   0.0000       1.608630        43.7731 
 464   0.0000       1.617516        44.0149 
 465   0.0000       1.625489        44.2318 
 466   0.0000       1.626446        44.2578 
 467   0.0000       1.630494        44.3680 
 468   0.0000       1.633170        44.4408 
 469   0.0000       1.642086        44.6834 
 470   0.0000       1.654518        45.0217 
 471   0.0000       1.660032        45.1718 
 472   0.0000       1.661528        45.2125 
 473   0.0000       1.665281        45.3146 
 474   0.0000       1.671096        45.4728 
 475   0.0000       1.677795        45.6551 
 476   0.0000       1.680345        45.7245 
 477   0.0000       1.689903        45.9846 
 478   0.0000       1.695998        46.1505 
 479   0.0000       1.701254        46.2935 
 480   0.0000       1.703728        46.3608 
 481   0.0000       1.705323        46.4042 
 482   0.0000       1.708135        46.4807 
 483   0.0000       1.713768        46.6340 
 484   0.0000       1.724910        46.9372 
 485   0.0000       1.726262        46.9740 
 486   0.0000       1.731734        47.1229 
 487   0.0000       1.739214        47.3264 
 488   0.0000       1.746073        47.5131 
 489   0.0000       1.749664        47.6108 
 490   0.0000       1.759430        47.8765 
 491   0.0000       1.762212        47.9522 
 492   0.0000       1.769082        48.1392 
 493   0.0000       1.772512        48.2325 
 494   0.0000       1.775292        48.3081 
 495   0.0000       1.778016        48.3823 
 496   0.0000       1.779229        48.4153 
 497   0.0000       1.786527        48.6139 
 498   0.0000       1.792863        48.7863 
 499   0.0000       1.798098        48.9287 
 500   0.0000       1.805975        49.1431 
 501   0.0000       1.809097        49.2280 
 502   0.0000       1.813153        49.3384 
 503   0.0000       1.817055        49.4446 
 504   0.0000       1.819837        49.5203 
 505   0.0000       1.823754        49.6269 
 506   0.0000       1.835502        49.9465 
 507   0.0000       1.844907        50.2025 
 508   0.0000       1.847481        50.2725 
 509   0.0000       1.851244        50.3749 
 510   0.0000       1.857482        50.5447 
 511   0.0000       1.862021        50.6682 
 512   0.0000       1.869284        50.8658 
 513   0.0000       1.878162        51.1074 
 514   0.0000       1.884201        51.2717 
 515   0.0000       1.888078        51.3772 
 516   0.0000       1.890785        51.4509 
 517   0.0000       1.892224        51.4900 
 518   0.0000       1.896833        51.6155 
 519   0.0000       1.905339        51.8469 
 520   0.0000       1.908699        51.9383 
 521   0.0000       1.910762        51.9945 
 522   0.0000       1.922930        52.3256 
 523   0.0000       1.930593        52.5341 
 524   0.0000       1.932217        52.5783 
 525   0.0000       1.937271        52.7158 
 526   0.0000       1.943108        52.8747 
 527   0.0000       1.947359        52.9903 
 528   0.0000       1.952989        53.1435 
 529   0.0000       1.957603        53.2691 
 530   0.0000       1.965699        53.4894 
 531   0.0000       1.967445        53.5369 
 532   0.0000       1.983284        53.9679 
 533   0.0000       1.986834        54.0645 
 534   0.0000       1.992782        54.2264 
 535   0.0000       1.994415        54.2708 
 536   0.0000       1.998260        54.3754 
 537   0.0000       2.004923        54.5567 
 538   0.0000       2.014799        54.8255 
 539   0.0000       2.022809        55.0434 
 540   0.0000       2.028702        55.2038 
 541   0.0000       2.034631        55.3651 
 542   0.0000       2.044382        55.6305 
 543   0.0000       2.045139        55.6511 
 544   0.0000       2.048712        55.7483 
 545   0.0000       2.061492        56.0961 
 546   0.0000       2.068034        56.2741 
 547   0.0000       2.073395        56.4199 
 548   0.0000       2.078555        56.5604 
 549   0.0000       2.087429        56.8018 
 550   0.0000       2.091405        56.9100 
 551   0.0000       2.096077        57.0372 
 552   0.0000       2.108379        57.3719 
 553   0.0000       2.114372        57.5350 
 554   0.0000       2.120386        57.6986 
 555   0.0000       2.126876        57.8752 
 556   0.0000       2.131747        58.0078 
 557   0.0000       2.139747        58.2255 
 558   0.0000       2.141855        58.2828 
 559   0.0000       2.153259        58.5932 
 560   0.0000       2.157730        58.7148 
 561   0.0000       2.165309        58.9211 
 562   0.0000       2.170741        59.0689 
 563   0.0000       2.180516        59.3348 
 564   0.0000       2.195073        59.7310 
 565   0.0000       2.198623        59.8276 
 566   0.0000       2.209272        60.1173 
 567   0.0000       2.211948        60.1902 
 568   0.0000       2.216215        60.3063 
 569   0.0000       2.224530        60.5325 
 570   0.0000       2.228852        60.6502 
 571   0.0000       2.241673        60.9990 
 572   0.0000       2.245573        61.1051 
 573   0.0000       2.250046        61.2269 
 574   0.0000       2.259194        61.4758 
 575   0.0000       2.269260        61.7497 
 576   0.0000       2.275818        61.9282 
 577   0.0000       2.278230        61.9938 
 578   0.0000       2.287155        62.2367 
 579   0.0000       2.290158        62.3184 
 580   0.0000       2.292306        62.3768 
 581   0.0000       2.300156        62.5904 
 582   0.0000       2.311987        62.9124 
 583   0.0000       2.319007        63.1034 
 584   0.0000       2.330040        63.4036 
 585   0.0000       2.337296        63.6010 
 586   0.0000       2.339871        63.6711 
 587   0.0000       2.345226        63.8169 
 588   0.0000       2.358356        64.1741 
 589   0.0000       2.376502        64.6679 
 590   0.0000       2.380775        64.7842 
 591   0.0000       2.383786        64.8661 
 592   0.0000       2.393904        65.1414 
 593   0.0000       2.399028        65.2809 
 594   0.0000       2.410716        65.5989 
 595   0.0000       2.417662        65.7879 
 596   0.0000       2.427093        66.0446 
 597   0.0000       2.433823        66.2277 
 598   0.0000       2.440790        66.4173 
 599   0.0000       2.445121        66.5351 
 600   0.0000       2.460019        66.9405 
 601   0.0000       2.461737        66.9873 
 602   0.0000       2.468970        67.1841 
 603   0.0000       2.483793        67.5874 
 604   0.0000       2.495299        67.9005 
 605   0.0000       2.497554        67.9619 
 606   0.0000       2.499450        68.0135 
 607   0.0000       2.510938        68.3261 
 608   0.0000       2.526798        68.7577 
 609   0.0000       2.541676        69.1625 
 610   0.0000       2.551303        69.4245 
 611   0.0000       2.569545        69.9209 
 612   0.0000       2.571569        69.9760 
 613   0.0000       2.583580        70.3028 
 614   0.0000       2.592362        70.5418 
 615   0.0000       2.607778        70.9613 
 616   0.0000       2.618512        71.2533 
 617   0.0000       2.630488        71.5792 
 618   0.0000       2.646125        72.0047 
 619   0.0000       2.655748        72.2666 
 620   0.0000       2.665056        72.5199 
 621   0.0000       2.675597        72.8067 
 622   0.0000       2.679929        72.9246 
 623   0.0000       2.687406        73.1280 
 624   0.0000       2.701926        73.5232 
 625   0.0000       2.704176        73.5844 
 626   0.0000       2.714648        73.8693 
 627   0.0000       2.716681        73.9247 
 628   0.0000       2.729774        74.2809 
 629   0.0000       2.737872        74.5013 
 630   0.0000       2.749233        74.8104 
 631   0.0000       2.760232        75.1097 
 632   0.0000       2.771680        75.4212 
 633   0.0000       2.780502        75.6613 
 634   0.0000       2.786193        75.8162 
 635   0.0000       2.791493        75.9604 
 636   0.0000       2.806071        76.3571 
 637   0.0000       2.819805        76.7308 
 638   0.0000       2.822116        76.7937 
 639   0.0000       2.858167        77.7747 
 640   0.0000       2.861913        77.8766 
 641   0.0000       2.874412        78.2167 
 642   0.0000       2.893027        78.7233 
 643   0.0000       2.895982        78.8037 
 644   0.0000       2.914253        79.3008 
 645   0.0000       2.922990        79.5386 
 646   0.0000       2.939724        79.9940 
 647   0.0000       2.946423        80.1762 
 648   0.0000       2.948148        80.2232 
 649   0.0000       2.959275        80.5260 
 650   0.0000       2.988932        81.3330 
 651   0.0000       2.998446        81.5919 
 652   0.0000       3.016704        82.0887 
 653   0.0000       3.030652        82.4682 
 654   0.0000       3.052591        83.0652 
 655   0.0000       3.055496        83.1443 
 656   0.0000       3.064578        83.3914 
 657   0.0000       3.079196        83.7892 
 658   0.0000       3.095265        84.2264 
 659   0.0000       3.114684        84.7549 
 660   0.0000       3.123824        85.0036 
 661   0.0000       3.144129        85.5561 
 662   0.0000       3.156346        85.8885 
 663   0.0000       3.165514        86.1380 
 664   0.0000       3.185490        86.6816 
 665   0.0000       3.199617        87.0660 
 666   0.0000       3.202150        87.1349 
 667   0.0000       3.217999        87.5662 
 668   0.0000       3.224128        87.7330 
 669   0.0000       3.237185        88.0883 
 670   0.0000       3.244701        88.2928 
 671   0.0000       3.256844        88.6232 
 672   0.0000       3.264837        88.8407 
 673   0.0000       3.268777        88.9479 
 674   0.0000       3.281384        89.2910 
 675   0.0000       3.292644        89.5974 
 676   0.0000       3.301172        89.8295 
 677   0.0000       3.311377        90.1072 
 678   0.0000       3.315100        90.2084 
 679   0.0000       3.329940        90.6123 
 680   0.0000       3.339293        90.8668 
 681   0.0000       3.344521        91.0090 
 682   0.0000       3.347867        91.1001 
 683   0.0000       3.353923        91.2649 
 684   0.0000       3.362013        91.4850 
 685   0.0000       3.373687        91.8027 
 686   0.0000       3.381807        92.0236 
 687   0.0000       3.396686        92.4285 
 688   0.0000       3.418461        93.0210 
 689   0.0000       3.427699        93.2724 
 690   0.0000       3.436137        93.5020 
 691   0.0000       3.446520        93.7846 
 692   0.0000       3.454749        94.0085 
 693   0.0000       3.456566        94.0580 
 694   0.0000       3.479512        94.6823 
 695   0.0000       3.485476        94.8446 
 696   0.0000       3.488807        94.9353 
 697   0.0000       3.496853        95.1542 
 698   0.0000       3.506429        95.4148 
 699   0.0000       3.510867        95.5356 
 700   0.0000       3.515438        95.6599 
 701   0.0000       3.528476        96.0147 
 702   0.0000       3.545264        96.4715 
 703   0.0000       3.547947        96.5445 
 704   0.0000       3.554066        96.7111 
 705   0.0000       3.573028        97.2270 
 706   0.0000       3.578631        97.3795 
 707   0.0000       3.585832        97.5754 
 708   0.0000       3.589517        97.6757 
 709   0.0000       3.595744        97.8452 
 710   0.0000       3.610316        98.2417 
 711   0.0000       3.616706        98.4156 
 712   0.0000       3.621566        98.5478 
 713   0.0000       3.625411        98.6524 
 714   0.0000       3.630242        98.7839 
 715   0.0000       3.643622        99.1480 
 716   0.0000       3.653341        99.4125 
 717   0.0000       3.662951        99.6740 
 718   0.0000       3.674251        99.9815 
 719   0.0000       3.682162       100.1967 
 720   0.0000       3.689165       100.3873 
 721   0.0000       3.691733       100.4572 
 722   0.0000       3.698390       100.6383 
 723   0.0000       3.714358       101.0728 
 724   0.0000       3.717320       101.1534 
 725   0.0000       3.725580       101.3782 
 726   0.0000       3.731614       101.5424 
 727   0.0000       3.732224       101.5590 
 728   0.0000       3.749105       102.0183 
 729   0.0000       3.757463       102.2458 
 730   0.0000       3.760640       102.3322 
 731   0.0000       3.769858       102.5831 
 732   0.0000       3.778419       102.8160 
 733   0.0000       3.781542       102.9010 
 734   0.0000       3.800394       103.4140 
 735   0.0000       3.802583       103.4735 
 736   0.0000       3.809222       103.6542 
 737   0.0000       3.814593       103.8004 
 738   0.0000       3.817808       103.8878 
 739   0.0000       3.826505       104.1245 
 740   0.0000       3.831774       104.2679 
 741   0.0000       3.837544       104.4249 
 742   0.0000       3.845012       104.6281 
 743   0.0000       3.852577       104.8339 
 744   0.0000       3.861997       105.0903 
 745   0.0000       3.878156       105.5300 
 746   0.0000       3.883124       105.6652 
 747   0.0000       3.895098       105.9910 
 748   0.0000       3.901058       106.1532 
 749   0.0000       3.906122       106.2910 
 750   0.0000       3.913467       106.4908 
 751   0.0000       3.917778       106.6082 
 752   0.0000       3.921703       106.7150 
 753   0.0000       3.924625       106.7945 
 754   0.0000       3.934114       107.0527 
 755   0.0000       3.936480       107.1171 
 756   0.0000       3.947470       107.4161 
 757   0.0000       3.953148       107.5706 
 758   0.0000       3.959338       107.7391 
 759   0.0000       3.964221       107.8719 
 760   0.0000       3.974751       108.1585 
 761   0.0000       3.979952       108.3000 
 762   0.0000       3.991288       108.6085 
 763   0.0000       3.997435       108.7757 
 764   0.0000       4.008802       109.0850 
 765   0.0000       4.010348       109.1271 
 766   0.0000       4.014290       109.2344 
 767   0.0000       4.028848       109.6305 
 768   0.0000       4.036429       109.8368 
 769   0.0000       4.042035       109.9894 
 770   0.0000       4.050185       110.2111 
 771   0.0000       4.058478       110.4368 
 772   0.0000       4.068089       110.6983 
 773   0.0000       4.069717       110.7426 
 774   0.0000       4.081295       111.0577 
 775   0.0000       4.091099       111.3245 
 776   0.0000       4.103328       111.6572 
 777   0.0000       4.105448       111.7149 
 778   0.0000       4.107369       111.7672 
 779   0.0000       4.122761       112.1860 
 780   0.0000       4.131363       112.4201 
 781   0.0000       4.135456       112.5315 
 782   0.0000       4.138704       112.6199 
 783   0.0000       4.150715       112.9467 
 784   0.0000       4.156055       113.0920 
 785   0.0000       4.164443       113.3202 
 786   0.0000       4.174666       113.5984 
 787   0.0000       4.184925       113.8776 
 788   0.0000       4.197822       114.2285 
 789   0.0000       4.203051       114.3708 
 790   0.0000       4.207109       114.4812 
 791   0.0000       4.216415       114.7345 
 792   0.0000       4.227435       115.0344 
 793   0.0000       4.232897       115.1830 
 794   0.0000       4.242214       115.4365 
 795   0.0000       4.252471       115.7156 
 796   0.0000       4.259851       115.9164 
 797   0.0000       4.267921       116.1360 
 798   0.0000       4.270457       116.2050 
 799   0.0000       4.289928       116.7349 
 800   0.0000       4.294964       116.8719 
 801   0.0000       4.301753       117.0566 
 802   0.0000       4.307132       117.2030 
 803   0.0000       4.323544       117.6496 
 804   0.0000       4.326233       117.7228 
 805   0.0000       4.335818       117.9836 
 806   0.0000       4.340146       118.1014 
 807   0.0000       4.364424       118.7620 
 808   0.0000       4.367345       118.8415 
 809   0.0000       4.376966       119.1033 
 810   0.0000       4.383110       119.2705 
 811   0.0000       4.388633       119.4208 
 812   0.0000       4.404646       119.8565 
 813   0.0000       4.413078       120.0860 
 814   0.0000       4.424151       120.3873 
 815   0.0000       4.429725       120.5389 
 816   0.0000       4.438656       120.7820 
 817   0.0000       4.440813       120.8407 
 818   0.0000       4.455018       121.2272 
 819   0.0000       4.462137       121.4209 
 820   0.0000       4.473011       121.7168 
 821   0.0000       4.486655       122.0881 
 822   0.0000       4.492094       122.2361 
 823   0.0000       4.505084       122.5896 
 824   0.0000       4.514991       122.8591 
 825   0.0000       4.523071       123.0790 
 826   0.0000       4.535507       123.4174 
 827   0.0000       4.542113       123.5972 
 828   0.0000       4.544912       123.6733 
 829   0.0000       4.561360       124.1209 
 830   0.0000       4.566908       124.2719 
 831   0.0000       4.584860       124.7604 
 832   0.0000       4.598508       125.1318 
 833   0.0000       4.600076       125.1744 
 834   0.0000       4.615756       125.6011 
 835   0.0000       4.618170       125.6668 
 836   0.0000       4.633982       126.0971 
 837   0.0000       4.639184       126.2386 
 838   0.0000       4.658486       126.7639 
 839   0.0000       4.671696       127.1233 
 840   0.0000       4.686187       127.5176 
 841   0.0000       4.692548       127.6907 
 842   0.0000       4.704205       128.0079 
 843   0.0000       4.718489       128.3966 
 844   0.0000       4.719372       128.4206 
 845   0.0000       4.736183       128.8781 
 846   0.0000       4.750918       129.2791 
 847   0.0000       4.762255       129.5876 
 848   0.0000       4.774805       129.9291 
 849   0.0000       4.787188       130.2660 
 850   0.0000       4.789894       130.3396 
 851   0.0000       4.795479       130.4916 
 852   0.0000       4.809576       130.8752 
 853   0.0000       4.813900       130.9929 
 854   0.0000       4.827404       131.3604 
 855   0.0000       4.849111       131.9510 
 856   0.0000       4.851522       132.0166 
 857   0.0000       4.874141       132.6321 
 858   0.0000       4.882294       132.8540 
 859   0.0000       4.895904       133.2243 
 860   0.0000       4.902608       133.4067 
 861   0.0000       4.912588       133.6783 
 862   0.0000       4.930206       134.1577 
 863   0.0000       4.936602       134.3318 
 864   0.0000       4.954507       134.8190 
 865   0.0000       4.960459       134.9809 
 866   0.0000       4.968845       135.2092 
 867   0.0000       4.985331       135.6578 
 868   0.0000       5.001882       136.1081 
 869   0.0000       5.008680       136.2931 
 870   0.0000       5.017143       136.5234 
 871   0.0000       5.023821       136.7051 
 872   0.0000       5.042114       137.2029 
 873   0.0000       5.047400       137.3467 
 874   0.0000       5.060865       137.7131 
 875   0.0000       5.064749       137.8188 
 876   0.0000       5.076952       138.1509 
 877   0.0000       5.092954       138.5863 
 878   0.0000       5.112549       139.1195 
 879   0.0000       5.121006       139.3497 
 880   0.0000       5.135996       139.7576 
 881   0.0000       5.150436       140.1505 
 882   0.0000       5.162150       140.4692 
 883   0.0000       5.170495       140.6963 
 884   0.0000       5.174795       140.8133 
 885   0.0000       5.191585       141.2702 
 886   0.0000       5.208722       141.7365 
 887   0.0000       5.223045       142.1263 
 888   0.0000       5.234420       142.4358 
 889   0.0000       5.238682       142.5518 
 890   0.0000       5.250340       142.8690 
 891   0.0000       5.268982       143.3763 
 892   0.0000       5.285371       143.8222 
 893   0.0000       5.289093       143.9235 
 894   0.0000       5.310585       144.5084 
 895   0.0000       5.324659       144.8913 
 896   0.0000       5.337985       145.2540 
 897   0.0000       5.354740       145.7099 
 898   0.0000       5.364881       145.9858 
 899   0.0000       5.379576       146.3857 
 900   0.0000       5.384589       146.5221 
 901   0.0000       5.391109       146.6995 
 902   0.0000       5.401678       146.9871 
 903   0.0000       5.408786       147.1806 
 904   0.0000       5.414153       147.3266 
 905   0.0000       5.423924       147.5925 
 906   0.0000       5.435814       147.9160 
 907   0.0000       5.451790       148.3508 
 908   0.0000       5.458025       148.5204 
 909   0.0000       5.467880       148.7886 
 910   0.0000       5.500380       149.6729 
 911   0.0000       5.507548       149.8680 
 912   0.0000       5.533403       150.5715 
 913   0.0000       5.540017       150.7515 
 914   0.0000       5.555589       151.1753 
 915   0.0000       5.564050       151.4055 
 916   0.0000       5.575576       151.7191 
 917   0.0000       5.585251       151.9824 
 918   0.0000       5.591684       152.1575 
 919   0.0000       5.600474       152.3967 
 920   0.0000       5.623457       153.0220 
 921   0.0000       5.624440       153.0488 
 922   0.0000       5.636079       153.3655 
 923   0.0000       5.653994       153.8530 
 924   0.0000       5.659371       153.9993 
 925   0.0000       5.671015       154.3162 
 926   0.0000       5.679536       154.5480 
 927   0.0000       5.690049       154.8341 
 928   0.0000       5.699447       155.0899 
 929   0.0000       5.718725       155.6144 
 930   0.0000       5.728245       155.8735 
 931   0.0000       5.732662       155.9937 
 932   0.0000       5.742921       156.2728 
 933   0.0000       5.758777       156.7043 
 934   0.0000       5.762831       156.8146 
 935   0.0000       5.781925       157.3342 
 936   0.0000       5.795289       157.6978 
 937   0.0000       5.814981       158.2337 
 938   0.0000       5.815992       158.2612 
 939   0.0000       5.839769       158.9082 
 940   0.0000       5.856097       159.3525 
 941   0.0000       5.882088       160.0597 
 942   0.0000       5.912906       160.8984 
 943   0.0000       5.932432       161.4297 
 944   0.0000       5.952126       161.9656 
 945   0.0000       5.984294       162.8409 
 946   0.0000       6.045787       164.5142 
 947   0.0000       6.107449       166.1921 
 948   0.0000       6.121989       166.5878 
 949   0.0000       6.134661       166.9326 
 950   0.0000       6.154747       167.4792 
 951   0.0000       6.174317       168.0117 
 952   0.0000       6.193362       168.5299 
 953   0.0000       6.208050       168.9296 
 954   0.0000       6.225243       169.3975 
 955   0.0000       6.234002       169.6358 
 956   0.0000       6.247730       170.0094 
 957   0.0000       6.263074       170.4269 
 958   0.0000       6.270682       170.6339 
 959   0.0000       6.295185       171.3007 
 960   0.0000       6.325309       172.1204 
 961   0.0000       6.332486       172.3157 
 962   0.0000       6.346082       172.6857 
 963   0.0000       6.361273       173.0990 
 964   0.0000       6.397158       174.0755 
 965   0.0000       6.403674       174.2528 
 966   0.0000       6.443840       175.3458 
 967   0.0000       6.463278       175.8747 
 968   0.0000       6.517732       177.3565 
 969   0.0000       6.537540       177.8955 
 970   0.0000       6.594220       179.4379 
 971   0.0000       6.711746       182.6359 
 972   0.0000       6.839778       186.1198 
 973   0.0000       6.862409       186.7356 
 974   0.0000       6.882811       187.2908 
 975   0.0000       6.901881       187.8097 
 976   0.0000       6.948425       189.0762 
 977   0.0000       6.949292       189.0999 
 978   0.0000       6.968334       189.6180 
 979   0.0000       6.997140       190.4019 
 980   0.0000       7.022406       191.0894 
 981   0.0000       7.032333       191.3595 
 982   0.0000       7.068337       192.3392 
 983   0.0000       7.090595       192.9449 
 984   0.0000       7.177377       195.3064 
 985   0.0000       7.200802       195.9438 
 986   0.0000       7.364570       200.4001 
 987   0.0000       7.403050       201.4472 
 988   0.0000       7.484021       203.6506 
 989   0.0000       7.517822       204.5703 
 990   0.0000       7.566309       205.8897 
 991   0.0000       7.620986       207.3776 
 992   0.0000       7.688799       209.2228 
 993   0.0000       7.753680       210.9884 
 994   0.0000       7.840051       213.3386 
 995   0.0000       7.926492       215.6908 
 996   0.0000       8.041604       218.8232 
 997   0.0000       8.123866       221.0616 
 998   0.0000       8.322185       226.4582 
 999   0.0000       9.429596       256.5923 
 1000   0.0000       9.451396       257.1856 
 1001   0.0000       9.461690       257.4657 
 1002   0.0000       9.467088       257.6126 
 1003   0.0000       9.482675       258.0367 
 1004   0.0000       9.511303       258.8157 
 1005   0.0000       9.735428       264.9145 
 1006   0.0000      10.095846       274.7219 
 1007   0.0000      10.121709       275.4257 
 1008   0.0000      10.137035       275.8427 
 1009   0.0000      10.217140       278.0225 
 1010   0.0000      10.220604       278.1168 
 1011   0.0000      10.258983       279.1611 
 1012   0.0000      10.382243       282.5152 
 1013   0.0000      10.424217       283.6574 
 1014   0.0000      10.540620       286.8248 
 1015   0.0000      17.123715       465.9600 
 1016   0.0000      18.034104       490.7329 
 1017   0.0000      18.331247       498.8186 
 1018   0.0000      18.500964       503.4368 
 1019   0.0000      18.800549       511.5890 
 1020   0.0000      18.927311       515.0383 
 1021   0.0000      19.018205       517.5117 
 1022   0.0000      20.384142       554.6807 
 1023   0.0000      20.917088       569.1829 
 1024   0.0000      22.032821       599.5435 

                 SPIN DOWN ORBITALS
  NO   OCC          E(Eh)            E(eV) 
   0   1.0000    -261.554224     -7117.2523 
   1   1.0000    -104.779675     -2851.1999 
   2   1.0000    -104.777487     -2851.1404 
   3   1.0000    -104.777131     -2851.1307 
   4   1.0000     -32.063587      -872.4946 
   5   1.0000     -27.541580      -749.4445 
   6   1.0000     -27.541483      -749.4419 
   7   1.0000     -27.541125      -749.4321 
   8   1.0000     -20.562936      -559.5459 
   9   1.0000     -11.403146      -310.2954 
  10   1.0000     -11.335230      -308.4473 
  11   1.0000     -11.270231      -306.6786 
  12   1.0000     -11.263012      -306.4821 
  13   1.0000     -11.262405      -306.4656 
  14   1.0000     -11.257174      -306.3233 
  15   1.0000     -11.256683      -306.3099 
  16   1.0000     -11.254097      -306.2395 
  17   1.0000     -10.506196      -285.8881 
  18   1.0000     -10.503947      -285.8269 
  19   1.0000     -10.503611      -285.8178 
  20   1.0000      -7.972081      -216.9314 
  21   1.0000      -7.971505      -216.9157 
  22   1.0000      -7.971433      -216.9137 
  23   1.0000      -7.969925      -216.8727 
  24   1.0000      -7.969525      -216.8618 
  25   1.0000      -7.969197      -216.8529 
  26   1.0000      -7.969104      -216.8504 
  27   1.0000      -7.968864      -216.8438 
  28   1.0000      -7.968775      -216.8414 
  29   1.0000      -4.138664      -112.6188 
  30   1.0000      -2.660358       -72.3920 
  31   1.0000      -2.660315       -72.3908 
  32   1.0000      -2.659717       -72.3746 
  33   1.0000      -1.405382       -38.2424 
  34   1.0000      -1.163553       -31.6619 
  35   1.0000      -1.085766       -29.5452 
  36   1.0000      -1.038307       -28.2538 
  37   1.0000      -1.037877       -28.2421 
  38   1.0000      -1.026497       -27.9324 
  39   1.0000      -1.024735       -27.8845 
  40   1.0000      -0.996852       -27.1257 
  41   1.0000      -0.984171       -26.7806 
  42   1.0000      -0.924295       -25.1514 
  43   1.0000      -0.805563       -21.9205 
  44   1.0000      -0.757143       -20.6029 
  45   1.0000      -0.695354       -18.9216 
  46   1.0000      -0.692900       -18.8548 
  47   1.0000      -0.682385       -18.5686 
  48   1.0000      -0.663482       -18.0543 
  49   1.0000      -0.643634       -17.5142 
  50   1.0000      -0.621440       -16.9103 
  51   1.0000      -0.601679       -16.3725 
  52   1.0000      -0.595822       -16.2131 
  53   1.0000      -0.584525       -15.9057 
  54   1.0000      -0.575633       -15.6638 
  55   1.0000      -0.573751       -15.6126 
  56   1.0000      -0.564765       -15.3680 
  57   1.0000      -0.553274       -15.0553 
  58   1.0000      -0.550297       -14.9743 
  59   1.0000      -0.537615       -14.6292 
  60   1.0000      -0.521484       -14.1903 
  61   1.0000      -0.508940       -13.8489 
  62   1.0000      -0.481457       -13.1011 
  63   1.0000      -0.471260       -12.8236 
  64   1.0000      -0.468957       -12.7610 
  65   1.0000      -0.442036       -12.0284 
  66   1.0000      -0.439008       -11.9460 
  67   1.0000      -0.437268       -11.8987 
  68   1.0000      -0.423938       -11.5359 
  69   1.0000      -0.417451       -11.3594 
  70   1.0000      -0.403816       -10.9884 
  71   1.0000      -0.376929       -10.2568 
  72   0.0000       0.010458         0.2846 
  73   0.0000       0.020926         0.5694 
  74   0.0000       0.022318         0.6073 
  75   0.0000       0.030201         0.8218 
  76   0.0000       0.037967         1.0331 
  77   0.0000       0.038820         1.0564 
  78   0.0000       0.041763         1.1364 
  79   0.0000       0.043828         1.1926 
  80   0.0000       0.045259         1.2316 
  81   0.0000       0.050066         1.3624 
  82   0.0000       0.056309         1.5322 
  83   0.0000       0.059228         1.6117 
  84   0.0000       0.062740         1.7072 
  85   0.0000       0.065282         1.7764 
  86   0.0000       0.068294         1.8584 
  87   0.0000       0.072109         1.9622 
  88   0.0000       0.074378         2.0239 
  89   0.0000       0.078122         2.1258 
  90   0.0000       0.090107         2.4519 
  91   0.0000       0.090728         2.4688 
  92   0.0000       0.091665         2.4943 
  93   0.0000       0.096923         2.6374 
  94   0.0000       0.100835         2.7439 
  95   0.0000       0.102267         2.7828 
  96   0.0000       0.109102         2.9688 
  97   0.0000       0.114174         3.1068 
  98   0.0000       0.117464         3.1964 
  99   0.0000       0.118943         3.2366 
 100   0.0000       0.120334         3.2745 
 101   0.0000       0.121082         3.2948 
 102   0.0000       0.123340         3.3563 
 103   0.0000       0.125570         3.4169 
 104   0.0000       0.126530         3.4431 
 105   0.0000       0.127517         3.4699 
 106   0.0000       0.129777         3.5314 
 107   0.0000       0.132278         3.5995 
 108   0.0000       0.134864         3.6698 
 109   0.0000       0.135250         3.6803 
 110   0.0000       0.139238         3.7889 
 111   0.0000       0.140653         3.8274 
 112   0.0000       0.144889         3.9426 
 113   0.0000       0.149307         4.0629 
 114   0.0000       0.152097         4.1388 
 115   0.0000       0.153460         4.1759 
 116   0.0000       0.156173         4.2497 
 117   0.0000       0.160967         4.3801 
 118   0.0000       0.166820         4.5394 
 119   0.0000       0.168445         4.5836 
 120   0.0000       0.169651         4.6164 
 121   0.0000       0.172318         4.6890 
 122   0.0000       0.176104         4.7920 
 123   0.0000       0.178424         4.8552 
 124   0.0000       0.182842         4.9754 
 125   0.0000       0.189254         5.1499 
 126   0.0000       0.189934         5.1684 
 127   0.0000       0.194264         5.2862 
 128   0.0000       0.197896         5.3850 
 129   0.0000       0.202826         5.5192 
 130   0.0000       0.203273         5.5313 
 131   0.0000       0.207663         5.6508 
 132   0.0000       0.210111         5.7174 
 133   0.0000       0.211147         5.7456 
 134   0.0000       0.214755         5.8438 
 135   0.0000       0.219016         5.9597 
 136   0.0000       0.223194         6.0734 
 137   0.0000       0.227010         6.1772 
 138   0.0000       0.232326         6.3219 
 139   0.0000       0.233575         6.3559 
 140   0.0000       0.236029         6.4227 
 141   0.0000       0.240528         6.5451 
 142   0.0000       0.244996         6.6667 
 143   0.0000       0.245821         6.6891 
 144   0.0000       0.250124         6.8062 
 145   0.0000       0.254901         6.9362 
 146   0.0000       0.255104         6.9417 
 147   0.0000       0.260343         7.0843 
 148   0.0000       0.263227         7.1628 
 149   0.0000       0.267350         7.2750 
 150   0.0000       0.273713         7.4481 
 151   0.0000       0.275076         7.4852 
 152   0.0000       0.281982         7.6731 
 153   0.0000       0.285100         7.7580 
 154   0.0000       0.289509         7.8779 
 155   0.0000       0.293807         7.9949 
 156   0.0000       0.301608         8.2072 
 157   0.0000       0.304359         8.2820 
 158   0.0000       0.305891         8.3237 
 159   0.0000       0.307676         8.3723 
 160   0.0000       0.312253         8.4968 
 161   0.0000       0.317151         8.6301 
 162   0.0000       0.321366         8.7448 
 163   0.0000       0.328268         8.9326 
 164   0.0000       0.329924         8.9777 
 165   0.0000       0.333493         9.0748 
 166   0.0000       0.335267         9.1231 
 167   0.0000       0.339682         9.2432 
 168   0.0000       0.342144         9.3102 
 169   0.0000       0.348829         9.4921 
 170   0.0000       0.351451         9.5635 
 171   0.0000       0.358214         9.7475 
 172   0.0000       0.362780         9.8718 
 173   0.0000       0.364504         9.9187 
 174   0.0000       0.365482         9.9453 
 175   0.0000       0.368850        10.0369 
 176   0.0000       0.370547        10.0831 
 177   0.0000       0.371918        10.1204 
 178   0.0000       0.376513        10.2454 
 179   0.0000       0.380146        10.3443 
 180   0.0000       0.387807        10.5528 
 181   0.0000       0.388700        10.5771 
 182   0.0000       0.392789        10.6883 
 183   0.0000       0.395352        10.7581 
 184   0.0000       0.399417        10.8687 
 185   0.0000       0.400643        10.9020 
 186   0.0000       0.403483        10.9793 
 187   0.0000       0.406447        11.0600 
 188   0.0000       0.408939        11.1278 
 189   0.0000       0.411552        11.1989 
 190   0.0000       0.416117        11.3231 
 191   0.0000       0.417639        11.3645 
 192   0.0000       0.422223        11.4893 
 193   0.0000       0.425347        11.5743 
 194   0.0000       0.433216        11.7884 
 195   0.0000       0.435191        11.8422 
 196   0.0000       0.441258        12.0072 
 197   0.0000       0.443336        12.0638 
 198   0.0000       0.452409        12.3107 
 199   0.0000       0.453712        12.3461 
 200   0.0000       0.457026        12.4363 
 201   0.0000       0.460421        12.5287 
 202   0.0000       0.460911        12.5420 
 203   0.0000       0.467308        12.7161 
 204   0.0000       0.469933        12.7875 
 205   0.0000       0.473823        12.8934 
 206   0.0000       0.477669        12.9980 
 207   0.0000       0.478284        13.0148 
 208   0.0000       0.481299        13.0968 
 209   0.0000       0.485664        13.2156 
 210   0.0000       0.486556        13.2399 
 211   0.0000       0.488969        13.3055 
 212   0.0000       0.494876        13.4663 
 213   0.0000       0.497886        13.5482 
 214   0.0000       0.502736        13.6801 
 215   0.0000       0.506261        13.7761 
 216   0.0000       0.507645        13.8137 
 217   0.0000       0.511538        13.9197 
 218   0.0000       0.513688        13.9782 
 219   0.0000       0.515249        14.0206 
 220   0.0000       0.518988        14.1224 
 221   0.0000       0.520953        14.1759 
 222   0.0000       0.522963        14.2305 
 223   0.0000       0.527975        14.3669 
 224   0.0000       0.533169        14.5083 
 225   0.0000       0.534795        14.5525 
 226   0.0000       0.540296        14.7022 
 227   0.0000       0.545834        14.8529 
 228   0.0000       0.547571        14.9002 
 229   0.0000       0.550748        14.9866 
 230   0.0000       0.553401        15.0588 
 231   0.0000       0.556805        15.1514 
 232   0.0000       0.560173        15.2431 
 233   0.0000       0.563872        15.3437 
 234   0.0000       0.568199        15.4615 
 235   0.0000       0.572241        15.5715 
 236   0.0000       0.573173        15.5968 
 237   0.0000       0.579062        15.7571 
 238   0.0000       0.581792        15.8314 
 239   0.0000       0.586728        15.9657 
 240   0.0000       0.592820        16.1314 
 241   0.0000       0.595033        16.1917 
 242   0.0000       0.600925        16.3520 
 243   0.0000       0.602379        16.3916 
 244   0.0000       0.605872        16.4866 
 245   0.0000       0.612977        16.6800 
 246   0.0000       0.613568        16.6960 
 247   0.0000       0.619312        16.8523 
 248   0.0000       0.622108        16.9284 
 249   0.0000       0.623328        16.9616 
 250   0.0000       0.632213        17.2034 
 251   0.0000       0.637419        17.3451 
 252   0.0000       0.638353        17.3705 
 253   0.0000       0.641945        17.4682 
 254   0.0000       0.645586        17.5673 
 255   0.0000       0.648338        17.6422 
 256   0.0000       0.652201        17.7473 
 257   0.0000       0.654336        17.8054 
 258   0.0000       0.656534        17.8652 
 259   0.0000       0.658711        17.9244 
 260   0.0000       0.665025        18.0963 
 261   0.0000       0.670187        18.2367 
 262   0.0000       0.674093        18.3430 
 263   0.0000       0.677219        18.4281 
 264   0.0000       0.681666        18.5491 
 265   0.0000       0.686239        18.6735 
 266   0.0000       0.693683        18.8761 
 267   0.0000       0.697489        18.9796 
 268   0.0000       0.699782        19.0420 
 269   0.0000       0.703044        19.1308 
 270   0.0000       0.708900        19.2902 
 271   0.0000       0.715626        19.4732 
 272   0.0000       0.718321        19.5465 
 273   0.0000       0.723192        19.6790 
 274   0.0000       0.730766        19.8852 
 275   0.0000       0.735981        20.0271 
 276   0.0000       0.739273        20.1166 
 277   0.0000       0.744602        20.2617 
 278   0.0000       0.748994        20.3812 
[...]
  | sigma^2 in % of trace(Dij) retained ...   8.64e+00
  | sigma^2 in % of trace(Dip) retained ...   1.78e+01
  | sigma^2 in % of trace(Dpq) retained ...   1.43e-01
  | Av. % of trace(Di) retained         ...  99.998501583816
  | Av. % of trace(Dp) retained         ...  99.999999628054
  | sigma^2 in % of trace(Di) retained  ...   7.76e-07
  | sigma^2 in % of trace(Dp) retained  ...   1.45e-13
 Distributions of % trace(Dij) recovered:
  |       >= 99.9  ...   103 ( 20.0 % of all IJ-pairs)
  |   [80.0, 90.0) ...    34 (  6.6 % of all IJ-pairs)
  |   [90.0, 99.0) ...   282 ( 54.9 % of all IJ-pairs)
  |   [99.0, 99.9) ...    95 ( 18.5 % of all IJ-pairs)
 Distributions of % trace(Dip) recovered:
  |   [70.0, 80.0) ...     2 (  1.7 % of all IP-pairs)
  |   [80.0, 90.0) ...    11 (  9.3 % of all IP-pairs)
  |   [90.0, 99.0) ...    63 ( 53.4 % of all IP-pairs)
  |   [99.0, 99.9) ...    42 ( 35.6 % of all IP-pairs)
 Distributions of % trace(Dpq) recovered:
  |       >= 99.9  ...     5 ( 33.3 % of all PQ-pairs)
  |   [99.0, 99.9) ...    10 ( 66.7 % of all PQ-pairs)
 Distributions of % trace(Di) recovered :
  |       >= 99.9  ...    43 (100.0 % of all I-pairs )
 Distributions of % trace(Dp) recovered :
  |       >= 99.9  ...     5 (100.0 % of all P-pairs )

                       ===========================
                       1128 OF 1723 PAIRS ARE KEPT
                       ===========================

 Initial PAO correlation energy (all pairs)    ...  -2.6954946342 Eh
 Energy constituents in PAO basis (Eh):
  | Vijab(+0) ...  -2.2664957799
  | Viab (-1) ...  -0.1751884660
  | Vab  (-2) ...  -0.0573626570
  | Va   (-1) ...  -0.0000422788
  | Vija (+1) ...  -0.0724599745
  | Vij  (+2) ...  -0.0155052422
  | Via  (+0) ...  -0.1082810217
  | Vi   (+1) ...  -0.0001592141
 Initial PNO correlation energy                ...  -2.6606826505 Eh
 Energy constituents in PNO basis (Eh):
  | Vijab(+0) ...  -2.2477441186 (err=  0.0187516613)
  | Viab (-1) ...  -0.1608222284 (err=  0.0143662376)
  | Vab  (-2) ...  -0.0568901682 (err=  0.0004724888)
  | Va   (-1) ...  -0.0000244697 (err=  0.0000178091)
  | Vija (+1) ...  -0.0714220426 (err=  0.0010379319)
  | Vij  (+2) ...  -0.0154481456 (err=  0.0000570965)
  | Via  (+0) ...  -0.1081727263 (err=  0.0001082954)
  | Vi   (+1) ...  -0.0001587511 (err=  0.0000004630)
 Sum of total truncation errors ...   0.0348119836 Eh
  | Pair screening ...   0.0116389581 Eh
  | PNO truncation ...   0.0231730255 Eh

 UMP2 correlation energy (PAO) ...  -2.6905885242
  | alpha-alpha ...  -0.3871525342 (NP_aa=  936)
  | alpha-beta  ...  -1.9958972999 (NP_ab= 1698)
  | beta -beta  ...  -0.3075386900 (NP_bb=  729)
 UMP2 correlation energy (PNO) ...  -2.6553944098
  | alpha-alpha ...  -0.3749969425 (err=  0.0121555917, NP_aa=  599)
  | alpha-beta  ...  -1.9769520328 (err=  0.0189452671, NP_ab= 1103)
  | beta -beta  ...  -0.3034454345 (err=  0.0040932556, NP_bb=  471)
 Sum of total UMP2 truncation errors ...   0.0351941143 Eh
  | Pair screening ...   0.0116527857 Eh
  | PNO truncation ...   0.0235413286 Eh
 Timing for NEV-PNO construction (sec.)
  | Intermediate construction  ..           50.338
  | Amplitude construction     ..           66.488
  | Total time                 ..          116.826
 Making pair pair interaction lists ...      ok
 Total size for 2-ext PNO integrals ...     11.1 MB
Checking the number of SOMO/SOMO doubles PNOs ... 
 #Truncate: (72, 72)[172] -> [85] .. 
 #Truncate: (73, 73)[175] -> [85] .. 
 #Truncate: (74, 74)[173] -> [85] .. 
 #Truncate: (75, 75)[173] -> [85] .. 
 #Truncate: (76, 76)[173] -> [85] .. 

--------------------------------
LOCAL RI TRANSFORMATION (VABPAO)
--------------------------------

Number of PAOs:    1030
Basis functions:   1025 (343 shells)
Aux. functions:    2424 (644 shells)

Processing maps (0.0 sec)
Average map sizes:
   Aux shells -> PAOs           1030.0
   PAOs       -> AO shells       343.0

Calculating integrals (215.0 sec, 37370.165 MB)
Finished
-----------------------------
LOCAL RI TRANSFORMATION (IJV)
-----------------------------

Orbital window:      29 to 76
Basis functions:   1025 (343 shells)
Aux. functions:    2424 (644 shells)

Processing maps (0.0 sec)
Average map sizes:
   Aux shells -> MOs(i)           46.8
   Aux shells -> MOs(j)           48.0
   MOs        -> AO shells       340.7

Calculating integrals (24.1 sec, 41.694 MB)
Sorting integrals (0.3 sec, 41.667 MB)
Total time for the integral transformation: 24.5 sec


-------------------------------------
Pair Pair Term precalculation with     
RI-(ij|mn) and (im|jn) transformation  
ON THE FLY                             
-------------------------------------

   IBatch   1 (of   2)              ... done ( 1166.725 sec)
   IBatch   2 (of   2)              ... done ( 1450.583 sec)
Total EXT                           ...        2617.309 sec

---------------------
RI-PNO TRANSFORMATION
---------------------

Total Number of PNOs                   ... 35001
Total Number of IJ-PNOs                ... 30817
Total Number of IP-PNOs                ...  3235
Total Number of PQ-PNOs                ...   949
Total Number of IJ-pairs               ...   985
Total Number of PI-pairs               ...   118
Total Number of PQ-pairs               ...    25
Average number of PNOs per pair        ...    31
Maximal number of PNOs per pair        ...    85
>> Statistics for ij-pairs..
   #pairs with  1 -  5 PNOs   :    0
   #pairs with  6 - 10 PNOs   :    0
   #pairs with 11 - 15 PNOs   :   56
   #pairs with 16 - 20 PNOs   :  256
   #pairs with 21 - 25 PNOs   :  160
   #pairs with 26 - 30 PNOs   :  154
   #pairs with 31 - 35 PNOs   :   66
   #pairs with 36 - 40 PNOs   :   44
   #pairs with 41 - 45 PNOs   :   48
   #pairs with 46 - 50 PNOs   :   30
   #pairs with 51 - 55 PNOs   :   32
   #pairs with 56 - 60 PNOs   :   56
   #pairs with 61 - 65 PNOs   :   76
   #pairs with 66 - 70 PNOs   :    4
   #pairs with 76 - 80 PNOs   :    3
>> Statistics for ip-pairs..
   #pairs with  1 -  5 PNOs   :    0
   #pairs with  6 - 10 PNOs   :    2
   #pairs with 11 - 15 PNOs   :   15
   #pairs with 16 - 20 PNOs   :    3
   #pairs with 21 - 25 PNOs   :   27
   #pairs with 26 - 30 PNOs   :   11
   #pairs with 31 - 35 PNOs   :   47
   #pairs with 36 - 40 PNOs   :   13
   #pairs with 41 - 45 PNOs   :    0
   #pairs with 46 - 50 PNOs   :    0
>> Statistics for pq-pairs..
   #pairs with  1 -  5 PNOs   :    0
   #pairs with  6 - 10 PNOs   :    0
   #pairs with 11 - 15 PNOs   :    0
   #pairs with 16 - 20 PNOs   :    0
   #pairs with 21 - 25 PNOs   :   12
   #pairs with 26 - 30 PNOs   :    8
   #pairs with 31 - 35 PNOs   :    0
   #pairs with 36 - 40 PNOs   :    0
   #pairs with 41 - 45 PNOs   :    0
   #pairs with 46 - 50 PNOs   :    0
   #pairs with 81 - 85 PNOs   :    5

Generation of (ij|ab)[P] integrals            ... on
Generation of (ia|bc)[P],(ja|bc)[P] integrals ... on
Storage of 3 and 4 external integrals         ... on
Generation of ALL (ka|bc)[P] integrals        ... on
Keep RI integrals in memory                   ... off

Ibatch:  1 (of  1)
Starting 2-4 index PNO integral generation ... done

Timings:
Total PNO integral transformation time     ...       2308.405 sec
Size of the 3-external file                ...       289 MB
Size of the 4-external file                ...      1962 MB
Size of the IKJL file                      ...        19 MB
Size of the all 3-external file            ...      6952 MB
Size of the 1-external file                ...        22 MB

Size of the PAO/PNO coefficient matrices   ...     229.6 MB

Making pair/pair overlap matrices          ... done (  379.325 sec)
Size of the pair overlap file              ...    2499.0 MB
Total # unrestricted pairs ...       2173
  # of alpha-alpha pairs   ...        599
  # of alpha-beta pairs    ...       1103
  # of beta-beta pairs     ...        471
Constructing the guess amplitudes          ... done (    0.583 sec)

-------------------------
FINAL STARTUP INFORMATION
-------------------------

E(0)                                       ...  -3028.426579673
E(SL-UMP2 in NEV-PNO space)                ...     -2.691500070
Initial E(tot)                             ...  -3031.118079743
<T|T>                                      ...      0.535435288
Number of unrestricted pairs included      ... 2173
Total number of pairs                      ... 4095
----------------------------------------------------------
                     OPEN-SHELL COUPLED CLUSTER ITERATIONS
----------------------------------------------------------

Number of PNO amplitudes to be optimized        ...          2145311
Number of canonical amplitudes for strong pairs ...       1962675350
Untruncated number of canonical amplitudes      ...       3698645738

Iter       E(tot)           E(Corr)          Delta-E          Residual     Time
  0  -3031.125240154     -2.662554821      0.028945249      0.021326170 2102.87
                           *** Turning on DIIS ***
  1  -3031.237092772     -2.774407439     -0.111852618      0.008308472 2082.80
  2  -3031.301338290     -2.838652957     -0.064245518      0.008490376 2052.12
  3  -3031.322378225     -2.859692892     -0.021039935      0.003075787 2063.63
  4  -3031.329449835     -2.866764502     -0.007071610      0.002724284 2092.82
  5  -3031.333181312     -2.870495980     -0.003731477      0.001766074 2091.76
  6  -3031.334540166     -2.871854834     -0.001358854      0.000886749 2079.94
  7  -3031.335287625     -2.872602292     -0.000747459      0.000438354 1946.42
  8  -3031.335443093     -2.872757761     -0.000155469      0.000209636 1754.93
  9  -3031.335492950     -2.872807618     -0.000049857      0.000133985 1746.95
 10  -3031.335487503     -2.872802171      0.000005447      0.000084392 1760.69
 11  -3031.335497807     -2.872812475     -0.000010304      0.000063433 1768.70
 12  -3031.335503866     -2.872818533     -0.000006058      0.000032734 1772.13
 13  -3031.335506391     -2.872821058     -0.000002525      0.000016508 1796.62
 14  -3031.335507421     -2.872822089     -0.000001030      0.000008073 1816.58
               --- The CCSD iterations have converged ---

E(0)                                       ...  -3028.426579673
E(CORR)(strong-pairs)                      ...     -2.872822089
E(CORR)(weak-pairs)                        ...     -0.036105660
E(CORR)(corrected)                         ...     -2.908927749
E(TOT)                                     ...  -3031.335507421
Singles norm <S|S>**1/2                    ...      0.190333112 ( 0.063951480, 0.126381632)  
T1 diagnostic                              ...      0.019952332                              
<S**2>(linearized)                         ...      8.7507778 (ideal value:      8.7500000)

----------------------
LARGEST PNO AMPLITUDES
----------------------
  71a-> 77a  71b-> 77b       0.061338
  50b-> 76b  -1b-> -1b       0.056196
  71a-> 78a  71b-> 78b       0.056173
  51b-> 76b  -1b-> -1b       0.050955
  48b-> 72b  -1b-> -1b       0.050123
  48b-> 74b  -1b-> -1b       0.045955
  65a-> 77a  65b-> 77b       0.045411
  48b-> 75b  -1b-> -1b       0.045304
  55a-> 77a  55b-> 77b       0.044746
  54a-> 77a  54b-> 77b       0.043851
  69a-> 77a  69b-> 77b       0.043470
  61a-> 77a  61b-> 77b       0.043430
  39b-> 73b  -1b-> -1b       0.042924
  63a-> 77a  63b-> 77b       0.042731
  59a-> 77a  59b-> 77b       0.042420
  58a-> 77a  58b-> 77b       0.042364

Total # unrestricted pairs ...       1188
  # of alpha-alpha pairs   ...        336
  # of alpha-beta pairs    ...        594
  # of beta-beta pairs     ...        258

-------------------------------------------
DLPNO BASED TRIPLES CORRECTION
-------------------------------------------

Singles multiplier          ...  1.000000
Fragment selection                          .... not used
TCutTNO                     ... 1.000e-09
TCutMP2Pairs                ... 1.000e-05
TCutDOStrong                ... 2.000e-02
TCutMKNStrong               ... 1.000e-02
TCutDOWeak                  ... 4.000e-02
TCutMKNWeak                 ... 1.000e-01
NTCutTNO                    ... 1

Number of Triples that are to be computed         ...     35388

 . . . . . . . . .
10% done  
20% done  
30% done  
40% done  
50% done  
60% done  
70% done  
80% done  
90% done  
          Batch   1   done (  16570.245 sec)

Triples-Correction TCutTNO=   1.000e-09 (NWeakPairs = 0  1  2  3)  -0.117887511558   -0.001846843917    0.000000000000    0.000000000000
Triples-Correction  -0.119734355475

Triples timings:
Total time                      ... 17256.888 sec

Triples List generation         ...     0.000 sec
TNO generation                  ...   686.393 sec
Pair density generation         ...     0.090 sec
Look up tables                  ...     0.116 sec
Generating 3-index integrals    ... 10447.840 sec
Make 4-ind.int. from 3-ind.int  ...     3.801 sec
Projecting amplitudes (D + S)   ...  5851.222 sec
Sorting integrals for spin cases...    54.831 sec
Calculate W0/W1                 ...   172.662 sec
Energy contr. (sum over a,b,c)  ...    39.744 sec

Everything after 3-index        ...  6261.286 sec

Energy contribution AAA         ...    26.072 sec
Energy contribution AAB         ...   118.111 sec
Energy contribution ABB         ...   108.364 sec
Energy contribution BBB         ...    14.727 sec
prep                ...     3.254 sec
makeTTNO            ...  5792.184 sec
copyij              ...     0.130 sec
copyil              ...     4.181 sec
transposeij         ...     0.079 sec
newMatInDoubleProj  ...    53.306 sec
BlasInDoubleProj    ...  3158.914 sec
ProjSingles         ...    48.831 sec
ProjDoubles         ...  5802.391 sec
overall Doubles for projection      ... 3249200
used Doubles for projection         ... 3249200


Number of Triples   (0, 1, 2, 3 weak pairs; overall):  17336   12013       0       0  ( 29349)
Number of Atoms     (0, 1, 2, 3 weak pairs; overall):   20.3    14.7     0.0     0.0  (    29)
Number of PAOs      (0, 1, 2, 3 weak pairs; overall):  782.4   594.1     0.0     0.0  (  1025)
Number of AuxFcns   (0, 1, 2, 3 weak pairs; overall):  947.8   581.4     0.0     0.0  (  2424)
Number of TNOs (0, 1, 2, 3 weak pairs         ):   78.9    56.2     0.0     0.0
Aver. Number of NTNO, Atoms, PAOs, AuxFcns / Triples:  29349    69.6    18.0   705.3   797.9

Triples Correction (T)                     ...     -0.119734355
    alpha-alpha-alpha ... -0.003923335 (  3.3%)
    alpha-alpha-beta  ... -0.056200155 ( 46.9%)
    alpha-beta -beta  ... -0.055464903 ( 46.3%)
    beta -beta -beta  ... -0.004145963 (  3.5%)
Final correlation energy                   ...     -3.028662104
E(CCSD)                                    ...  -3031.335507421
E(CCSD(T))                                 ...  -3031.455241777

----------------------------
STATISTICS FOR PAIR-ENERGIES
----------------------------
Minimum, maximum and average ratios of UMP and CCSD pair-energies ... 0.54, 1.43, 1.02


------------------------------------------------------------------------------- 
                                     TIMINGS                                   
------------------------------------------------------------------------------- 


Total execution time                   ...    55200.772 sec

Localization of occupied MO's          ...       11.300 sec (  0.0%)
Fock Matrix Formation                  ...     1646.974 sec (  3.0%)
Differential overlap integrals         ...        1.903 sec (  0.0%)
Organizing maps                        ...        1.799 sec (  0.0%)
RI 3-index integral generations        ...      311.208 sec (  0.6%)
RI-PNO integral transformation         ...     5332.632 sec (  9.7%)
Initial Guess                          ...     2048.078 sec (  3.7%)
DIIS Solver                            ...       15.501 sec (  0.0%)
State Vector Update                    ...        0.783 sec (  0.0%)
Sigma-vector construction              ...    28928.960 sec ( 52.4%)
  <0|H|D>                              ...        0.030 sec (  0.0% of sigma)
  <D|H|D>(0-ext)                       ...     5339.977 sec ( 18.5% of sigma)
  <D|H|D>(2-ext Fock)                  ...        1.629 sec (  0.0% of sigma)
  <D|H|D>(2-ext)                       ...     4307.373 sec ( 14.9% of sigma)
  <D|H|D>(4-ext)                       ...      149.355 sec (  0.5% of sigma)
  <D|H|D>(4-ext-corr)                  ...      928.222 sec (  3.2% of sigma)
  CCSD doubles correction              ...      519.451 sec (  1.8% of sigma)
  <S|H|S>                              ...      748.851 sec (  2.6% of sigma)
  <S|H|D>(1-ext)                       ...      258.813 sec (  0.9% of sigma)
  <D|H|S>(1-ext)                       ...        0.676 sec (  0.0% of sigma)
  <S|H|D>(3-ext)                       ...       20.956 sec (  0.1% of sigma)
  CCSD singles correction              ...        0.004 sec (  0.0% of sigma)
  Fock-dressing                        ...     8738.962 sec ( 30.2% of sigma)
  Singles amplitudes                   ...      108.413 sec (  0.4% of sigma)
  (ik|jl)-dressing                     ...     6260.852 sec ( 21.6% of sigma)
  (ij|ab),(ia|jb)-dressing             ...     1511.995 sec (  5.2% of sigma)
  Pair energies                        ...        0.171 sec (  0.0% of sigma)
Total Time for computing (T)           ...    17291.477 sec ( 31.3% of ALL)


-------------------------   --------------------
FINAL SINGLE POINT ENERGY     -3031.455241776920
-------------------------   --------------------


                            ***************************************
                            *     ORCA property calculations      *
                            ***************************************

                                    ---------------------
                                    Active property flags
                                    ---------------------
   (+) Dipole Moment


------------------------------------------------------------------------------
                       ORCA ELECTRIC PROPERTIES CALCULATION
------------------------------------------------------------------------------

Dipole Moment Calculation                       ... on
Quadrupole Moment Calculation                   ... off
Polarizability Calculation                      ... off
GBWName                                         ... simple-grid-210-235-b3lyp_d3bj-631gd-gas-singlepoint-DLPNO_CCSD_T1-NormalPNO-augtz-gas.gbw
Electron density file                           ... simple-grid-210-235-b3lyp_d3bj-631gd-gas-singlepoint-DLPNO_CCSD_T1-NormalPNO-augtz-gas.scfp.tmp
The origin for moment calculation is the CENTER OF MASS  = ( 0.308507,  0.023279  0.018981)

-------------
DIPOLE MOMENT
-------------
                                X             Y             Z
Electronic contribution:     41.63745       3.12436       2.29870
Nuclear contribution   :    -45.96760      -3.46866      -2.82821
                        -----------------------------------------
Total Dipole Moment    :     -4.33015      -0.34430      -0.52951
                        -----------------------------------------
Magnitude (a.u.)       :      4.37597
Magnitude (Debye)      :     11.12284



--------------------
Rotational spectrum 
--------------------
 
Rotational constants in cm-1:     0.019343     0.011292     0.010561 
Rotational constants in MHz :   579.892029   338.523961   316.597059 

 Dipole components along the rotational axes: 
x,y,z [a.u.] :    -4.327576     0.366196    -0.535844 
x,y,z [Debye]:   -10.999824     0.930795    -1.362007 

 

Timings for individual modules:

Sum of individual times         ...    73480.245 sec (=1224.671 min)
GTO integral calculation        ...       11.849 sec (=   0.197 min)   0.0 %
SCF iterations                  ...    18249.725 sec (= 304.162 min)  24.8 %
MDCI module                     ...    55218.672 sec (= 920.311 min)  75.1 %
                             ****ORCA TERMINATED NORMALLY****
TOTAL RUN TIME: 0 days 20 hours 24 minutes 42 seconds 710 msec
