
                                 *****************
                                 * O   R   C   A *
                                 *****************

           --- An Ab Initio, DFT and Semiempirical electronic structure package ---

                  #######################################################
                  #                        -***-                        #
                  #          Department of theory and spectroscopy      #
                  #               Directorship: Frank Neese             #
                  #        Max Planck Institute fuer Kohlenforschung    #
                  #                Kaiser Wilhelm Platz 1               #
                  #                 D-45470 Muelheim/Ruhr               #
                  #                      Germany                        #
                  #                                                     #
                  #                  All rights reserved                #
                  #                        -***-                        #
                  #######################################################


                         Program Version 4.1.2  - RELEASE  -


 With contributions from (in alphabetic order):
   Daniel Aravena         : Magnetic Properties
   Michael Atanasov       : Ab Initio Ligand Field Theory
   Alexander A. Auer      : GIAO ZORA
   Ute Becker             : Parallelization
   Giovanni Bistoni       : ED, Open-shell LED
   Martin Brehm           : Molecular dynamics
   Dmytro Bykov           : SCF Hessian
   Vijay G. Chilkuri      : MRCI spin determinant printing
   Dipayan Datta          : RHF DLPNO-CCSD density
   Achintya Kumar Dutta   : EOM-CC, STEOM-CC
   Dmitry Ganyushin       : Spin-Orbit,Spin-Spin,Magnetic field MRCI
   Miquel Garcia          : C-PCM Hessian
   Yang Guo               : DLPNO-NEVPT2, CIM, IAO-localization
   Andreas Hansen         : Spin unrestricted coupled pair/coupled cluster methods
   Benjamin Helmich-Paris : CASSCF linear response (MC-RPA)
   Lee Huntington         : MR-EOM, pCC
   Robert Izsak           : Overlap fitted RIJCOSX, COSX-SCS-MP3, EOM
   Christian Kollmar      : KDIIS, OOCD, Brueckner-CCSD(T), CCSD density
   Simone Kossmann        : Meta GGA functionals, TD-DFT gradient, OOMP2, MP2 Hessian
   Martin Krupicka        : AUTO-CI
   Lucas Lang             : DCDCAS
   Dagmar Lenk            : GEPOL surface, SMD
   Dimitrios Liakos       : Extrapolation schemes; parallel MDCI
   Dimitrios Manganas     : ROCIS; embedding schemes
   Dimitrios Pantazis     : SARC Basis sets
   Taras Petrenko         : DFT Hessian,TD-DFT gradient, ASA, ECA, R-Raman, ABS, FL, XAS/XES, NRVS
   Peter Pinski           : DLPNO-MP2, DLPNO-MP2 Gradient
   Christoph Reimann      : Effective Core Potentials
   Marius Retegan         : Local ZFS, SOC
   Christoph Riplinger    : Optimizer, TS searches, QM/MM, DLPNO-CCSD(T), (RO)-DLPNO pert. Triples
   Tobias Risthaus        : Range-separated hybrids, TD-DFT gradient, RPA, STAB
   Michael Roemelt        : Restricted open shell CIS
   Masaaki Saitow         : Open-shell DLPNO
   Barbara Sandhoefer     : DKH picture change effects
   Avijit Sen             : IP-ROCIS
   Kantharuban Sivalingam : CASSCF convergence, NEVPT2, FIC-MRCI
   Bernardo de Souza      : ESD, SOC TD-DFT
   Georgi Stoychev        : AutoAux, RI-MP2 NMR
   Willem Van den Heuvel  : Paramagnetic NMR
   Boris Wezisla          : Elementary symmetry handling
   Frank Wennmohs         : Technical directorship


 We gratefully acknowledge several colleagues who have allowed us to
 interface, adapt or use parts of their codes:
   Stefan Grimme, W. Hujo, H. Kruse,             : VdW corrections, initial TS optimization,
                  C. Bannwarth                     DFT functionals, gCP, sTDA/sTD-DF
   Ed Valeev                                     : LibInt (2-el integral package), F12 methods
   Garnet Chan, S. Sharma, J. Yang, R. Olivares  : DMRG
   Ulf Ekstrom                                   : XCFun DFT Library
   Mihaly Kallay                                 : mrcc  (arbitrary order and MRCC methods)
   Andreas Klamt, Michael Diedenhofen            : otool_cosmo (COSMO solvation model)
   Jiri Pittner, Ondrej Demel                    : Mk-CCSD
   Frank Weinhold                                : gennbo (NPA and NBO analysis)
   Christopher J. Cramer and Donald G. Truhlar   : smd solvation model
   Lars Goerigk                                  : TD-DFT with DH, B97 family of functionals
   V. Asgeirsson, H. Jonsson                     : NEB implementation
   FAccTs GmbH                                   : IRC, NEB, NEB-TS, Multilevel


 Your calculation uses the libint2 library for the computation of 2-el integrals
 For citations please refer to: http://libint.valeyev.net

 This ORCA versions uses:
   CBLAS   interface :  Fast vector & matrix operations
   LAPACKE interface :  Fast linear algebra routines
   SCALAPACK package :  Parallel linear algebra routines


----- Orbital basis set information -----
Your calculation utilizes the basis: aug-cc-pVTZ 
    H, B-Ne : Obtained from the ccRepo (grant-hill.group.shef.ac.uk/ccrepo) Feb. 2017
              R. A. Kendall, T. H. Dunning, Jr., R. J. Harrison, J. Chem. Phys. 96, 6796 (1992)
         He : Obtained from the ccRepo (grant-hill.group.shef.ac.uk/ccrepo) Feb. 2017
              D. E. Woon, T. H. Dunning, Jr., J. Chem. Phys. 100, 2975 (1994)
  Li-Be, Na : Obtained from the ccRepo (grant-hill.group.shef.ac.uk/ccrepo) Feb. 2017
              B. P. Prascher, D. E. Woon, K. A. Peterson, T. H. Dunning, Jr., A. K. Wilson, Theor. Chem. Acc. 128, 69 (2011)
         Mg : Obtained from the Peterson Research Group Website (tyr0.chem.wsu.edu/~kipeters) Feb. 2017
              B. P. Prascher, D. E. Woon, K. A. Peterson, T. H. Dunning, Jr., A. K. Wilson, Theor. Chem. Acc. 128, 69 (2011)
      Al-Ar : Obtained from the ccRepo (grant-hill.group.shef.ac.uk/ccrepo) Feb. 2017
              D. E. Woon, T. H. Dunning, Jr., J. Chem. Phys. 98, 1358 (1993)
      Sc-Zn : Obtained from the ccRepo (grant-hill.group.shef.ac.uk/ccrepo) Feb. 2017
              N. B. Balabanov, K. A. Peterson, J. Chem. Phys. 123, 064107 (2005)
              N. B. Balabanov, K. A. Peterson, J. Chem. Phys. 125, 074110 (2006)
      Ga-Kr : Obtained from the ccRepo (grant-hill.group.shef.ac.uk/ccrepo) Feb. 2017
              A. K. Wilson, D. E. Woon, K. A. Peterson, T. H. Dunning, Jr., J. Chem. Phys. 110, 7667 (1999)
     Ag, Au : Obtained from the Peterson Research Group Website (tyr0.chem.wsu.edu/~kipeters) Feb. 2017
              K. A. Peterson, C. Puzzarini, Theor. Chem. Acc. 114, 283 (2005)

----- AuxJ basis set information -----
Your calculation utilizes the AutoAux generation procedure.
  G. L. Stoychev, A. A. Auer, F. Neese, J. Chem. Theory Comput. 13, 554 (2017)

----- AuxC basis set information -----
Your calculation utilizes the auxiliary basis: aug-cc-pVTZ/C 
  H-He, B-F, Al-Ar, Ga-Kr : Obtained from the EMSL Basis Set Exchange (bse.pnl.gov) Feb. 2017
                            F. Weigend, A. Kohn, C. Hattig, J. Chem. Phys. 116, 3175 (2002)
                   Be, Mg : Obtained from the TURBOMOLE 7.0 basis set library
                            C. Haettig, Phys. Chem. Chem. Phys. 7, 59 (2005)
                       Ne : Obtained from the EMSL Basis Set Exchange (bse.pnl.gov) Feb. 2017
                            C. Haettig, Phys. Chem. Chem. Phys. 7, 59 (2005)
                            F. Weigend, A. Kohn, C. Hattig, J. Chem. Phys. 116, 3175 (2002)
                    Sc-Zn : Obtained from the EMSL Basis Set Exchange (bse.pnl.gov) Feb. 2017
                            J. G. Hill, J. A. Platts, J. Chem. Phys. 128, 044104 (2008)

----- AuxJK basis set information -----
Your calculation utilizes the AutoAux generation procedure.
  G. L. Stoychev, A. A. Auer, F. Neese, J. Chem. Theory Comput. 13, 554 (2017)

================================================================================
                                        WARNINGS
                       Please study these warnings very carefully!
================================================================================


WARNING: your system is open-shell and RHF/RKS was chosen
  ===> : WILL SWITCH to UHF/UKS


WARNING: MDCI localization with Augmented Hessian Foster-Boys
  ===> : Switching off randomization!

WARNING: Post HF methods need fully converged wavefunctions
  ===> : Setting SCFConvForced true
         You can overwrite this default with %scf ConvForced false 


INFO   : the flag for use of LIBINT has been found!

================================================================================
                                       INPUT FILE
================================================================================
NAME = simple-grid-245-255-b3lyp_d3bj-631gd-gas-singlepoint-DLPNO_CCSD_T1-NormalPNO-augtz-gas.inp
|  1> ! aug-cc-pVTZ aug-cc-pVTZ/C DLPNO-CCSD(T1) TightSCF NormalPNO UNO MiniPrint AutoAux
|  2> %pal nproc 10 end
|  3> %maxcore 20000
|  4> %mdci
|  5>      density none
|  6> end
|  7> 
|  8> * xyz 0 6
|  9>  O     -0.28522000     -0.21091300     -0.75287600
| 10>  C     -1.12385200     -1.15123800     -0.62802000
| 11>  C     -3.12513600     -0.04951500      0.25717100
| 12>  C     -2.44143700      1.02951900     -0.19204300
| 13>  C     -2.57453000      1.51856200     -1.60405700
| 14> Fe      1.46213800      0.10292300      0.04309700
| 15> Cl      2.10130300      1.99775700     -0.82756700
| 16>  C     -1.57559300      1.88579400      0.68117300
| 17> Cl      2.55199000     -1.68242200     -0.61566900
| 18> Cl      1.24307800      0.15720300      2.23113900
| 19>  H     -3.80476600     -0.53400900     -0.44209900
| 20>  H     -2.14350200      2.78124900      0.97063100
| 21>  H     -1.24375700      1.39196400      1.59425600
| 22>  H     -0.69500300      2.23824200      0.13457800
| 23>  H     -2.88874600      2.57005200     -1.59580200
| 24>  H     -1.60209300      1.48837100     -2.11099000
| 25>  H     -3.30901200      0.95176500     -2.18220300
| 26>  C     -3.29610100     -0.44876900      1.69884100
| 27>  H     -4.18359000      0.04662000      2.11539100
| 28>  H     -3.45832900     -1.52554300      1.80588000
| 29>  H     -2.44549300     -0.16883500      2.32504100
| 30>  C     -1.00895600     -2.10606600      0.52200700
| 31>  H     -1.89433300     -2.73184000      0.63456800
| 32>  H     -0.15420100     -2.75531800      0.27860300
| 33>  H     -0.77001500     -1.59608500      1.45524500
| 34>  C     -1.79242900     -1.64574700     -1.87991500
| 35>  H     -1.06680700     -2.32918500     -2.34506200
| 36>  H     -2.70505900     -2.20714400     -1.67579600
| 37>  H     -1.97923500     -0.83737600     -2.58503300
| 38> *
| 39> 
| 40> 
| 41>                          ****END OF INPUT****
================================================================================

                       ****************************
                       * Single Point Calculation *
                       ****************************

---------------------------------
CARTESIAN COORDINATES (ANGSTROEM)
---------------------------------
  O     -0.285220   -0.210913   -0.752876
  C     -1.123852   -1.151238   -0.628020
  C     -3.125136   -0.049515    0.257171
  C     -2.441437    1.029519   -0.192043
  C     -2.574530    1.518562   -1.604057
  Fe     1.462138    0.102923    0.043097
  Cl     2.101303    1.997757   -0.827567
  C     -1.575593    1.885794    0.681173
  Cl     2.551990   -1.682422   -0.615669
  Cl     1.243078    0.157203    2.231139
  H     -3.804766   -0.534009   -0.442099
  H     -2.143502    2.781249    0.970631
  H     -1.243757    1.391964    1.594256
  H     -0.695003    2.238242    0.134578
  H     -2.888746    2.570052   -1.595802
  H     -1.602093    1.488371   -2.110990
  H     -3.309012    0.951765   -2.182203
  C     -3.296101   -0.448769    1.698841
  H     -4.183590    0.046620    2.115391
  H     -3.458329   -1.525543    1.805880
  H     -2.445493   -0.168835    2.325041
  C     -1.008956   -2.106066    0.522007
  H     -1.894333   -2.731840    0.634568
  H     -0.154201   -2.755318    0.278603
  H     -0.770015   -1.596085    1.455245
  C     -1.792429   -1.645747   -1.879915
  H     -1.066807   -2.329185   -2.345062
  H     -2.705059   -2.207144   -1.675796
  H     -1.979235   -0.837376   -2.585033

----------------------------
CARTESIAN COORDINATES (A.U.)
----------------------------
  NO LB      ZA    FRAG     MASS         X           Y           Z
   0 O     8.0000    0    15.999   -0.538988   -0.398568   -1.422729
   1 C     6.0000    0    12.011   -2.123772   -2.175525   -1.186786
   2 C     6.0000    0    12.011   -5.905651   -0.093570    0.485983
   3 C     6.0000    0    12.011   -4.613647    1.945509   -0.362909
   4 C     6.0000    0    12.011   -4.865157    2.869666   -3.031228
   5 Fe   26.0000    0    55.850    2.763040    0.194496    0.081442
   6 Cl   17.0000    0    35.453    3.970887    3.775214   -1.563875
   7 C     6.0000    0    12.011   -2.977439    3.563634    1.287230
   8 Cl   17.0000    0    35.453    4.822562   -3.179317   -1.163446
   9 Cl   17.0000    0    35.453    2.349077    0.297071    4.216242
  10 H     1.0000    0     1.008   -7.189966   -1.009131   -0.835446
  11 H     1.0000    0     1.008   -4.050632    5.255799    1.834227
  12 H     1.0000    0     1.008   -2.350360    2.630431    3.012707
  13 H     1.0000    0     1.008   -1.313365    4.229664    0.254316
  14 H     1.0000    0     1.008   -5.458939    4.856694   -3.015629
  15 H     1.0000    0     1.008   -3.027517    2.812614   -3.989193
  16 H     1.0000    0     1.008   -6.253126    1.798575   -4.123766
  17 C     6.0000    0    12.011   -6.228728   -0.848051    3.210344
  18 H     1.0000    0     1.008   -7.905839    0.088099    3.997510
  19 H     1.0000    0     1.008   -6.535295   -2.882858    3.412619
  20 H     1.0000    0     1.008   -4.621312   -0.319052    4.393691
  21 C     6.0000    0    12.011   -1.906651   -3.979888    0.986450
  22 H     1.0000    0     1.008   -3.579771   -5.162429    1.199160
  23 H     1.0000    0     1.008   -0.291398   -5.206796    0.526483
  24 H     1.0000    0     1.008   -1.455117   -3.016164    2.750015
  25 C     6.0000    0    12.011   -3.387200   -3.110011   -3.552525
  26 H     1.0000    0     1.008   -2.015973   -4.401522   -4.431525
  27 H     1.0000    0     1.008   -5.111821   -4.170898   -3.166795
  28 H     1.0000    0     1.008   -3.740212   -1.582411   -4.885004



           ************************************************************
           *        Program running with 10 parallel MPI-processes    *
           *              working on a common directory               *
           ************************************************************


           ************************************************************
           *        Program running with 10 parallel MPI-processes    *
           *              working on a common directory               *
           ************************************************************

Diagonalization of the overlap matrix:
Smallest eigenvalue                        ... 7.147e-07
Time for diagonalization                   ...    0.361 sec
Threshold for overlap eigenvalues          ... 1.000e-08
Number of eigenvalues below threshold      ... 0
Time for construction of square roots      ...    0.296 sec
Total time needed                          ...    0.666 sec

-------------------
DFT GRID GENERATION
-------------------

General Integration Accuracy     IntAcc      ...  4.340
Radial Grid Type                 RadialGrid  ... Gauss-Chebyshev
Angular Grid (max. acc.)         AngularGrid ... Lebedev-110
Angular grid pruning method      GridPruning ... 3 (G Style)
Weight generation scheme         WeightScheme... Becke
Basis function cutoff            BFCut       ...    1.0000e-11
Integration weight cutoff        WCut        ...    1.0000e-14
Grids for H and He will be reduced by one unit

# of grid points (after initial pruning)     ...  36112 (   0.0 sec)
# of grid points (after weights+screening)   ...  32393 (   0.1 sec)
nearest neighbour list constructed           ...    0.0 sec
Grid point re-assignment to atoms done       ...    0.0 sec
Grid point division into batches done        ...    0.0 sec
Reduced shell lists constructed in    0.4 sec

Total number of grid points                  ...    32393
Total number of batches                      ...      521
Average number of points per batch           ...       62
Average number of grid points per atom       ...     1117
Average number of shells per batch           ...   290.02 (84.55%)
Average number of basis functions per batch  ...   860.54 (83.95%)
Average number of large shells per batch     ...   236.93 (81.69%)
Average number of large basis fcns per batch ...   702.96 (81.69%)
Maximum spatial batch extension              ...   4.63,  4.05,  4.98 au
Average spatial batch extension              ...   0.19,  0.18,  0.18 au

Time for grid setup =    0.481 sec

Loading Hartree-Fock densities                     ... done
Calculating cut-offs                               ... done
Setting up the integral package                    ... done
Initializing the effective Hamiltonian             ... done
Starting the Coulomb interaction                   ... done (   1.1 sec)
Reading the grid                                   ... done
Mapping shells                                     ... done
Starting the XC term evaluation                    ... done (   1.0 sec)
Transforming the Hamiltonian                       ... done (   0.2 sec)
Diagonalizing the Hamiltonian                      ... done (   0.4 sec)
Back transforming the eigenvectors                 ... done (   0.1 sec)
Now organizing SCF variables                       ... done
--------------
SCF ITERATIONS
--------------
ITER       Energy         Delta-E        Max-DP      RMS-DP      [F,P]     Damp
               ***  Starting incremental Fock matrix formation  ***
  0  -3027.5823350455   0.000000000000 0.19696350  0.00107398  0.2522023 0.7000
  1  -3027.8346277875  -0.252292742029 0.14893199  0.00084631  0.1545536 0.7000
                               ***Turning on DIIS***
  2  -3028.0036921718  -0.169064384258 0.10669132  0.00062548  0.1093220 0.7000
  3  -3029.6166329842  -1.612940812470 0.24644612  0.00157057  0.0817282 0.0000
  4  -3028.3017183440   1.314914640267 0.04600857  0.00022534  0.0201837 0.0000
  5  -3028.4230819290  -0.121363585003 0.03920568  0.00017445  0.0117353 0.0000
  6  -3028.4658813416  -0.042799412671 0.02086227  0.00007183  0.0053278 0.0000
  7  -3028.4806358060  -0.014754464359 0.00901885  0.00003301  0.0035126 0.0000
  8  -3028.4714670759   0.009168730066 0.00598710  0.00001896  0.0015131 0.0000
  9  -3028.4656448282   0.005822247782 0.00235106  0.00001089  0.0007644 0.0000
 10  -3028.4534206808   0.012224147342 0.00099690  0.00000331  0.0004223 0.0000
 11  -3028.4595081587  -0.006087477916 0.00029204  0.00000178  0.0000720 0.0000
 12  -3028.4574426597   0.002065499021 0.00034311  0.00000135  0.0000250 0.0000
 13  -3028.4574243522   0.000018307504 0.00075955  0.00000216  0.0000084 0.0000
 14  -3028.4574413492  -0.000016996975 0.00059838  0.00000206  0.0000047 0.0000
 15  -3028.4573959211   0.000045428049 0.00063871  0.00000177  0.0000028 0.0000
 16  -3028.4574019386  -0.000006017497 0.00066735  0.00000213  0.0000023 0.0000
 17  -3028.4574188638  -0.000016925198 0.00086025  0.00000217  0.0000015 0.0000
 18  -3028.4574022641   0.000016599699 0.00106330  0.00000340  0.0000011 0.0000
                            ***DIIS convergence achieved***

               *****************************************************
               *                     SUCCESS                       *
               *           SCF CONVERGED AFTER  19 CYCLES          *
               *****************************************************

Total Energy       :        -3028.45740887 Eh          -82408.51566 eV
  Last Energy change         ...   -6.6023e-06  Tolerance :   1.0000e-08
  Last MAX-Density change    ...    7.3551e-04  Tolerance :   1.0000e-07
             **** THE GBW FILE WAS UPDATED (simple-grid-245-255-b3lyp_d3bj-631gd-gas-singlepoint-DLPNO_CCSD_T1-NormalPNO-augtz-gas.gbw) ****
             **** DENSITY FILE WAS UPDATED (simple-grid-245-255-b3lyp_d3bj-631gd-gas-singlepoint-DLPNO_CCSD_T1-NormalPNO-augtz-gas.scfp.tmp) ****
             **** ENERGY FILE WAS UPDATED (simple-grid-245-255-b3lyp_d3bj-631gd-gas-singlepoint-DLPNO_CCSD_T1-NormalPNO-augtz-gas.en.tmp) ****
----------------------
UHF SPIN CONTAMINATION
----------------------

Expectation value of <S**2>     :     8.764776
Ideal value S*(S+1) for S=2.5   :     8.750000
Deviation                       :     0.014776

----------------
ORBITAL ENERGIES
----------------
                 SPIN UP ORBITALS
  NO   OCC          E(Eh)            E(eV) 
   0   1.0000    -261.571577     -7117.7245 
   1   1.0000    -104.790286     -2851.4886 
   2   1.0000    -104.787713     -2851.4186 
   3   1.0000    -104.786517     -2851.3861 
   4   1.0000     -32.239319      -877.2765 
   5   1.0000     -27.715706      -754.1827 
   6   1.0000     -27.714714      -754.1557 
   7   1.0000     -27.714552      -754.1513 
   8   1.0000     -20.604232      -560.6697 
   9   1.0000     -11.420569      -310.7695 
  10   1.0000     -11.282887      -307.0230 
  11   1.0000     -11.274966      -306.8074 
  12   1.0000     -11.269052      -306.6465 
  13   1.0000     -11.250127      -306.1315 
  14   1.0000     -11.245873      -306.0158 
  15   1.0000     -11.245103      -305.9948 
  16   1.0000     -11.235714      -305.7393 
  17   1.0000     -10.516975      -286.1814 
  18   1.0000     -10.514366      -286.1105 
  19   1.0000     -10.513123      -286.0766 
  20   1.0000      -7.983818      -217.2507 
  21   1.0000      -7.983045      -217.2297 
  22   1.0000      -7.983001      -217.2285 
  23   1.0000      -7.981250      -217.1809 
  24   1.0000      -7.980461      -217.1594 
  25   1.0000      -7.980387      -217.1574 
  26   1.0000      -7.979916      -217.1446 
  27   1.0000      -7.979245      -217.1263 
  28   1.0000      -7.979190      -217.1248 
  29   1.0000      -4.594311      -125.0176 
  30   1.0000      -3.207389       -87.2775 
  31   1.0000      -3.205817       -87.2347 
  32   1.0000      -3.205625       -87.2295 
  33   1.0000      -1.453350       -39.5477 
  34   1.0000      -1.137008       -30.9396 
  35   1.0000      -1.098186       -29.8832 
  36   1.0000      -1.063191       -28.9309 
  37   1.0000      -1.057653       -28.7802 
  38   1.0000      -1.055262       -28.7151 
  39   1.0000      -1.025928       -27.9169 
  40   1.0000      -1.008986       -27.4559 
  41   1.0000      -0.965431       -26.2707 
  42   1.0000      -0.939232       -25.5578 
  43   1.0000      -0.923381       -25.1265 
  44   1.0000      -0.923259       -25.1232 
  45   1.0000      -0.912753       -24.8373 
  46   1.0000      -0.912459       -24.8293 
  47   1.0000      -0.904563       -24.6144 
  48   1.0000      -0.808116       -21.9900 
  49   1.0000      -0.737065       -20.0566 
  50   1.0000      -0.706187       -19.2163 
  51   1.0000      -0.698141       -18.9974 
  52   1.0000      -0.688281       -18.7291 
  53   1.0000      -0.661681       -18.0052 
  54   1.0000      -0.628345       -17.0981 
  55   1.0000      -0.620787       -16.8925 
  56   1.0000      -0.603614       -16.4252 
  57   1.0000      -0.600203       -16.3324 
  58   1.0000      -0.584494       -15.9049 
  59   1.0000      -0.578108       -15.7311 
  60   1.0000      -0.561596       -15.2818 
  61   1.0000      -0.557516       -15.1708 
  62   1.0000      -0.552632       -15.0379 
  63   1.0000      -0.544072       -14.8050 
  64   1.0000      -0.534623       -14.5478 
  65   1.0000      -0.528680       -14.3861 
  66   1.0000      -0.501101       -13.6357 
  67   1.0000      -0.497846       -13.5471 
  68   1.0000      -0.474835       -12.9209 
  69   1.0000      -0.471783       -12.8379 
  70   1.0000      -0.443500       -12.0683 
  71   1.0000      -0.437694       -11.9103 
  72   1.0000      -0.436245       -11.8708 
  73   1.0000      -0.427599       -11.6356 
  74   1.0000      -0.426179       -11.5969 
  75   1.0000      -0.425652       -11.5826 
  76   1.0000      -0.363928        -9.9030 
  77   0.0000       0.012533         0.3410 
  78   0.0000       0.023273         0.6333 
  79   0.0000       0.023672         0.6441 
  80   0.0000       0.030438         0.8283 
  81   0.0000       0.039239         1.0677 
  82   0.0000       0.040925         1.1136 
  83   0.0000       0.042681         1.1614 
  84   0.0000       0.043543         1.1849 
  85   0.0000       0.044113         1.2004 
  86   0.0000       0.056272         1.5312 
  87   0.0000       0.056766         1.5447 
  88   0.0000       0.060258         1.6397 
  89   0.0000       0.064208         1.7472 
  90   0.0000       0.066722         1.8156 
  91   0.0000       0.069911         1.9024 
  92   0.0000       0.073211         1.9922 
  93   0.0000       0.075374         2.0510 
  94   0.0000       0.079818         2.1720 
  95   0.0000       0.092085         2.5058 
  96   0.0000       0.092500         2.5170 
  97   0.0000       0.092648         2.5211 
  98   0.0000       0.099553         2.7090 
  99   0.0000       0.102140         2.7794 
 100   0.0000       0.103832         2.8254 
 101   0.0000       0.107468         2.9244 
 102   0.0000       0.115920         3.1543 
 103   0.0000       0.122142         3.3237 
 104   0.0000       0.122839         3.3426 
 105   0.0000       0.124638         3.3916 
 106   0.0000       0.127659         3.4738 
 107   0.0000       0.128493         3.4965 
 108   0.0000       0.130593         3.5536 
 109   0.0000       0.133709         3.6384 
 110   0.0000       0.136919         3.7258 
 111   0.0000       0.139545         3.7972 
 112   0.0000       0.141960         3.8629 
 113   0.0000       0.144852         3.9416 
 114   0.0000       0.149547         4.0694 
 115   0.0000       0.151464         4.1215 
 116   0.0000       0.155661         4.2358 
 117   0.0000       0.158980         4.3261 
 118   0.0000       0.162303         4.4165 
 119   0.0000       0.166319         4.5258 
 120   0.0000       0.167804         4.5662 
 121   0.0000       0.170561         4.6412 
 122   0.0000       0.173797         4.7293 
 123   0.0000       0.177012         4.8167 
 124   0.0000       0.181039         4.9263 
 125   0.0000       0.185826         5.0566 
 126   0.0000       0.188442         5.1278 
 127   0.0000       0.189659         5.1609 
 128   0.0000       0.194566         5.2944 
 129   0.0000       0.198396         5.3986 
 130   0.0000       0.201312         5.4780 
 131   0.0000       0.202822         5.5191 
 132   0.0000       0.206166         5.6101 
 133   0.0000       0.207050         5.6341 
 134   0.0000       0.209777         5.7083 
 135   0.0000       0.213472         5.8089 
 136   0.0000       0.218655         5.9499 
 137   0.0000       0.223242         6.0747 
 138   0.0000       0.225281         6.1302 
 139   0.0000       0.230740         6.2787 
 140   0.0000       0.234109         6.3704 
 141   0.0000       0.235571         6.4102 
 142   0.0000       0.238565         6.4917 
 143   0.0000       0.242581         6.6010 
 144   0.0000       0.248274         6.7559 
 145   0.0000       0.249195         6.7809 
 146   0.0000       0.250467         6.8155 
 147   0.0000       0.252217         6.8632 
 148   0.0000       0.258585         7.0365 
 149   0.0000       0.261662         7.1202 
 150   0.0000       0.264286         7.1916 
 151   0.0000       0.271974         7.4008 
 152   0.0000       0.273829         7.4513 
 153   0.0000       0.275741         7.5033 
 154   0.0000       0.282051         7.6750 
 155   0.0000       0.286839         7.8053 
 156   0.0000       0.291785         7.9399 
 157   0.0000       0.295204         8.0329 
 158   0.0000       0.298962         8.1352 
 159   0.0000       0.303002         8.2451 
 160   0.0000       0.309464         8.4209 
 161   0.0000       0.312537         8.5046 
 162   0.0000       0.317049         8.6273 
 163   0.0000       0.318458         8.6657 
 164   0.0000       0.327419         8.9095 
 165   0.0000       0.330224         8.9858 
 166   0.0000       0.332510         9.0481 
 167   0.0000       0.338429         9.2091 
 168   0.0000       0.341883         9.3031 
 169   0.0000       0.344801         9.3825 
 170   0.0000       0.348609         9.4861 
 171   0.0000       0.351158         9.5555 
 172   0.0000       0.356778         9.7084 
 173   0.0000       0.359414         9.7802 
 174   0.0000       0.361911         9.8481 
 175   0.0000       0.363692         9.8966 
 176   0.0000       0.366660         9.9773 
 177   0.0000       0.371207        10.1011 
 178   0.0000       0.376269        10.2388 
 179   0.0000       0.377465        10.2713 
 180   0.0000       0.378037        10.2869 
 181   0.0000       0.381530        10.3820 
 182   0.0000       0.384367        10.4591 
 183   0.0000       0.386679        10.5221 
 184   0.0000       0.392541        10.6816 
 185   0.0000       0.394135        10.7250 
 186   0.0000       0.400979        10.9112 
 187   0.0000       0.403932        10.9915 
 188   0.0000       0.406353        11.0574 
 189   0.0000       0.407867        11.0986 
 190   0.0000       0.409102        11.1322 
 191   0.0000       0.413714        11.2577 
 192   0.0000       0.417365        11.3571 
 193   0.0000       0.425757        11.5854 
 194   0.0000       0.429625        11.6907 
 195   0.0000       0.429947        11.6995 
 196   0.0000       0.434339        11.8190 
 197   0.0000       0.440652        11.9907 
 198   0.0000       0.445286        12.1169 
 199   0.0000       0.445760        12.1297 
 200   0.0000       0.452214        12.3054 
 201   0.0000       0.455233        12.3875 
 202   0.0000       0.457017        12.4361 
 203   0.0000       0.459985        12.5168 
 204   0.0000       0.461506        12.5582 
 205   0.0000       0.470009        12.7896 
 206   0.0000       0.471921        12.8416 
 207   0.0000       0.472705        12.8629 
 208   0.0000       0.475367        12.9354 
 209   0.0000       0.479952        13.0602 
 210   0.0000       0.484435        13.1821 
 211   0.0000       0.485368        13.2075 
 212   0.0000       0.490314        13.3421 
 213   0.0000       0.494172        13.4471 
 214   0.0000       0.495286        13.4774 
 215   0.0000       0.500980        13.6324 
 216   0.0000       0.504779        13.7357 
 217   0.0000       0.507734        13.8162 
 218   0.0000       0.510290        13.8857 
 219   0.0000       0.513712        13.9788 
 220   0.0000       0.515539        14.0285 
 221   0.0000       0.517774        14.0893 
 222   0.0000       0.520906        14.1746 
 223   0.0000       0.525974        14.3125 
 224   0.0000       0.530272        14.4294 
 225   0.0000       0.531304        14.4575 
 226   0.0000       0.534796        14.5525 
 227   0.0000       0.539634        14.6842 
 228   0.0000       0.542326        14.7574 
 229   0.0000       0.543692        14.7946 
 230   0.0000       0.547140        14.8884 
 231   0.0000       0.551796        15.0151 
 232   0.0000       0.559717        15.2307 
 233   0.0000       0.561285        15.2733 
 234   0.0000       0.565494        15.3879 
 235   0.0000       0.568749        15.4764 
 236   0.0000       0.571553        15.5527 
 237   0.0000       0.574515        15.6334 
 238   0.0000       0.579742        15.7756 
 239   0.0000       0.580337        15.7918 
 240   0.0000       0.584827        15.9139 
 241   0.0000       0.593099        16.1390 
 242   0.0000       0.596467        16.2307 
 243   0.0000       0.599424        16.3112 
 244   0.0000       0.602844        16.4042 
 245   0.0000       0.605328        16.4718 
 246   0.0000       0.612685        16.6720 
 247   0.0000       0.614511        16.7217 
 248   0.0000       0.617921        16.8145 
 249   0.0000       0.621460        16.9108 
 250   0.0000       0.626124        17.0377 
 251   0.0000       0.629130        17.1195 
 252   0.0000       0.637875        17.3575 
 253   0.0000       0.641260        17.4496 
 254   0.0000       0.641763        17.4633 
 255   0.0000       0.643647        17.5145 
 256   0.0000       0.647573        17.6214 
 257   0.0000       0.652397        17.7526 
 258   0.0000       0.653172        17.7737 
 259   0.0000       0.655045        17.8247 
 260   0.0000       0.659071        17.9342 
 261   0.0000       0.660943        17.9852 
 262   0.0000       0.666920        18.1478 
 263   0.0000       0.671778        18.2800 
 264   0.0000       0.674449        18.3527 
 265   0.0000       0.680297        18.5118 
 266   0.0000       0.685888        18.6640 
 267   0.0000       0.687058        18.6958 
 268   0.0000       0.691761        18.8238 
 269   0.0000       0.700806        19.0699 
 270   0.0000       0.702163        19.1068 
 271   0.0000       0.708500        19.2793 
 272   0.0000       0.715755        19.4767 
 273   0.0000       0.719737        19.5850 
 274   0.0000       0.720681        19.6107 
 275   0.0000       0.726412        19.7667 
 276   0.0000       0.730942        19.8900 
 277   0.0000       0.733168        19.9505 
 278   0.0000       0.738071        20.0839 
 279   0.0000       0.740311        20.1449 
 280   0.0000       0.745897        20.2969 
 281   0.0000       0.754762        20.5381 
 282   0.0000       0.758431        20.6380 
 283   0.0000       0.760210        20.6864 
 284   0.0000       0.762568        20.7505 
 285   0.0000       0.775154        21.0930 
 286   0.0000       0.775571        21.1044 
 287   0.0000       0.785126        21.3644 
 288   0.0000       0.795676        21.6514 
 289   0.0000       0.807374        21.9698 
 290   0.0000       0.813255        22.1298 
 291   0.0000       0.815209        22.1830 
 292   0.0000       0.817831        22.2543 
 293   0.0000       0.829134        22.5619 
 294   0.0000       0.831118        22.6159 
 295   0.0000       0.842869        22.9356 
 296   0.0000       0.843424        22.9507 
 297   0.0000       0.847225        23.0542 
 298   0.0000       0.853903        23.2359 
 299   0.0000       0.860800        23.4235 
 300   0.0000       0.864461        23.5232 
 301   0.0000       0.866551        23.5801 
 302   0.0000       0.872465        23.7410 
 303   0.0000       0.874100        23.7855 
 304   0.0000       0.885556        24.0972 
 305   0.0000       0.886291        24.1172 
 306   0.0000       0.889505        24.2047 
 307   0.0000       0.895229        24.3604 
 308   0.0000       0.903836        24.5946 
 309   0.0000       0.906693        24.6724 
 310   0.0000       0.909792        24.7567 
 311   0.0000       0.911254        24.7965 
 312   0.0000       0.914236        24.8776 
 313   0.0000       0.921193        25.0669 
 314   0.0000       0.923237        25.1226 
 315   0.0000       0.926771        25.2187 
 316   0.0000       0.934662        25.4334 
 317   0.0000       0.936201        25.4753 
 318   0.0000       0.942321        25.6419 
 319   0.0000       0.945327        25.7237 
 320   0.0000       0.949866        25.8472 
 321   0.0000       0.952473        25.9181 
 322   0.0000       0.954711        25.9790 
 323   0.0000       0.958891        26.0927 
 324   0.0000       0.960052        26.1243 
 325   0.0000       0.962238        26.1838 
 326   0.0000       0.967085        26.3157 
 327   0.0000       0.971580        26.4380 
 328   0.0000       0.975145        26.5350 
 329   0.0000       0.977161        26.5899 
 330   0.0000       0.980144        26.6711 
 331   0.0000       0.984335        26.7851 
 332   0.0000       0.991043        26.9677 
 333   0.0000       0.991932        26.9918 
 334   0.0000       0.999373        27.1943 
 335   0.0000       1.002814        27.2880 
 336   0.0000       1.004270        27.3276 
 337   0.0000       1.007297        27.4099 
 338   0.0000       1.009084        27.4586 
 339   0.0000       1.011594        27.5269 
 340   0.0000       1.014969        27.6187 
 341   0.0000       1.020443        27.7677 
 342   0.0000       1.024222        27.8705 
 343   0.0000       1.026660        27.9368 
 344   0.0000       1.030776        28.0488 
 345   0.0000       1.034539        28.1512 
 346   0.0000       1.039902        28.2972 
 347   0.0000       1.042765        28.3751 
 348   0.0000       1.045743        28.4561 
 349   0.0000       1.048911        28.5423 
 350   0.0000       1.054579        28.6965 
 351   0.0000       1.058680        28.8081 
 352   0.0000       1.064808        28.9749 
 353   0.0000       1.065478        28.9931 
 354   0.0000       1.069988        29.1158 
 355   0.0000       1.072579        29.1864 
 356   0.0000       1.077669        29.3249 
 357   0.0000       1.080171        29.3929 
 358   0.0000       1.083056        29.4714 
 359   0.0000       1.087250        29.5856 
 360   0.0000       1.089895        29.6575 
 361   0.0000       1.092787        29.7362 
 362   0.0000       1.097258        29.8579 
 363   0.0000       1.102496        30.0004 
 364   0.0000       1.106748        30.1161 
 365   0.0000       1.112347        30.2685 
 366   0.0000       1.115379        30.3510 
 367   0.0000       1.125524        30.6271 
 368   0.0000       1.128428        30.7061 
 369   0.0000       1.130914        30.7737 
 370   0.0000       1.137186        30.9444 
 371   0.0000       1.139053        30.9952 
 372   0.0000       1.146676        31.2027 
 373   0.0000       1.148367        31.2487 
 374   0.0000       1.156140        31.4602 
 375   0.0000       1.157067        31.4854 
 376   0.0000       1.161665        31.6105 
 377   0.0000       1.169873        31.8339 
 378   0.0000       1.175444        31.9855 
 379   0.0000       1.178967        32.0813 
 380   0.0000       1.183522        32.2053 
 381   0.0000       1.184310        32.2267 
 382   0.0000       1.188340        32.3364 
 383   0.0000       1.192172        32.4407 
 384   0.0000       1.200203        32.6592 
 385   0.0000       1.202568        32.7235 
 386   0.0000       1.207805        32.8660 
 387   0.0000       1.210542        32.9405 
 388   0.0000       1.220529        33.2123 
 389   0.0000       1.223812        33.3016 
 390   0.0000       1.229628        33.4599 
 391   0.0000       1.232511        33.5383 
 392   0.0000       1.237883        33.6845 
 393   0.0000       1.238826        33.7102 
 394   0.0000       1.246572        33.9210 
 395   0.0000       1.250850        34.0374 
 396   0.0000       1.255625        34.1673 
 397   0.0000       1.259490        34.2725 
 398   0.0000       1.266428        34.4612 
 399   0.0000       1.270521        34.5726 
 400   0.0000       1.274619        34.6841 
 401   0.0000       1.278824        34.7986 
 402   0.0000       1.281218        34.8637 
 403   0.0000       1.284440        34.9514 
 404   0.0000       1.293494        35.1978 
 405   0.0000       1.295383        35.2492 
 406   0.0000       1.299264        35.3548 
 407   0.0000       1.308548        35.6074 
 408   0.0000       1.314179        35.7606 
 409   0.0000       1.317302        35.8456 
 410   0.0000       1.322836        35.9962 
 411   0.0000       1.324489        36.0412 
 412   0.0000       1.329747        36.1843 
 413   0.0000       1.336583        36.3703 
 414   0.0000       1.340603        36.4797 
 415   0.0000       1.346487        36.6398 
 416   0.0000       1.353573        36.8326 
 417   0.0000       1.360408        37.0186 
 418   0.0000       1.365808        37.1655 
 419   0.0000       1.367254        37.2049 
 420   0.0000       1.368727        37.2450 
 421   0.0000       1.377710        37.4894 
 422   0.0000       1.383002        37.6334 
 423   0.0000       1.389353        37.8062 
 424   0.0000       1.400165        38.1004 
 425   0.0000       1.407493        38.2998 
 426   0.0000       1.411211        38.4010 
 427   0.0000       1.414996        38.5040 
 428   0.0000       1.420188        38.6453 
 429   0.0000       1.424833        38.7717 
 430   0.0000       1.431848        38.9626 
 431   0.0000       1.437292        39.1107 
 432   0.0000       1.442435        39.2507 
 433   0.0000       1.446733        39.3676 
 434   0.0000       1.453373        39.5483 
 435   0.0000       1.457930        39.6723 
 436   0.0000       1.466501        39.9055 
 437   0.0000       1.468664        39.9644 
 438   0.0000       1.477052        40.1926 
 439   0.0000       1.482505        40.3410 
 440   0.0000       1.488107        40.4934 
 441   0.0000       1.488223        40.4966 
 442   0.0000       1.492849        40.6225 
 443   0.0000       1.498704        40.7818 
 444   0.0000       1.501848        40.8674 
 445   0.0000       1.507337        41.0167 
 446   0.0000       1.514690        41.2168 
 447   0.0000       1.518160        41.3112 
 448   0.0000       1.521414        41.3998 
 449   0.0000       1.527295        41.5598 
 450   0.0000       1.529656        41.6240 
 451   0.0000       1.531396        41.6714 
 452   0.0000       1.541450        41.9450 
 453   0.0000       1.547297        42.1041 
 454   0.0000       1.555432        42.3255 
 455   0.0000       1.561649        42.4946 
 456   0.0000       1.562629        42.5213 
 457   0.0000       1.569240        42.7012 
 458   0.0000       1.574135        42.8344 
 459   0.0000       1.582095        43.0510 
 460   0.0000       1.590512        43.2800 
 461   0.0000       1.591954        43.3193 
 462   0.0000       1.599329        43.5199 
 463   0.0000       1.602056        43.5942 
 464   0.0000       1.605283        43.6820 
 465   0.0000       1.612957        43.8908 
 466   0.0000       1.619651        44.0729 
 467   0.0000       1.628971        44.3266 
 468   0.0000       1.632667        44.4271 
 469   0.0000       1.635882        44.5146 
 470   0.0000       1.645764        44.7835 
 471   0.0000       1.649788        44.8930 
 472   0.0000       1.657246        45.0960 
 473   0.0000       1.659015        45.1441 
 474   0.0000       1.661957        45.2242 
 475   0.0000       1.667251        45.3682 
 476   0.0000       1.671761        45.4909 
 477   0.0000       1.673407        45.5357 
 478   0.0000       1.679910        45.7127 
 479   0.0000       1.686042        45.8795 
 480   0.0000       1.689676        45.9784 
 481   0.0000       1.695401        46.1342 
 482   0.0000       1.707097        46.4525 
 483   0.0000       1.712341        46.5952 
 484   0.0000       1.715042        46.6687 
 485   0.0000       1.723095        46.8878 
 486   0.0000       1.725591        46.9557 
 487   0.0000       1.728714        47.0407 
 488   0.0000       1.741040        47.3761 
 489   0.0000       1.744489        47.4700 
 490   0.0000       1.750245        47.6266 
 491   0.0000       1.752995        47.7014 
 492   0.0000       1.756471        47.7960 
 493   0.0000       1.760849        47.9151 
 494   0.0000       1.766527        48.0696 
 495   0.0000       1.776060        48.3291 
 496   0.0000       1.780033        48.4372 
 497   0.0000       1.785374        48.5825 
 498   0.0000       1.793715        48.8095 
 499   0.0000       1.796133        48.8753 
 500   0.0000       1.797494        48.9123 
 501   0.0000       1.800689        48.9992 
 502   0.0000       1.814384        49.3719 
 503   0.0000       1.815329        49.3976 
 504   0.0000       1.816910        49.4406 
 505   0.0000       1.823130        49.6099 
 506   0.0000       1.830125        49.8002 
 507   0.0000       1.833703        49.8976 
 508   0.0000       1.842360        50.1332 
 509   0.0000       1.846197        50.2376 
 510   0.0000       1.855477        50.4901 
 511   0.0000       1.858466        50.5714 
 512   0.0000       1.861938        50.6659 
 513   0.0000       1.866193        50.7817 
 514   0.0000       1.871225        50.9186 
 515   0.0000       1.875154        51.0255 
 516   0.0000       1.878607        51.1195 
 517   0.0000       1.888712        51.3945 
 518   0.0000       1.891933        51.4821 
 519   0.0000       1.897847        51.6430 
 520   0.0000       1.900301        51.7098 
 521   0.0000       1.914801        52.1044 
 522   0.0000       1.916809        52.1590 
 523   0.0000       1.919117        52.2218 
 524   0.0000       1.920762        52.2666 
 525   0.0000       1.930726        52.5377 
 526   0.0000       1.934864        52.6503 
 527   0.0000       1.939661        52.7809 
 528   0.0000       1.945674        52.9445 
 529   0.0000       1.952609        53.1332 
 530   0.0000       1.960790        53.3558 
 531   0.0000       1.962451        53.4010 
 532   0.0000       1.966732        53.5175 
 533   0.0000       1.971117        53.6368 
 534   0.0000       1.976963        53.7959 
 535   0.0000       1.979965        53.8776 
 536   0.0000       1.991019        54.1784 
 537   0.0000       1.993619        54.2491 
 538   0.0000       1.998593        54.3845 
 539   0.0000       2.012291        54.7572 
 540   0.0000       2.019886        54.9639 
 541   0.0000       2.027667        55.1756 
 542   0.0000       2.028148        55.1887 
 543   0.0000       2.034271        55.3553 
 544   0.0000       2.039912        55.5088 
 545   0.0000       2.050477        55.7963 
 546   0.0000       2.060607        56.0720 
 547   0.0000       2.063324        56.1459 
 548   0.0000       2.069450        56.3126 
 549   0.0000       2.078787        56.5667 
 550   0.0000       2.082360        56.6639 
 551   0.0000       2.086972        56.7894 
 552   0.0000       2.092524        56.9405 
 553   0.0000       2.094814        57.0028 
 554   0.0000       2.106051        57.3086 
 555   0.0000       2.114378        57.5352 
 556   0.0000       2.122319        57.7512 
 557   0.0000       2.129604        57.9495 
 558   0.0000       2.138083        58.1802 
 559   0.0000       2.143801        58.3358 
 560   0.0000       2.155548        58.6554 
 561   0.0000       2.161269        58.8111 
 562   0.0000       2.165949        58.9385 
 563   0.0000       2.170409        59.0598 
 564   0.0000       2.172792        59.1247 
 565   0.0000       2.181314        59.3566 
 566   0.0000       2.189803        59.5876 
 567   0.0000       2.197506        59.7972 
 568   0.0000       2.197990        59.8103 
 569   0.0000       2.207124        60.0589 
 570   0.0000       2.220817        60.4315 
 571   0.0000       2.224572        60.5337 
 572   0.0000       2.228408        60.6381 
 573   0.0000       2.238780        60.9203 
 574   0.0000       2.243292        61.0431 
 575   0.0000       2.252697        61.2990 
 576   0.0000       2.253262        61.3144 
 577   0.0000       2.258439        61.4552 
 578   0.0000       2.271011        61.7974 
 579   0.0000       2.278038        61.9886 
 580   0.0000       2.280390        62.0526 
 581   0.0000       2.286999        62.2324 
 582   0.0000       2.291327        62.3502 
 583   0.0000       2.300815        62.6084 
 584   0.0000       2.312307        62.9211 
 585   0.0000       2.318401        63.0869 
 586   0.0000       2.330236        63.4089 
 587   0.0000       2.340982        63.7014 
 588   0.0000       2.345031        63.8115 
 589   0.0000       2.357400        64.1481 
 590   0.0000       2.369009        64.4640 
 591   0.0000       2.373420        64.5841 
 592   0.0000       2.385000        64.8991 
 593   0.0000       2.391614        65.0791 
 594   0.0000       2.410561        65.5947 
 595   0.0000       2.413445        65.6732 
 596   0.0000       2.419381        65.8347 
 597   0.0000       2.420968        65.8779 
 598   0.0000       2.426832        66.0375 
 599   0.0000       2.441120        66.4263 
 600   0.0000       2.446342        66.5684 
 601   0.0000       2.456091        66.8336 
 602   0.0000       2.462305        67.0027 
 603   0.0000       2.469903        67.2095 
 604   0.0000       2.479812        67.4791 
 605   0.0000       2.489194        67.7344 
 606   0.0000       2.507286        68.2267 
 607   0.0000       2.514631        68.4266 
 608   0.0000       2.521474        68.6128 
 609   0.0000       2.531129        68.8755 
 610   0.0000       2.542606        69.1878 
 611   0.0000       2.555702        69.5442 
 612   0.0000       2.558393        69.6174 
 613   0.0000       2.566856        69.8477 
 614   0.0000       2.575657        70.0872 
 615   0.0000       2.585858        70.3648 
 616   0.0000       2.601006        70.7770 
 617   0.0000       2.614029        71.1314 
 618   0.0000       2.642144        71.8964 
 619   0.0000       2.650352        72.1198 
 620   0.0000       2.657052        72.3021 
 621   0.0000       2.669995        72.6543 
 622   0.0000       2.671314        72.6902 
 623   0.0000       2.678664        72.8902 
 624   0.0000       2.682654        72.9987 
 625   0.0000       2.693999        73.3074 
 626   0.0000       2.697889        73.4133 
 627   0.0000       2.711887        73.7942 
 628   0.0000       2.720572        74.0305 
 629   0.0000       2.729666        74.2780 
 630   0.0000       2.743746        74.6611 
 631   0.0000       2.751374        74.8687 
 632   0.0000       2.766287        75.2745 
 633   0.0000       2.769810        75.3704 
 634   0.0000       2.777564        75.5814 
 635   0.0000       2.780242        75.6542 
 636   0.0000       2.786496        75.8244 
 637   0.0000       2.807060        76.3840 
 638   0.0000       2.817456        76.6669 
 639   0.0000       2.827483        76.9397 
 640   0.0000       2.836834        77.1942 
 641   0.0000       2.854680        77.6798 
 642   0.0000       2.857316        77.7515 
 643   0.0000       2.875752        78.2532 
 644   0.0000       2.884463        78.4902 
 645   0.0000       2.903113        78.9977 
 646   0.0000       2.920424        79.4688 
 647   0.0000       2.926408        79.6316 
 648   0.0000       2.937971        79.9462 
 649   0.0000       2.950040        80.2747 
 650   0.0000       2.968056        80.7649 
 651   0.0000       2.976183        80.9860 
 652   0.0000       2.985836        81.2487 
 653   0.0000       3.010460        81.9188 
 654   0.0000       3.023576        82.2757 
 655   0.0000       3.045975        82.8852 
 656   0.0000       3.058485        83.2256 
 657   0.0000       3.060061        83.2685 
 658   0.0000       3.077823        83.7518 
 659   0.0000       3.089329        84.0649 
 660   0.0000       3.099859        84.3515 
 661   0.0000       3.103474        84.4498 
 662   0.0000       3.126946        85.0885 
 663   0.0000       3.154567        85.8401 
 664   0.0000       3.164487        86.1101 
 665   0.0000       3.170232        86.2664 
 666   0.0000       3.184254        86.6480 
 667   0.0000       3.201178        87.1085 
 668   0.0000       3.215096        87.4872 
 669   0.0000       3.216650        87.5295 
 670   0.0000       3.227958        87.8372 
 671   0.0000       3.243701        88.2656 
 672   0.0000       3.245813        88.3231 
 673   0.0000       3.250292        88.4449 
 674   0.0000       3.262712        88.7829 
 675   0.0000       3.270145        88.9852 
 676   0.0000       3.277691        89.1905 
 677   0.0000       3.287414        89.4551 
 678   0.0000       3.302384        89.8624 
 679   0.0000       3.307910        90.0128 
 680   0.0000       3.315121        90.2090 
 681   0.0000       3.323254        90.4303 
 682   0.0000       3.330621        90.6308 
 683   0.0000       3.341843        90.9362 
 684   0.0000       3.346863        91.0728 
 685   0.0000       3.353387        91.2503 
 686   0.0000       3.377862        91.9163 
 687   0.0000       3.389838        92.2422 
 688   0.0000       3.396320        92.4186 
 689   0.0000       3.413393        92.8831 
 690   0.0000       3.423221        93.1506 
 691   0.0000       3.430522        93.3492 
 692   0.0000       3.438009        93.5530 
 693   0.0000       3.442190        93.6667 
 694   0.0000       3.456593        94.0587 
 695   0.0000       3.465125        94.2908 
 696   0.0000       3.474576        94.5480 
 697   0.0000       3.491790        95.0164 
 698   0.0000       3.496522        95.1452 
 699   0.0000       3.499897        95.2370 
 700   0.0000       3.508329        95.4665 
 701   0.0000       3.511338        95.5484 
 702   0.0000       3.532183        96.1156 
 703   0.0000       3.542819        96.4050 
 704   0.0000       3.545358        96.4741 
 705   0.0000       3.551661        96.6456 
 706   0.0000       3.566348        97.0453 
 707   0.0000       3.570818        97.1669 
 708   0.0000       3.573449        97.2385 
 709   0.0000       3.579086        97.3919 
 710   0.0000       3.588310        97.6429 
 711   0.0000       3.597024        97.8800 
 712   0.0000       3.610439        98.2450 
 713   0.0000       3.619634        98.4953 
 714   0.0000       3.622524        98.5739 
 715   0.0000       3.637185        98.9728 
 716   0.0000       3.639449        99.0344 
 717   0.0000       3.651187        99.3539 
 718   0.0000       3.654832        99.4530 
 719   0.0000       3.665070        99.7316 
 720   0.0000       3.674681        99.9931 
 721   0.0000       3.683167       100.2241 
 722   0.0000       3.690105       100.4129 
 723   0.0000       3.702392       100.7472 
 724   0.0000       3.707339       100.8818 
 725   0.0000       3.711937       101.0069 
 726   0.0000       3.717549       101.1597 
 727   0.0000       3.728708       101.4633 
 728   0.0000       3.735681       101.6530 
 729   0.0000       3.739314       101.7519 
 730   0.0000       3.754038       102.1526 
 731   0.0000       3.756781       102.2272 
 732   0.0000       3.757724       102.2529 
 733   0.0000       3.762668       102.3874 
 734   0.0000       3.773955       102.6945 
 735   0.0000       3.783129       102.9442 
 736   0.0000       3.793153       103.2169 
 737   0.0000       3.797669       103.3398 
 738   0.0000       3.809427       103.6598 
 739   0.0000       3.812926       103.7550 
 740   0.0000       3.821818       103.9970 
 741   0.0000       3.828284       104.1729 
 742   0.0000       3.828843       104.1881 
 743   0.0000       3.840087       104.4941 
 744   0.0000       3.846043       104.6561 
 745   0.0000       3.861640       105.0806 
 746   0.0000       3.869475       105.2938 
 747   0.0000       3.878257       105.5327 
 748   0.0000       3.884384       105.6995 
 749   0.0000       3.887797       105.7923 
 750   0.0000       3.894994       105.9882 
 751   0.0000       3.895812       106.0104 
 752   0.0000       3.911378       106.4340 
 753   0.0000       3.914392       106.5160 
 754   0.0000       3.923731       106.7701 
 755   0.0000       3.924843       106.8004 
 756   0.0000       3.943795       107.3161 
 757   0.0000       3.948194       107.4358 
 758   0.0000       3.952344       107.5488 
 759   0.0000       3.960544       107.7719 
 760   0.0000       3.961611       107.8009 
 761   0.0000       3.963689       107.8575 
 762   0.0000       3.980806       108.3232 
 763   0.0000       3.982858       108.3791 
 764   0.0000       3.989013       108.5466 
 765   0.0000       3.993584       108.6710 
 766   0.0000       3.998899       108.8156 
 767   0.0000       4.003335       108.9363 
 768   0.0000       4.018008       109.3356 
 769   0.0000       4.021529       109.4314 
 770   0.0000       4.022422       109.4557 
 771   0.0000       4.034091       109.7732 
 772   0.0000       4.045916       110.0950 
 773   0.0000       4.051432       110.2451 
 774   0.0000       4.072128       110.8082 
 775   0.0000       4.077959       110.9669 
 776   0.0000       4.081122       111.0530 
 777   0.0000       4.089304       111.2756 
 778   0.0000       4.092808       111.3710 
 779   0.0000       4.110255       111.8457 
 780   0.0000       4.112634       111.9105 
 781   0.0000       4.122098       112.1680 
 782   0.0000       4.132081       112.4396 
 783   0.0000       4.142364       112.7195 
 784   0.0000       4.145641       112.8086 
 785   0.0000       4.149968       112.9264 
 786   0.0000       4.161116       113.2297 
 787   0.0000       4.166857       113.3860 
 788   0.0000       4.171457       113.5111 
 789   0.0000       4.180357       113.7533 
 790   0.0000       4.190240       114.0222 
 791   0.0000       4.198331       114.2424 
 792   0.0000       4.208968       114.5318 
 793   0.0000       4.210246       114.5666 
 794   0.0000       4.219671       114.8231 
 795   0.0000       4.227277       115.0300 
 796   0.0000       4.235369       115.2502 
 797   0.0000       4.241187       115.4086 
 798   0.0000       4.251615       115.6923 
 799   0.0000       4.268481       116.1513 
 800   0.0000       4.277652       116.4008 
 801   0.0000       4.278748       116.4307 
 802   0.0000       4.291492       116.7774 
 803   0.0000       4.298696       116.9735 
 804   0.0000       4.305774       117.1661 
 805   0.0000       4.317638       117.4889 
 806   0.0000       4.323666       117.6529 
 807   0.0000       4.333836       117.9297 
 808   0.0000       4.344150       118.2103 
 809   0.0000       4.360522       118.6558 
 810   0.0000       4.364333       118.7595 
 811   0.0000       4.375094       119.0524 
 812   0.0000       4.388471       119.4164 
 813   0.0000       4.394168       119.5714 
 814   0.0000       4.400818       119.7524 
 815   0.0000       4.407353       119.9302 
 816   0.0000       4.424989       120.4101 
 817   0.0000       4.431807       120.5956 
 818   0.0000       4.440457       120.8310 
 819   0.0000       4.447722       121.0287 
 820   0.0000       4.454247       121.2062 
 821   0.0000       4.465596       121.5150 
 822   0.0000       4.469352       121.6173 
 823   0.0000       4.484344       122.0252 
 824   0.0000       4.495822       122.3375 
 825   0.0000       4.497274       122.3770 
 826   0.0000       4.515449       122.8716 
 827   0.0000       4.522899       123.0743 
 828   0.0000       4.529573       123.2559 
 829   0.0000       4.536603       123.4472 
 830   0.0000       4.549404       123.7956 
 831   0.0000       4.561437       124.1230 
 832   0.0000       4.572240       124.4170 
 833   0.0000       4.578170       124.5783 
 834   0.0000       4.589793       124.8946 
 835   0.0000       4.595160       125.0407 
 836   0.0000       4.610748       125.4648 
 837   0.0000       4.627801       125.9289 
 838   0.0000       4.638139       126.2102 
 839   0.0000       4.645610       126.4135 
 840   0.0000       4.657737       126.7435 
 841   0.0000       4.663766       126.9075 
 842   0.0000       4.677515       127.2817 
 843   0.0000       4.688186       127.5720 
 844   0.0000       4.698057       127.8406 
 845   0.0000       4.709250       128.1452 
 846   0.0000       4.723268       128.5266 
 847   0.0000       4.729202       128.6881 
 848   0.0000       4.736242       128.8797 
 849   0.0000       4.757958       129.4706 
 850   0.0000       4.768756       129.7644 
 851   0.0000       4.779436       130.0551 
 852   0.0000       4.788357       130.2978 
 853   0.0000       4.801789       130.6633 
 854   0.0000       4.815235       131.0292 
 855   0.0000       4.820937       131.1844 
 856   0.0000       4.841115       131.7334 
 857   0.0000       4.847898       131.9180 
 858   0.0000       4.856518       132.1526 
 859   0.0000       4.857677       132.1841 
 860   0.0000       4.877443       132.7220 
 861   0.0000       4.889872       133.0602 
 862   0.0000       4.906717       133.5185 
 863   0.0000       4.909874       133.6045 
 864   0.0000       4.925465       134.0287 
 865   0.0000       4.938785       134.3912 
 866   0.0000       4.951838       134.7463 
 867   0.0000       4.957901       134.9113 
 868   0.0000       4.970094       135.2431 
 869   0.0000       4.984904       135.6461 
 870   0.0000       4.994291       135.9016 
 871   0.0000       5.003926       136.1638 
 872   0.0000       5.013408       136.4218 
 873   0.0000       5.030666       136.8914 
 874   0.0000       5.035415       137.0206 
 875   0.0000       5.036813       137.0586 
 876   0.0000       5.052719       137.4915 
 877   0.0000       5.074833       138.0932 
 878   0.0000       5.079713       138.2260 
 879   0.0000       5.090138       138.5097 
 880   0.0000       5.097273       138.7039 
 881   0.0000       5.125688       139.4771 
 882   0.0000       5.131524       139.6359 
 883   0.0000       5.143011       139.9484 
 884   0.0000       5.148458       140.0967 
 885   0.0000       5.161886       140.4621 
 886   0.0000       5.171364       140.7200 
 887   0.0000       5.190612       141.2437 
 888   0.0000       5.198502       141.4584 
 889   0.0000       5.211357       141.8082 
 890   0.0000       5.220464       142.0560 
 891   0.0000       5.238323       142.5420 
 892   0.0000       5.245797       142.7454 
 893   0.0000       5.266030       143.2960 
 894   0.0000       5.295585       144.1002 
 895   0.0000       5.298444       144.1780 
 896   0.0000       5.306973       144.4101 
 897   0.0000       5.322576       144.8347 
 898   0.0000       5.336628       145.2170 
 899   0.0000       5.349111       145.5567 
 900   0.0000       5.354953       145.7157 
 901   0.0000       5.363945       145.9604 
 902   0.0000       5.379876       146.3939 
 903   0.0000       5.393110       146.7540 
 904   0.0000       5.398482       146.9002 
 905   0.0000       5.411314       147.2493 
 906   0.0000       5.418672       147.4496 
 907   0.0000       5.428500       147.7170 
 908   0.0000       5.453601       148.4000 
 909   0.0000       5.464909       148.7077 
 910   0.0000       5.470458       148.8587 
 911   0.0000       5.477820       149.0591 
 912   0.0000       5.495644       149.5441 
 913   0.0000       5.501958       149.7159 
 914   0.0000       5.518480       150.1655 
 915   0.0000       5.534839       150.6106 
 916   0.0000       5.543793       150.8543 
 917   0.0000       5.560917       151.3203 
 918   0.0000       5.569321       151.5489 
 919   0.0000       5.585331       151.9846 
 920   0.0000       5.599025       152.3572 
 921   0.0000       5.607123       152.5776 
 922   0.0000       5.616487       152.8324 
 923   0.0000       5.632295       153.2625 
 924   0.0000       5.643109       153.5568 
 925   0.0000       5.652954       153.8247 
 926   0.0000       5.668673       154.2524 
 927   0.0000       5.676538       154.4665 
 928   0.0000       5.684736       154.6895 
 929   0.0000       5.690133       154.8364 
 930   0.0000       5.704158       155.2180 
 931   0.0000       5.712942       155.4571 
 932   0.0000       5.726484       155.8255 
 933   0.0000       5.734110       156.0331 
 934   0.0000       5.755132       156.6051 
 935   0.0000       5.765506       156.8874 
 936   0.0000       5.778960       157.2535 
 937   0.0000       5.801715       157.8727 
 938   0.0000       5.819009       158.3433 
 939   0.0000       5.831045       158.6708 
 940   0.0000       5.841302       158.9499 
 941   0.0000       5.877136       159.9250 
 942   0.0000       5.884793       160.1334 
 943   0.0000       5.925065       161.2292 
 944   0.0000       5.941089       161.6652 
 945   0.0000       5.988923       162.9669 
 946   0.0000       6.019639       163.8027 
 947   0.0000       6.090513       165.7313 
 948   0.0000       6.111422       166.3002 
 949   0.0000       6.127203       166.7297 
 950   0.0000       6.164871       167.7547 
 951   0.0000       6.172880       167.9726 
 952   0.0000       6.185416       168.3137 
 953   0.0000       6.207042       168.9022 
 954   0.0000       6.221067       169.2838 
 955   0.0000       6.230451       169.5392 
 956   0.0000       6.238011       169.7449 
 957   0.0000       6.262392       170.4084 
 958   0.0000       6.277544       170.8207 
 959   0.0000       6.281723       170.9344 
 960   0.0000       6.307814       171.6444 
 961   0.0000       6.310854       171.7271 
 962   0.0000       6.330197       172.2534 
 963   0.0000       6.362150       173.1229 
 964   0.0000       6.374203       173.4509 
 965   0.0000       6.394360       173.9994 
 966   0.0000       6.421466       174.7370 
 967   0.0000       6.440653       175.2591 
 968   0.0000       6.515380       177.2925 
 969   0.0000       6.540155       177.9667 
 970   0.0000       6.621443       180.1786 
 971   0.0000       6.644087       180.7948 
 972   0.0000       6.823463       185.6759 
 973   0.0000       6.862876       186.7484 
 974   0.0000       6.868138       186.8915 
 975   0.0000       6.895988       187.6494 
 976   0.0000       6.912473       188.0980 
 977   0.0000       6.952686       189.1922 
 978   0.0000       6.964963       189.5263 
 979   0.0000       6.989192       190.1856 
 980   0.0000       7.003181       190.5662 
 981   0.0000       7.035622       191.4490 
 982   0.0000       7.043120       191.6531 
 983   0.0000       7.060650       192.1301 
 984   0.0000       7.127767       193.9564 
 985   0.0000       7.144537       194.4127 
 986   0.0000       7.300864       198.6666 
 987   0.0000       7.349773       199.9975 
 988   0.0000       7.398394       201.3205 
 989   0.0000       7.446974       202.6425 
 990   0.0000       7.538805       205.1413 
 991   0.0000       7.624864       207.4831 
 992   0.0000       7.660911       208.4640 
 993   0.0000       7.681433       209.0224 
 994   0.0000       7.793354       212.0679 
 995   0.0000       7.869118       214.1296 
 996   0.0000       7.969532       216.8620 
 997   0.0000       8.034877       218.6401 
 998   0.0000       8.261676       224.8116 
 999   0.0000       9.410902       256.0837 
 1000   0.0000       9.426914       256.5194 
 1001   0.0000       9.439704       256.8674 
 1002   0.0000       9.454427       257.2680 
 1003   0.0000       9.466476       257.5959 
 1004   0.0000       9.487215       258.1602 
 1005   0.0000       9.666904       263.0498 
 1006   0.0000      10.087627       274.4983 
 1007   0.0000      10.098589       274.7966 
 1008   0.0000      10.110628       275.1242 
 1009   0.0000      10.201840       277.6062 
 1010   0.0000      10.211247       277.8622 
 1011   0.0000      10.247232       278.8414 
 1012   0.0000      10.343807       281.4693 
 1013   0.0000      10.389109       282.7020 
 1014   0.0000      10.477350       285.1032 
 1015   0.0000      13.450102       365.9959 
 1016   0.0000      17.106613       465.4946 
 1017   0.0000      17.767239       483.4711 
 1018   0.0000      18.161565       494.2013 
 1019   0.0000      18.513181       503.7693 
 1020   0.0000      18.663825       507.8685 
 1021   0.0000      18.842587       512.7329 
 1022   0.0000      20.493213       557.6487 
 1023   0.0000      21.273462       578.8803 
 1024   0.0000      21.862490       594.9086 

                 SPIN DOWN ORBITALS
  NO   OCC          E(Eh)            E(eV) 
   0   1.0000    -261.568008     -7117.6274 
   1   1.0000    -104.788815     -2851.4486 
   2   1.0000    -104.786188     -2851.3771 
   3   1.0000    -104.784997     -2851.3447 
   4   1.0000     -32.077309      -872.8680 
   5   1.0000     -27.555230      -749.8159 
   6   1.0000     -27.555176      -749.8145 
   7   1.0000     -27.554999      -749.8096 
   8   1.0000     -20.600491      -560.5679 
   9   1.0000     -11.420441      -310.7660 
  10   1.0000     -11.282913      -307.0237 
  11   1.0000     -11.274859      -306.8045 
  12   1.0000     -11.269046      -306.6463 
  13   1.0000     -11.250007      -306.1283 
  14   1.0000     -11.245866      -306.0156 
  15   1.0000     -11.245116      -305.9952 
  16   1.0000     -11.235730      -305.7398 
  17   1.0000     -10.515401      -286.1386 
  18   1.0000     -10.512737      -286.0661 
  19   1.0000     -10.511507      -286.0326 
  20   1.0000      -7.981310      -217.1825 
  21   1.0000      -7.980615      -217.1636 
  22   1.0000      -7.980562      -217.1621 
  23   1.0000      -7.978613      -217.1091 
  24   1.0000      -7.977962      -217.0914 
  25   1.0000      -7.977865      -217.0887 
  26   1.0000      -7.977494      -217.0787 
  27   1.0000      -7.976642      -217.0555 
  28   1.0000      -7.976559      -217.0532 
  29   1.0000      -4.152132      -112.9853 
  30   1.0000      -2.673706       -72.7552 
  31   1.0000      -2.673674       -72.7544 
  32   1.0000      -2.673190       -72.7412 
  33   1.0000      -1.443985       -39.2928 
  34   1.0000      -1.136588       -30.9281 
  35   1.0000      -1.095715       -29.8159 
  36   1.0000      -1.047872       -28.5140 
  37   1.0000      -1.035484       -28.1769 
  38   1.0000      -1.033165       -28.1139 
  39   1.0000      -1.025490       -27.9050 
  40   1.0000      -1.008204       -27.4346 
  41   1.0000      -0.965305       -26.2673 
  42   1.0000      -0.904924       -24.6242 
  43   1.0000      -0.821305       -22.3488 
  44   1.0000      -0.737120       -20.0580 
  45   1.0000      -0.708809       -19.2877 
  46   1.0000      -0.697423       -18.9778 
  47   1.0000      -0.687225       -18.7003 
  48   1.0000      -0.661602       -18.0031 
  49   1.0000      -0.628246       -17.0954 
  50   1.0000      -0.620307       -16.8794 
  51   1.0000      -0.603325       -16.4173 
  52   1.0000      -0.600154       -16.3310 
  53   1.0000      -0.584175       -15.8962 
  54   1.0000      -0.577475       -15.7139 
  55   1.0000      -0.561052       -15.2670 
  56   1.0000      -0.557357       -15.1664 
  57   1.0000      -0.550063       -14.9680 
  58   1.0000      -0.544013       -14.8034 
  59   1.0000      -0.533091       -14.5061 
  60   1.0000      -0.519087       -14.1251 
  61   1.0000      -0.501168       -13.6375 
  62   1.0000      -0.498215       -13.5571 
  63   1.0000      -0.481622       -13.1056 
  64   1.0000      -0.479960       -13.0604 
  65   1.0000      -0.450931       -12.2704 
  66   1.0000      -0.447833       -12.1861 
  67   1.0000      -0.445320       -12.1178 
  68   1.0000      -0.429346       -11.6831 
  69   1.0000      -0.426540       -11.6067 
  70   1.0000      -0.410972       -11.1831 
  71   1.0000      -0.362920        -9.8756 
  72   0.0000       0.012520         0.3407 
  73   0.0000       0.023247         0.6326 
  74   0.0000       0.023649         0.6435 
  75   0.0000       0.030401         0.8273 
  76   0.0000       0.039136         1.0649 
  77   0.0000       0.040800         1.1102 
  78   0.0000       0.042599         1.1592 
  79   0.0000       0.043576         1.1858 
  80   0.0000       0.043966         1.1964 
  81   0.0000       0.054348         1.4789 
  82   0.0000       0.056289         1.5317 
  83   0.0000       0.060174         1.6374 
  84   0.0000       0.063760         1.7350 
  85   0.0000       0.066168         1.8005 
  86   0.0000       0.066633         1.8132 
  87   0.0000       0.072644         1.9767 
  88   0.0000       0.075325         2.0497 
  89   0.0000       0.079589         2.1657 
  90   0.0000       0.091059         2.4778 
  91   0.0000       0.092016         2.5039 
  92   0.0000       0.092546         2.5183 
  93   0.0000       0.099095         2.6965 
  94   0.0000       0.101703         2.7675 
  95   0.0000       0.103386         2.8133 
  96   0.0000       0.104579         2.8457 
  97   0.0000       0.108199         2.9443 
  98   0.0000       0.109493         2.9795 
  99   0.0000       0.113037         3.0759 
 100   0.0000       0.113557         3.0900 
 101   0.0000       0.114657         3.1200 
 102   0.0000       0.118703         3.2301 
 103   0.0000       0.122707         3.3390 
 104   0.0000       0.124237         3.3807 
 105   0.0000       0.126592         3.4448 
 106   0.0000       0.128411         3.4943 
 107   0.0000       0.131024         3.5653 
 108   0.0000       0.132087         3.5943 
 109   0.0000       0.135764         3.6943 
 110   0.0000       0.137711         3.7473 
 111   0.0000       0.140476         3.8225 
 112   0.0000       0.143109         3.8942 
 113   0.0000       0.147370         4.0101 
 114   0.0000       0.150228         4.0879 
 115   0.0000       0.152626         4.1532 
 116   0.0000       0.159019         4.3271 
 117   0.0000       0.159509         4.3405 
 118   0.0000       0.163129         4.4390 
 119   0.0000       0.166855         4.5404 
 120   0.0000       0.169604         4.6152 
 121   0.0000       0.173739         4.7277 
 122   0.0000       0.176351         4.7987 
 123   0.0000       0.177921         4.8415 
 124   0.0000       0.181698         4.9443 
 125   0.0000       0.187441         5.1005 
 126   0.0000       0.189426         5.1545 
 127   0.0000       0.189892         5.1672 
 128   0.0000       0.197824         5.3831 
 129   0.0000       0.201315         5.4781 
 130   0.0000       0.202923         5.5218 
 131   0.0000       0.204415         5.5624 
 132   0.0000       0.208491         5.6733 
 133   0.0000       0.209385         5.6976 
 134   0.0000       0.215595         5.8666 
 135   0.0000       0.217793         5.9264 
 136   0.0000       0.221056         6.0152 
 137   0.0000       0.225389         6.1331 
 138   0.0000       0.228973         6.2307 
 139   0.0000       0.232291         6.3210 
 140   0.0000       0.238838         6.4991 
 141   0.0000       0.239978         6.5301 
 142   0.0000       0.244265         6.6468 
 143   0.0000       0.246032         6.6949 
 144   0.0000       0.250619         6.8197 
 145   0.0000       0.253000         6.8845 
 146   0.0000       0.256553         6.9812 
 147   0.0000       0.258123         7.0239 
 148   0.0000       0.263969         7.1830 
 149   0.0000       0.265888         7.2352 
 150   0.0000       0.272826         7.4240 
 151   0.0000       0.276412         7.5216 
 152   0.0000       0.278193         7.5700 
 153   0.0000       0.282791         7.6951 
 154   0.0000       0.288954         7.8629 
 155   0.0000       0.292860         7.9691 
 156   0.0000       0.296365         8.0645 
 157   0.0000       0.299656         8.1541 
 158   0.0000       0.302720         8.2374 
 159   0.0000       0.309350         8.4178 
 160   0.0000       0.310309         8.4439 
 161   0.0000       0.319395         8.6912 
 162   0.0000       0.320272         8.7150 
 163   0.0000       0.324352         8.8261 
 164   0.0000       0.330389         8.9903 
 165   0.0000       0.332874         9.0580 
 166   0.0000       0.336425         9.1546 
 167   0.0000       0.342578         9.3220 
 168   0.0000       0.344563         9.3760 
 169   0.0000       0.347156         9.4466 
 170   0.0000       0.349545         9.5116 
 171   0.0000       0.358132         9.7453 
 172   0.0000       0.360481         9.8092 
 173   0.0000       0.362471         9.8633 
 174   0.0000       0.363784         9.8991 
 175   0.0000       0.366667         9.9775 
 176   0.0000       0.367895        10.0109 
 177   0.0000       0.375308        10.2126 
 178   0.0000       0.378833        10.3086 
 179   0.0000       0.381669        10.3857 
 180   0.0000       0.385495        10.4898 
 181   0.0000       0.387935        10.5562 
 182   0.0000       0.391775        10.6607 
 183   0.0000       0.394834        10.7440 
 184   0.0000       0.395382        10.7589 
 185   0.0000       0.398343        10.8395 
 186   0.0000       0.404538        11.0081 
 187   0.0000       0.406106        11.0507 
 188   0.0000       0.408260        11.1093 
 189   0.0000       0.410809        11.1787 
 190   0.0000       0.412858        11.2344 
 191   0.0000       0.417354        11.3568 
 192   0.0000       0.419089        11.4040 
 193   0.0000       0.428446        11.6586 
 194   0.0000       0.433082        11.7848 
 195   0.0000       0.435933        11.8624 
 196   0.0000       0.437197        11.8967 
 197   0.0000       0.443732        12.0746 
 198   0.0000       0.448671        12.2090 
 199   0.0000       0.451916        12.2973 
 200   0.0000       0.455693        12.4000 
 201   0.0000       0.457517        12.4497 
 202   0.0000       0.461063        12.5462 
 203   0.0000       0.466709        12.6998 
 204   0.0000       0.469507        12.7759 
 205   0.0000       0.472828        12.8663 
 206   0.0000       0.474445        12.9103 
 207   0.0000       0.479528        13.0486 
 208   0.0000       0.480320        13.0702 
 209   0.0000       0.484640        13.1877 
 210   0.0000       0.487183        13.2569 
 211   0.0000       0.488311        13.2876 
 212   0.0000       0.495742        13.4898 
 213   0.0000       0.498277        13.5588 
 214   0.0000       0.499549        13.5934 
 215   0.0000       0.505059        13.7434 
 216   0.0000       0.509482        13.8637 
 217   0.0000       0.509932        13.8760 
 218   0.0000       0.514508        14.0005 
 219   0.0000       0.516591        14.0571 
 220   0.0000       0.519886        14.1468 
 221   0.0000       0.521650        14.1948 
 222   0.0000       0.524540        14.2735 
 223   0.0000       0.527444        14.3525 
 224   0.0000       0.532163        14.4809 
 225   0.0000       0.536037        14.5863 
 226   0.0000       0.536390        14.5959 
 227   0.0000       0.541108        14.7243 
 228   0.0000       0.543790        14.7973 
 229   0.0000       0.546052        14.8588 
 230   0.0000       0.552384        15.0311 
 231   0.0000       0.554040        15.0762 
 232   0.0000       0.561215        15.2714 
 233   0.0000       0.562686        15.3115 
 234   0.0000       0.567391        15.4395 
 235   0.0000       0.570035        15.5114 
 236   0.0000       0.572541        15.5796 
 237   0.0000       0.577683        15.7196 
 238   0.0000       0.580895        15.8070 
 239   0.0000       0.581359        15.8196 
 240   0.0000       0.588006        16.0005 
 241   0.0000       0.594525        16.1778 
 242   0.0000       0.599764        16.3204 
 243   0.0000       0.601732        16.3740 
 244   0.0000       0.604080        16.4378 
 245   0.0000       0.609236        16.5781 
 246   0.0000       0.614092        16.7103 
 247   0.0000       0.616737        16.7823 
 248   0.0000       0.620411        16.8822 
 249   0.0000       0.623459        16.9652 
 250   0.0000       0.627967        17.0878 
 251   0.0000       0.630778        17.1643 
 252   0.0000       0.639856        17.4114 
 253   0.0000       0.642662        17.4877 
 254   0.0000       0.643309        17.5053 
 255   0.0000       0.646398        17.5894 
 256   0.0000       0.651525        17.7289 
 257   0.0000       0.653851        17.7922 
 258   0.0000       0.655875        17.8473 
 259   0.0000       0.658239        17.9116 
 260   0.0000       0.662379        18.0242 
 261   0.0000       0.663485        18.0543 
 262   0.0000       0.671756        18.2794 
 263   0.0000       0.675337        18.3768 
 264   0.0000       0.678106        18.4522 
 265   0.0000       0.685348        18.6493 
 266   0.0000       0.688272        18.7288 
 267   0.0000       0.689127        18.7521 
 268   0.0000       0.693029        18.8583 
 269   0.0000       0.703342        19.1389 
 270   0.0000       0.706355        19.2209 
 271   0.0000       0.712180        19.3794 
 272   0.0000       0.718536        19.5524 
 273   0.0000       0.723361        19.6836 
 274   0.0000       0.724991        19.7280 
 275   0.0000       0.730080        19.8665 
 276   0.0000       0.734052        19.9746 
 277   0.0000       0.738716        20.1015 
 278   0.0000       0.742316        20.1994 
 279   0.0000       0.746164        20.3042 
 280   0.0000       0.750098        20.4112 
 281   0.0000       0.756900        20.5963 
 282   0.0000       0.760822        20.7030 
 283   0.0000       0.763349        20.7718 
[...]
  | sigma^2 in % of trace(Dip) retained ...   2.38e+01
  | sigma^2 in % of trace(Dpq) retained ...   1.37e-01
  | Av. % of trace(Di) retained         ...  99.998532672029
  | Av. % of trace(Dp) retained         ...  99.999998965881
  | sigma^2 in % of trace(Di) retained  ...   7.04e-07
  | sigma^2 in % of trace(Dp) retained  ...   4.19e-13
 Distributions of % trace(Dij) recovered:
  |       >= 99.9  ...   105 ( 21.4 % of all IJ-pairs)
  |   [80.0, 90.0) ...    26 (  5.3 % of all IJ-pairs)
  |   [90.0, 99.0) ...   271 ( 55.2 % of all IJ-pairs)
  |   [99.0, 99.9) ...    89 ( 18.1 % of all IJ-pairs)
 Distributions of % trace(Dip) recovered:
  |   [70.0, 80.0) ...     1 (  0.8 % of all IP-pairs)
  |   [80.0, 90.0) ...    18 ( 15.0 % of all IP-pairs)
  |   [90.0, 99.0) ...    57 ( 47.5 % of all IP-pairs)
  |   [99.0, 99.9) ...    44 ( 36.7 % of all IP-pairs)
 Distributions of % trace(Dpq) recovered:
  |       >= 99.9  ...     5 ( 33.3 % of all PQ-pairs)
  |   [99.0, 99.9) ...    10 ( 66.7 % of all PQ-pairs)
 Distributions of % trace(Di) recovered :
  |       >= 99.9  ...    43 (100.0 % of all I-pairs )
 Distributions of % trace(Dp) recovered :
  |       >= 99.9  ...     5 (100.0 % of all P-pairs )

                       ===========================
                       1084 OF 1707 PAIRS ARE KEPT
                       ===========================

 Initial PAO correlation energy (all pairs)    ...  -2.6884618782 Eh
 Energy constituents in PAO basis (Eh):
  | Vijab(+0) ...  -2.2607421713
  | Viab (-1) ...  -0.1744555651
  | Vab  (-2) ...  -0.0573439947
  | Va   (-1) ...  -0.0000443403
  | Vija (+1) ...  -0.0716996007
  | Vij  (+2) ...  -0.0155296043
  | Via  (+0) ...  -0.1084845351
  | Vi   (+1) ...  -0.0001620665
 Initial PNO correlation energy                ...  -2.6535049094 Eh
 Energy constituents in PNO basis (Eh):
  | Vijab(+0) ...  -2.2415714223 (err=  0.0191707490)
  | Viab (-1) ...  -0.1603208341 (err=  0.0141347310)
  | Vab  (-2) ...  -0.0568894594 (err=  0.0004545353)
  | Va   (-1) ...  -0.0000257188 (err=  0.0000186216)
  | Vija (+1) ...  -0.0706895891 (err=  0.0010100117)
  | Vij  (+2) ...  -0.0154688629 (err=  0.0000607414)
  | Via  (+0) ...  -0.1083773656 (err=  0.0001071695)
  | Vi   (+1) ...  -0.0001616573 (err=  0.0000004092)
 Sum of total truncation errors ...   0.0349569687 Eh
  | Pair screening ...   0.0122008917 Eh
  | PNO truncation ...   0.0227560770 Eh

 UMP2 correlation energy (PAO) ...  -2.6834260577
  | alpha-alpha ...  -0.3853940400 (NP_aa=  919)
  | alpha-beta  ...  -1.9922270980 (NP_ab= 1682)
  | beta -beta  ...  -0.3058049197 (NP_bb=  730)
 UMP2 correlation energy (PNO) ...  -2.6480944324
  | alpha-alpha ...  -0.3732079218 (err=  0.0121861181, NP_aa=  578)
  | alpha-beta  ...  -1.9733179091 (err=  0.0189091890, NP_ab= 1059)
  | beta -beta  ...  -0.3015686015 (err=  0.0042363183, NP_bb=  448)
 Sum of total UMP2 truncation errors ...   0.0353316254 Eh
  | Pair screening ...   0.0122172789 Eh
  | PNO truncation ...   0.0231143465 Eh
 Timing for NEV-PNO construction (sec.)
  | Intermediate construction  ..           46.066
  | Amplitude construction     ..           63.577
  | Total time                 ..          109.643
 Making pair pair interaction lists ...      ok
 Total size for 2-ext PNO integrals ...     10.9 MB
Checking the number of SOMO/SOMO doubles PNOs ... 
 #Truncate: (72, 72)[176] -> [85] .. 
 #Truncate: (73, 73)[181] -> [85] .. 
 #Truncate: (74, 74)[179] -> [85] .. 
 #Truncate: (75, 75)[180] -> [85] .. 
 #Truncate: (76, 76)[179] -> [85] .. 

--------------------------------
LOCAL RI TRANSFORMATION (VABPAO)
--------------------------------

Number of PAOs:    1030
Basis functions:   1025 (343 shells)
Aux. functions:    2424 (644 shells)

Processing maps (0.0 sec)
Average map sizes:
   Aux shells -> PAOs           1030.0
   PAOs       -> AO shells       343.0

Calculating integrals (188.4 sec, 37370.165 MB)
Finished
-----------------------------
LOCAL RI TRANSFORMATION (IJV)
-----------------------------

Orbital window:      29 to 76
Basis functions:   1025 (343 shells)
Aux. functions:    2424 (644 shells)

Processing maps (0.0 sec)
Average map sizes:
   Aux shells -> MOs(i)           46.5
   Aux shells -> MOs(j)           48.0
   MOs        -> AO shells       340.9

Calculating integrals (22.4 sec, 41.425 MB)
Sorting integrals (0.3 sec, 41.397 MB)
Total time for the integral transformation: 22.8 sec


-------------------------------------
Pair Pair Term precalculation with     
RI-(ij|mn) and (im|jn) transformation  
ON THE FLY                             
-------------------------------------

   IBatch   1 (of   2)              ... done ( 1094.507 sec)
   IBatch   2 (of   2)              ... done (  996.831 sec)
Total EXT                           ...        2091.338 sec

---------------------
RI-PNO TRANSFORMATION
---------------------

Total Number of PNOs                   ... 33689
Total Number of IJ-PNOs                ... 29526
Total Number of IP-PNOs                ...  3210
Total Number of PQ-PNOs                ...   953
Total Number of IJ-pairs               ...   939
Total Number of PI-pairs               ...   120
Total Number of PQ-pairs               ...    25
Average number of PNOs per pair        ...    31
Maximal number of PNOs per pair        ...    85
>> Statistics for ij-pairs..
   #pairs with  1 -  5 PNOs   :    0
   #pairs with  6 - 10 PNOs   :    0
   #pairs with 11 - 15 PNOs   :   78
   #pairs with 16 - 20 PNOs   :  218
   #pairs with 21 - 25 PNOs   :  144
   #pairs with 26 - 30 PNOs   :  150
   #pairs with 31 - 35 PNOs   :   58
   #pairs with 36 - 40 PNOs   :   52
   #pairs with 41 - 45 PNOs   :   50
   #pairs with 46 - 50 PNOs   :   22
   #pairs with 51 - 55 PNOs   :   32
   #pairs with 56 - 60 PNOs   :   59
   #pairs with 61 - 65 PNOs   :   71
   #pairs with 66 - 70 PNOs   :    2
   #pairs with 71 - 75 PNOs   :    1
   #pairs with 81 - 85 PNOs   :    2
>> Statistics for ip-pairs..
   #pairs with  1 -  5 PNOs   :    0
   #pairs with  6 - 10 PNOs   :    4
   #pairs with 11 - 15 PNOs   :   16
   #pairs with 16 - 20 PNOs   :    5
   #pairs with 21 - 25 PNOs   :   27
   #pairs with 26 - 30 PNOs   :   10
   #pairs with 31 - 35 PNOs   :   44
   #pairs with 36 - 40 PNOs   :   14
   #pairs with 41 - 45 PNOs   :    0
   #pairs with 46 - 50 PNOs   :    0
>> Statistics for pq-pairs..
   #pairs with  1 -  5 PNOs   :    0
   #pairs with  6 - 10 PNOs   :    0
   #pairs with 11 - 15 PNOs   :    0
   #pairs with 16 - 20 PNOs   :    0
   #pairs with 21 - 25 PNOs   :   10
   #pairs with 26 - 30 PNOs   :   10
   #pairs with 31 - 35 PNOs   :    0
   #pairs with 36 - 40 PNOs   :    0
   #pairs with 41 - 45 PNOs   :    0
   #pairs with 46 - 50 PNOs   :    0
   #pairs with 81 - 85 PNOs   :    5

Generation of (ij|ab)[P] integrals            ... on
Generation of (ia|bc)[P],(ja|bc)[P] integrals ... on
Storage of 3 and 4 external integrals         ... on
Generation of ALL (ka|bc)[P] integrals        ... on
Keep RI integrals in memory                   ... off

Ibatch:  1 (of  1)
Starting 2-4 index PNO integral generation ... done

Timings:
Total PNO integral transformation time     ...       1960.313 sec
Size of the 3-external file                ...       282 MB
Size of the 4-external file                ...      1919 MB
Size of the IKJL file                      ...        17 MB
Size of the all 3-external file            ...      6787 MB
Size of the 1-external file                ...        21 MB

Size of the PAO/PNO coefficient matrices   ...     215.7 MB

Making pair/pair overlap matrices          ... done (  295.145 sec)
Size of the pair overlap file              ...    2371.0 MB
Total # unrestricted pairs ...       2085
  # of alpha-alpha pairs   ...        578
  # of alpha-beta pairs    ...       1059
  # of beta-beta pairs     ...        448
Constructing the guess amplitudes          ... done (    0.558 sec)

-------------------------
FINAL STARTUP INFORMATION
-------------------------

E(0)                                       ...  -3028.449352863
E(SL-UMP2 in NEV-PNO space)                ...     -2.684330749
Initial E(tot)                             ...  -3031.133683612
<T|T>                                      ...      0.533304342
Number of unrestricted pairs included      ... 2085
Total number of pairs                      ... 4095
----------------------------------------------------------
                     OPEN-SHELL COUPLED CLUSTER ITERATIONS
----------------------------------------------------------

Number of PNO amplitudes to be optimized        ...          2070596
Number of canonical amplitudes for strong pairs ...       1883162223
Untruncated number of canonical amplitudes      ...       3698645738

Iter       E(tot)           E(Corr)          Delta-E          Residual     Time
  0  -3031.140888256     -2.655299076      0.029031673      0.021081160 1533.68
                           *** Turning on DIIS ***
  1  -3031.255496487     -2.769907307     -0.114608231      0.009582330 1549.18
  2  -3031.320221867     -2.834632687     -0.064725380      0.008419461 1552.22
  3  -3031.341916929     -2.856327749     -0.021695062      0.003244210 1544.43
  4  -3031.349391345     -2.863802165     -0.007474415      0.002639443 1550.56
  5  -3031.353466579     -2.867877399     -0.004075234      0.001527905 1529.89
  6  -3031.354966251     -2.869377070     -0.001499672      0.000758287 1521.14
  7  -3031.355611400     -2.870022220     -0.000645149      0.000498102 1659.63
  8  -3031.355752152     -2.870162972     -0.000140752      0.000224924 1733.84
  9  -3031.355810994     -2.870221814     -0.000058842      0.000134513 1644.54
 10  -3031.355809965     -2.870220785      0.000001029      0.000098042 1625.19
 11  -3031.355822333     -2.870233153     -0.000012369      0.000056972 1898.55
 12  -3031.355827370     -2.870238190     -0.000005036      0.000029912 1930.11
 13  -3031.355829714     -2.870240534     -0.000002344      0.000016199 1955.82
 14  -3031.355831327     -2.870242147     -0.000001613      0.000007741 1954.54
               --- The CCSD iterations have converged ---

E(0)                                       ...  -3028.449352863
E(CORR)(strong-pairs)                      ...     -2.870242147
E(CORR)(weak-pairs)                        ...     -0.036236317
E(CORR)(corrected)                         ...     -2.906478464
E(TOT)                                     ...  -3031.355831327
Singles norm <S|S>**1/2                    ...      0.194046952 ( 0.064596638, 0.129450314)  
T1 diagnostic                              ...      0.020341648                              
<S**2>(linearized)                         ...      8.7508227 (ideal value:      8.7500000)

----------------------
LARGEST PNO AMPLITUDES
----------------------
  46a-> 78a  46b-> 78b       0.059370
  52b-> 76b  -1b-> -1b       0.054597
  51b-> 76b  -1b-> -1b       0.054056
  49b-> 72b  -1b-> -1b       0.053639
  49b-> 75b  -1b-> -1b       0.046639
  49b-> 74b  -1b-> -1b       0.046196
  56a-> 77a  56b-> 77b       0.045192
  55a-> 77a  55b-> 77b       0.044719
  42b-> 73b  -1b-> -1b       0.044533
  70a-> 77a  70b-> 77b       0.044338
  38b-> 73b  -1b-> -1b       0.044002
  64a-> 77a  64b-> 77b       0.043270
  62a-> 77a  62b-> 77b       0.043227
  69a-> 77a  69b-> 77b       0.042555
  47a-> 78a  47b-> 78b       0.042370
  35b-> 72b  -1b-> -1b       0.042339

Total # unrestricted pairs ...       1246
  # of alpha-alpha pairs   ...        341
  # of alpha-beta pairs    ...        623
  # of beta-beta pairs     ...        282

-------------------------------------------
DLPNO BASED TRIPLES CORRECTION
-------------------------------------------

Singles multiplier          ...  1.000000
Fragment selection                          .... not used
TCutTNO                     ... 1.000e-09
TCutMP2Pairs                ... 1.000e-05
TCutDOStrong                ... 2.000e-02
TCutMKNStrong               ... 1.000e-02
TCutDOWeak                  ... 4.000e-02
TCutMKNWeak                 ... 1.000e-01
NTCutTNO                    ... 1

Number of Triples that are to be computed         ...     33508

 . . . . . . . . .
10% done  
20% done  
30% done  
40% done  
50% done  
60% done  
70% done  
80% done  
90% done  
          Batch   1   done (  15536.632 sec)

Triples-Correction TCutTNO=   1.000e-09 (NWeakPairs = 0  1  2  3)  -0.116805126927   -0.001888399258    0.000000000000    0.000000000000
Triples-Correction  -0.118693526185

Triples timings:
Total time                      ... 16165.403 sec

Triples List generation         ...     0.000 sec
TNO generation                  ...   628.478 sec
Pair density generation         ...     0.095 sec
Look up tables                  ...     0.127 sec
Generating 3-index integrals    ...  9354.208 sec
Make 4-ind.int. from 3-ind.int  ...     3.642 sec
Projecting amplitudes (D + S)   ...  5907.708 sec
Sorting integrals for spin cases...    57.525 sec
Calculate W0/W1                 ...   170.457 sec
Energy contr. (sum over a,b,c)  ...    42.933 sec

Everything after 3-index        ...  6318.389 sec

Energy contribution AAA         ...    26.384 sec
Energy contribution AAB         ...   120.300 sec
Energy contribution ABB         ...   109.636 sec
Energy contribution BBB         ...    14.643 sec
prep                ...     3.425 sec
makeTTNO            ...  5846.774 sec
copyij              ...     0.143 sec
copyil              ...     4.680 sec
transposeij         ...     0.085 sec
newMatInDoubleProj  ...    60.917 sec
BlasInDoubleProj    ...  3058.546 sec
ProjSingles         ...    49.638 sec
ProjDoubles         ...  5858.069 sec
overall Doubles for projection      ... 3049829
used Doubles for projection         ... 3049829


Number of Triples   (0, 1, 2, 3 weak pairs; overall):  15517   12242       0       0  ( 27759)
Number of Atoms     (0, 1, 2, 3 weak pairs; overall):   19.4    14.0     0.0     0.0  (    29)
Number of PAOs      (0, 1, 2, 3 weak pairs; overall):  754.6   569.4     0.0     0.0  (  1025)
Number of AuxFcns   (0, 1, 2, 3 weak pairs; overall):  879.4   585.8     0.0     0.0  (  2424)
Number of TNOs (0, 1, 2, 3 weak pairs         ):   78.7    55.6     0.0     0.0
Aver. Number of NTNO, Atoms, PAOs, AuxFcns / Triples:  27759    68.5    17.0   672.9   749.9

Triples Correction (T)                     ...     -0.118693526
    alpha-alpha-alpha ... -0.003832068 (  3.2%)
    alpha-alpha-beta  ... -0.055731416 ( 47.0%)
    alpha-beta -beta  ... -0.055048797 ( 46.4%)
    beta -beta -beta  ... -0.004081246 (  3.4%)
Final correlation energy                   ...     -3.025171990
E(CCSD)                                    ...  -3031.355831327
E(CCSD(T))                                 ...  -3031.474524853

----------------------------
STATISTICS FOR PAIR-ENERGIES
----------------------------
Minimum, maximum and average ratios of UMP and CCSD pair-energies ... 0.33, 1.45, 1.02


------------------------------------------------------------------------------- 
                                     TIMINGS                                   
------------------------------------------------------------------------------- 


Total execution time                   ...    49198.432 sec

Localization of occupied MO's          ...       10.342 sec (  0.0%)
Fock Matrix Formation                  ...     1375.098 sec (  2.8%)
Differential overlap integrals         ...        1.385 sec (  0.0%)
Organizing maps                        ...        1.663 sec (  0.0%)
RI 3-index integral generations        ...      273.746 sec (  0.6%)
RI-PNO integral transformation         ...     4455.046 sec (  9.1%)
Initial Guess                          ...     1859.674 sec (  3.8%)
DIIS Solver                            ...       16.428 sec (  0.0%)
State Vector Update                    ...        0.677 sec (  0.0%)
Sigma-vector construction              ...    25183.325 sec ( 51.2%)
  <0|H|D>                              ...        0.029 sec (  0.0% of sigma)
  <D|H|D>(0-ext)                       ...     4690.234 sec ( 18.6% of sigma)
  <D|H|D>(2-ext Fock)                  ...        1.387 sec (  0.0% of sigma)
  <D|H|D>(2-ext)                       ...     3239.856 sec ( 12.9% of sigma)
  <D|H|D>(4-ext)                       ...      134.206 sec (  0.5% of sigma)
  <D|H|D>(4-ext-corr)                  ...      826.262 sec (  3.3% of sigma)
  CCSD doubles correction              ...      451.969 sec (  1.8% of sigma)
  <S|H|S>                              ...      586.739 sec (  2.3% of sigma)
  <S|H|D>(1-ext)                       ...      231.008 sec (  0.9% of sigma)
  <D|H|S>(1-ext)                       ...        0.982 sec (  0.0% of sigma)
  <S|H|D>(3-ext)                       ...       18.713 sec (  0.1% of sigma)
  CCSD singles correction              ...        0.004 sec (  0.0% of sigma)
  Fock-dressing                        ...     7331.292 sec ( 29.1% of sigma)
  Singles amplitudes                   ...       92.520 sec (  0.4% of sigma)
  (ik|jl)-dressing                     ...     5985.353 sec ( 23.8% of sigma)
  (ij|ab),(ia|jb)-dressing             ...     1333.562 sec (  5.3% of sigma)
  Pair energies                        ...        0.129 sec (  0.0% of sigma)
Total Time for computing (T)           ...    16395.585 sec ( 33.3% of ALL)


-------------------------   --------------------
FINAL SINGLE POINT ENERGY     -3031.474524853175
-------------------------   --------------------


                            ***************************************
                            *     ORCA property calculations      *
                            ***************************************

                                    ---------------------
                                    Active property flags
                                    ---------------------
   (+) Dipole Moment


------------------------------------------------------------------------------
                       ORCA ELECTRIC PROPERTIES CALCULATION
------------------------------------------------------------------------------

Dipole Moment Calculation                       ... on
Quadrupole Moment Calculation                   ... off
Polarizability Calculation                      ... off
GBWName                                         ... simple-grid-245-255-b3lyp_d3bj-631gd-gas-singlepoint-DLPNO_CCSD_T1-NormalPNO-augtz-gas.gbw
Electron density file                           ... simple-grid-245-255-b3lyp_d3bj-631gd-gas-singlepoint-DLPNO_CCSD_T1-NormalPNO-augtz-gas.scfp.tmp
The origin for moment calculation is the CENTER OF MASS  = ( 0.312845,  0.027743  0.018927)

-------------
DIPOLE MOMENT
-------------
                                X             Y             Z
Electronic contribution:     42.99313       3.10652       2.19964
Nuclear contribution   :    -46.61390      -4.13376      -2.82003
                        -----------------------------------------
Total Dipole Moment    :     -3.62077      -1.02724      -0.62039
                        -----------------------------------------
Magnitude (a.u.)       :      3.81446
Magnitude (Debye)      :      9.69558



--------------------
Rotational spectrum 
--------------------
 
Rotational constants in cm-1:     0.019154     0.010959     0.010324 
Rotational constants in MHz :   574.227624   328.539958   309.499824 

 Dipole components along the rotational axes: 
x,y,z [a.u.] :     3.614972    -1.039497    -0.633638 
x,y,z [Debye]:     9.188529    -2.642192    -1.610579 

 

Timings for individual modules:

Sum of individual times         ...    66405.546 sec (=1106.759 min)
GTO integral calculation        ...       14.920 sec (=   0.249 min)   0.0 %
SCF iterations                  ...    17170.984 sec (= 286.183 min)  25.9 %
MDCI module                     ...    49219.641 sec (= 820.327 min)  74.1 %
                             ****ORCA TERMINATED NORMALLY****
TOTAL RUN TIME: 0 days 18 hours 26 minutes 48 seconds 500 msec
