
                                 *****************
                                 * O   R   C   A *
                                 *****************

           --- An Ab Initio, DFT and Semiempirical electronic structure package ---

                  #######################################################
                  #                        -***-                        #
                  #          Department of theory and spectroscopy      #
                  #               Directorship: Frank Neese             #
                  #        Max Planck Institute fuer Kohlenforschung    #
                  #                Kaiser Wilhelm Platz 1               #
                  #                 D-45470 Muelheim/Ruhr               #
                  #                      Germany                        #
                  #                                                     #
                  #                  All rights reserved                #
                  #                        -***-                        #
                  #######################################################


                         Program Version 4.1.2  - RELEASE  -


 With contributions from (in alphabetic order):
   Daniel Aravena         : Magnetic Properties
   Michael Atanasov       : Ab Initio Ligand Field Theory
   Alexander A. Auer      : GIAO ZORA
   Ute Becker             : Parallelization
   Giovanni Bistoni       : ED, Open-shell LED
   Martin Brehm           : Molecular dynamics
   Dmytro Bykov           : SCF Hessian
   Vijay G. Chilkuri      : MRCI spin determinant printing
   Dipayan Datta          : RHF DLPNO-CCSD density
   Achintya Kumar Dutta   : EOM-CC, STEOM-CC
   Dmitry Ganyushin       : Spin-Orbit,Spin-Spin,Magnetic field MRCI
   Miquel Garcia          : C-PCM Hessian
   Yang Guo               : DLPNO-NEVPT2, CIM, IAO-localization
   Andreas Hansen         : Spin unrestricted coupled pair/coupled cluster methods
   Benjamin Helmich-Paris : CASSCF linear response (MC-RPA)
   Lee Huntington         : MR-EOM, pCC
   Robert Izsak           : Overlap fitted RIJCOSX, COSX-SCS-MP3, EOM
   Christian Kollmar      : KDIIS, OOCD, Brueckner-CCSD(T), CCSD density
   Simone Kossmann        : Meta GGA functionals, TD-DFT gradient, OOMP2, MP2 Hessian
   Martin Krupicka        : AUTO-CI
   Lucas Lang             : DCDCAS
   Dagmar Lenk            : GEPOL surface, SMD
   Dimitrios Liakos       : Extrapolation schemes; parallel MDCI
   Dimitrios Manganas     : ROCIS; embedding schemes
   Dimitrios Pantazis     : SARC Basis sets
   Taras Petrenko         : DFT Hessian,TD-DFT gradient, ASA, ECA, R-Raman, ABS, FL, XAS/XES, NRVS
   Peter Pinski           : DLPNO-MP2, DLPNO-MP2 Gradient
   Christoph Reimann      : Effective Core Potentials
   Marius Retegan         : Local ZFS, SOC
   Christoph Riplinger    : Optimizer, TS searches, QM/MM, DLPNO-CCSD(T), (RO)-DLPNO pert. Triples
   Tobias Risthaus        : Range-separated hybrids, TD-DFT gradient, RPA, STAB
   Michael Roemelt        : Restricted open shell CIS
   Masaaki Saitow         : Open-shell DLPNO
   Barbara Sandhoefer     : DKH picture change effects
   Avijit Sen             : IP-ROCIS
   Kantharuban Sivalingam : CASSCF convergence, NEVPT2, FIC-MRCI
   Bernardo de Souza      : ESD, SOC TD-DFT
   Georgi Stoychev        : AutoAux, RI-MP2 NMR
   Willem Van den Heuvel  : Paramagnetic NMR
   Boris Wezisla          : Elementary symmetry handling
   Frank Wennmohs         : Technical directorship


 We gratefully acknowledge several colleagues who have allowed us to
 interface, adapt or use parts of their codes:
   Stefan Grimme, W. Hujo, H. Kruse,             : VdW corrections, initial TS optimization,
                  C. Bannwarth                     DFT functionals, gCP, sTDA/sTD-DF
   Ed Valeev                                     : LibInt (2-el integral package), F12 methods
   Garnet Chan, S. Sharma, J. Yang, R. Olivares  : DMRG
   Ulf Ekstrom                                   : XCFun DFT Library
   Mihaly Kallay                                 : mrcc  (arbitrary order and MRCC methods)
   Andreas Klamt, Michael Diedenhofen            : otool_cosmo (COSMO solvation model)
   Jiri Pittner, Ondrej Demel                    : Mk-CCSD
   Frank Weinhold                                : gennbo (NPA and NBO analysis)
   Christopher J. Cramer and Donald G. Truhlar   : smd solvation model
   Lars Goerigk                                  : TD-DFT with DH, B97 family of functionals
   V. Asgeirsson, H. Jonsson                     : NEB implementation
   FAccTs GmbH                                   : IRC, NEB, NEB-TS, Multilevel


 Your calculation uses the libint2 library for the computation of 2-el integrals
 For citations please refer to: http://libint.valeyev.net

 This ORCA versions uses:
   CBLAS   interface :  Fast vector & matrix operations
   LAPACKE interface :  Fast linear algebra routines
   SCALAPACK package :  Parallel linear algebra routines


----- Orbital basis set information -----
Your calculation utilizes the basis: aug-cc-pVTZ 
    H, B-Ne : Obtained from the ccRepo (grant-hill.group.shef.ac.uk/ccrepo) Feb. 2017
              R. A. Kendall, T. H. Dunning, Jr., R. J. Harrison, J. Chem. Phys. 96, 6796 (1992)
         He : Obtained from the ccRepo (grant-hill.group.shef.ac.uk/ccrepo) Feb. 2017
              D. E. Woon, T. H. Dunning, Jr., J. Chem. Phys. 100, 2975 (1994)
  Li-Be, Na : Obtained from the ccRepo (grant-hill.group.shef.ac.uk/ccrepo) Feb. 2017
              B. P. Prascher, D. E. Woon, K. A. Peterson, T. H. Dunning, Jr., A. K. Wilson, Theor. Chem. Acc. 128, 69 (2011)
         Mg : Obtained from the Peterson Research Group Website (tyr0.chem.wsu.edu/~kipeters) Feb. 2017
              B. P. Prascher, D. E. Woon, K. A. Peterson, T. H. Dunning, Jr., A. K. Wilson, Theor. Chem. Acc. 128, 69 (2011)
      Al-Ar : Obtained from the ccRepo (grant-hill.group.shef.ac.uk/ccrepo) Feb. 2017
              D. E. Woon, T. H. Dunning, Jr., J. Chem. Phys. 98, 1358 (1993)
      Sc-Zn : Obtained from the ccRepo (grant-hill.group.shef.ac.uk/ccrepo) Feb. 2017
              N. B. Balabanov, K. A. Peterson, J. Chem. Phys. 123, 064107 (2005)
              N. B. Balabanov, K. A. Peterson, J. Chem. Phys. 125, 074110 (2006)
      Ga-Kr : Obtained from the ccRepo (grant-hill.group.shef.ac.uk/ccrepo) Feb. 2017
              A. K. Wilson, D. E. Woon, K. A. Peterson, T. H. Dunning, Jr., J. Chem. Phys. 110, 7667 (1999)
     Ag, Au : Obtained from the Peterson Research Group Website (tyr0.chem.wsu.edu/~kipeters) Feb. 2017
              K. A. Peterson, C. Puzzarini, Theor. Chem. Acc. 114, 283 (2005)

----- AuxJ basis set information -----
Your calculation utilizes the AutoAux generation procedure.
  G. L. Stoychev, A. A. Auer, F. Neese, J. Chem. Theory Comput. 13, 554 (2017)

----- AuxC basis set information -----
Your calculation utilizes the auxiliary basis: aug-cc-pVTZ/C 
  H-He, B-F, Al-Ar, Ga-Kr : Obtained from the EMSL Basis Set Exchange (bse.pnl.gov) Feb. 2017
                            F. Weigend, A. Kohn, C. Hattig, J. Chem. Phys. 116, 3175 (2002)
                   Be, Mg : Obtained from the TURBOMOLE 7.0 basis set library
                            C. Haettig, Phys. Chem. Chem. Phys. 7, 59 (2005)
                       Ne : Obtained from the EMSL Basis Set Exchange (bse.pnl.gov) Feb. 2017
                            C. Haettig, Phys. Chem. Chem. Phys. 7, 59 (2005)
                            F. Weigend, A. Kohn, C. Hattig, J. Chem. Phys. 116, 3175 (2002)
                    Sc-Zn : Obtained from the EMSL Basis Set Exchange (bse.pnl.gov) Feb. 2017
                            J. G. Hill, J. A. Platts, J. Chem. Phys. 128, 044104 (2008)

----- AuxJK basis set information -----
Your calculation utilizes the AutoAux generation procedure.
  G. L. Stoychev, A. A. Auer, F. Neese, J. Chem. Theory Comput. 13, 554 (2017)

================================================================================
                                        WARNINGS
                       Please study these warnings very carefully!
================================================================================


WARNING: your system is open-shell and RHF/RKS was chosen
  ===> : WILL SWITCH to UHF/UKS


WARNING: MDCI localization with Augmented Hessian Foster-Boys
  ===> : Switching off randomization!

WARNING: Post HF methods need fully converged wavefunctions
  ===> : Setting SCFConvForced true
         You can overwrite this default with %scf ConvForced false 


INFO   : the flag for use of LIBINT has been found!

================================================================================
                                       INPUT FILE
================================================================================
NAME = simple-grid-255-280-b3lyp_d3bj-631gd-gas-singlepoint-DLPNO_CCSD_T1-NormalPNO-augtz-gas.inp
|  1> ! aug-cc-pVTZ aug-cc-pVTZ/C DLPNO-CCSD(T1) TightSCF NormalPNO UNO MiniPrint AutoAux
|  2> %pal nproc 10 end
|  3> %maxcore 20000
|  4> %mdci
|  5>      density none
|  6> end
|  7> 
|  8> * xyz 0 6
|  9>  O      0.22704100      0.32575300     -0.85118500
| 10>  C      1.04149700      1.26877500     -0.66652200
| 11>  C      3.00032500      0.15512600      0.52733100
| 12>  C      2.61838700     -0.95080400     -0.14981600
| 13>  C      3.10967600     -1.23434700     -1.54139600
| 14> Fe     -1.46963400     -0.15094100      0.00754100
| 15> Cl     -2.06172400     -2.00972600     -0.95863500
| 16>  C      1.69985800     -1.99646100      0.40553100
| 17> Cl     -2.68934500      1.60457000     -0.46438700
| 18> Cl     -1.10996700     -0.34679200      2.16734400
| 19>  H      3.72513400      0.80882700      0.04274900
| 20>  H      2.23152100     -2.95468300      0.47838300
| 21>  H      1.29828900     -1.75315200      1.38846900
| 22>  H      0.85864400     -2.16540100     -0.27893900
| 23>  H      3.62389900     -2.20387200     -1.56237200
| 24>  H      2.26748700     -1.31812900     -2.24134300
| 25>  H      3.80754100     -0.47560800     -1.90548000
| 26>  C      2.78685500      0.40575500      1.99845900
| 27>  H      3.57376300     -0.09495900      2.57843500
| 28>  H      2.85053900      1.47096300      2.23796600
| 29>  H      1.82580300      0.03450600      2.36239200
| 30>  C      0.84673800      2.23022800      0.46634500
| 31>  H      1.73173800      2.84087100      0.64786800
| 32>  H      0.02471100      2.89144000      0.15336600
| 33>  H      0.52777800      1.72893400      1.37986600
| 34>  C      1.84188500      1.73303700     -1.84910900
| 35>  H      1.21604200      2.48404200     -2.35324700
| 36>  H      2.77559100      2.21673400     -1.55961300
| 37>  H      2.02195500      0.92318600     -2.55348000
| 38> *
| 39> 
| 40> 
| 41>                          ****END OF INPUT****
================================================================================

                       ****************************
                       * Single Point Calculation *
                       ****************************

---------------------------------
CARTESIAN COORDINATES (ANGSTROEM)
---------------------------------
  O      0.227041    0.325753   -0.851185
  C      1.041497    1.268775   -0.666522
  C      3.000325    0.155126    0.527331
  C      2.618387   -0.950804   -0.149816
  C      3.109676   -1.234347   -1.541396
  Fe    -1.469634   -0.150941    0.007541
  Cl    -2.061724   -2.009726   -0.958635
  C      1.699858   -1.996461    0.405531
  Cl    -2.689345    1.604570   -0.464387
  Cl    -1.109967   -0.346792    2.167344
  H      3.725134    0.808827    0.042749
  H      2.231521   -2.954683    0.478383
  H      1.298289   -1.753152    1.388469
  H      0.858644   -2.165401   -0.278939
  H      3.623899   -2.203872   -1.562372
  H      2.267487   -1.318129   -2.241343
  H      3.807541   -0.475608   -1.905480
  C      2.786855    0.405755    1.998459
  H      3.573763   -0.094959    2.578435
  H      2.850539    1.470963    2.237966
  H      1.825803    0.034506    2.362392
  C      0.846738    2.230228    0.466345
  H      1.731738    2.840871    0.647868
  H      0.024711    2.891440    0.153366
  H      0.527778    1.728934    1.379866
  C      1.841885    1.733037   -1.849109
  H      1.216042    2.484042   -2.353247
  H      2.775591    2.216734   -1.559613
  H      2.021955    0.923186   -2.553480

----------------------------
CARTESIAN COORDINATES (A.U.)
----------------------------
  NO LB      ZA    FRAG     MASS         X           Y           Z
   0 O     8.0000    0    15.999    0.429045    0.615584   -1.608507
   1 C     6.0000    0    12.011    1.968144    2.397637   -1.259544
   2 C     6.0000    0    12.011    5.669793    0.293146    0.996511
   3 C     6.0000    0    12.011    4.948034   -1.796759   -0.283111
   4 C     6.0000    0    12.011    5.876436   -2.332578   -2.912816
   5 Fe   26.0000    0    55.850   -2.777206   -0.285237    0.014250
   6 Cl   17.0000    0    35.453   -3.896094   -3.797832   -1.811558
   7 C     6.0000    0    12.011    3.212266   -3.772765    0.766343
   8 Cl   17.0000    0    35.453   -5.082126    3.032198   -0.877564
   9 Cl   17.0000    0    35.453   -2.097534   -0.655342    4.095687
  10 H     1.0000    0     1.008    7.039483    1.528462    0.080784
  11 H     1.0000    0     1.008    4.216964   -5.583542    0.904013
  12 H     1.0000    0     1.008    2.453411   -3.312977    2.623826
  13 H     1.0000    0     1.008    1.622602   -4.092015   -0.527118
  14 H     1.0000    0     1.008    6.848177   -4.164715   -2.952455
  15 H     1.0000    0     1.008    4.284929   -2.490903   -4.235524
  16 H     1.0000    0     1.008    7.195210   -0.898769   -3.600835
  17 C     6.0000    0    12.011    5.266393    0.766766    3.776540
  18 H     1.0000    0     1.008    6.753433   -0.179447    4.872536
  19 H     1.0000    0     1.008    5.386738    2.779717    4.229143
  20 H     1.0000    0     1.008    3.450268    0.065207    4.464274
  21 C     6.0000    0    12.011    1.600103    4.214520    0.881264
  22 H     1.0000    0     1.008    3.272511    5.368468    1.224293
  23 H     1.0000    0     1.008    0.046697    5.464030    0.289820
  24 H     1.0000    0     1.008    0.997356    3.267212    2.607569
  25 C     6.0000    0    12.011    3.480658    3.274965   -3.494310
  26 H     1.0000    0     1.008    2.297986    4.694159   -4.446992
  27 H     1.0000    0     1.008    5.245107    4.189020   -2.947241
  28 H     1.0000    0     1.008    3.820941    1.744569   -4.825378



           ************************************************************
           *        Program running with 10 parallel MPI-processes    *
           *              working on a common directory               *
           ************************************************************


           ************************************************************
           *        Program running with 10 parallel MPI-processes    *
           *              working on a common directory               *
           ************************************************************

Diagonalization of the overlap matrix:
Smallest eigenvalue                        ... 8.671e-07
Time for diagonalization                   ...    0.340 sec
Threshold for overlap eigenvalues          ... 1.000e-08
Number of eigenvalues below threshold      ... 0
Time for construction of square roots      ...    0.279 sec
Total time needed                          ...    0.626 sec

-------------------
DFT GRID GENERATION
-------------------

General Integration Accuracy     IntAcc      ...  4.340
Radial Grid Type                 RadialGrid  ... Gauss-Chebyshev
Angular Grid (max. acc.)         AngularGrid ... Lebedev-110
Angular grid pruning method      GridPruning ... 3 (G Style)
Weight generation scheme         WeightScheme... Becke
Basis function cutoff            BFCut       ...    1.0000e-11
Integration weight cutoff        WCut        ...    1.0000e-14
Grids for H and He will be reduced by one unit

# of grid points (after initial pruning)     ...  36112 (   0.0 sec)
# of grid points (after weights+screening)   ...  32431 (   0.1 sec)
nearest neighbour list constructed           ...    0.0 sec
Grid point re-assignment to atoms done       ...    0.0 sec
Grid point division into batches done        ...    0.0 sec
Reduced shell lists constructed in    0.3 sec

Total number of grid points                  ...    32431
Total number of batches                      ...      521
Average number of points per batch           ...       62
Average number of grid points per atom       ...     1118
Average number of shells per batch           ...   287.91 (83.94%)
Average number of basis functions per batch  ...   853.91 (83.31%)
Average number of large shells per batch     ...   233.48 (81.10%)
Average number of large basis fcns per batch ...   693.56 (81.22%)
Maximum spatial batch extension              ...   3.60,  4.47,  4.67 au
Average spatial batch extension              ...   0.19,  0.19,  0.19 au

Time for grid setup =    0.424 sec

Loading Hartree-Fock densities                     ... done
Calculating cut-offs                               ... done
Setting up the integral package                    ... done
Initializing the effective Hamiltonian             ... done
Starting the Coulomb interaction                   ... done (   1.1 sec)
Reading the grid                                   ... done
Mapping shells                                     ... done
Starting the XC term evaluation                    ... done (   0.9 sec)
Transforming the Hamiltonian                       ... done (   0.2 sec)
Diagonalizing the Hamiltonian                      ... done (   0.4 sec)
Back transforming the eigenvectors                 ... done (   0.1 sec)
Now organizing SCF variables                       ... done
--------------
SCF ITERATIONS
--------------
ITER       Energy         Delta-E        Max-DP      RMS-DP      [F,P]     Damp
               ***  Starting incremental Fock matrix formation  ***
  0  -3027.5929883303   0.000000000000 0.17850093  0.00093064  0.2466996 0.7000
  1  -3027.8456052577  -0.252616927397 0.13371278  0.00073160  0.1524877 0.7000
                               ***Turning on DIIS***
  2  -3028.0147770535  -0.169171795862 0.09388441  0.00054121  0.1094356 0.7000
  3  -3029.6050171194  -1.590240065882 0.24399980  0.00137375  0.0817510 0.0000
  4  -3028.3104030420   1.294614077469 0.04252864  0.00021654  0.0196785 0.0000
  5  -3028.4317301217  -0.121327079713 0.03950719  0.00017128  0.0109048 0.0000
  6  -3028.4781941786  -0.046464056956 0.01960425  0.00006966  0.0052489 0.0000
  7  -3028.4917405874  -0.013546408780 0.00862849  0.00003231  0.0032530 0.0000
  8  -3028.4809201780   0.010820409404 0.00632032  0.00001847  0.0015554 0.0000
  9  -3028.4766440036   0.004276174438 0.00229863  0.00001075  0.0007089 0.0000
 10  -3028.4643721027   0.012271900827 0.00092893  0.00000324  0.0004113 0.0000
 11  -3028.4700047887  -0.005632685965 0.00027217  0.00000171  0.0000799 0.0000
 12  -3028.4679943692   0.002010419466 0.00022190  0.00000130  0.0000231 0.0000
 13  -3028.4679725547   0.000021814491 0.00050356  0.00000177  0.0000088 0.0000
 14  -3028.4679903724  -0.000017817655 0.00038882  0.00000185  0.0000055 0.0000
 15  -3028.4679444652   0.000045907217 0.00060276  0.00000161  0.0000033 0.0000
 16  -3028.4679497715  -0.000005306336 0.00057738  0.00000206  0.0000028 0.0000
 17  -3028.4679659057  -0.000016134195 0.00032782  0.00000153  0.0000018 0.0000
 18  -3028.4679494733   0.000016432382 0.00073348  0.00000301  0.0000014 0.0000
                            ***DIIS convergence achieved***

               *****************************************************
               *                     SUCCESS                       *
               *           SCF CONVERGED AFTER  19 CYCLES          *
               *****************************************************

Total Energy       :        -3028.46795505 Eh          -82408.80264 eV
  Last Energy change         ...   -5.5796e-06  Tolerance :   1.0000e-08
  Last MAX-Density change    ...    6.0716e-04  Tolerance :   1.0000e-07
             **** THE GBW FILE WAS UPDATED (simple-grid-255-280-b3lyp_d3bj-631gd-gas-singlepoint-DLPNO_CCSD_T1-NormalPNO-augtz-gas.gbw) ****
             **** DENSITY FILE WAS UPDATED (simple-grid-255-280-b3lyp_d3bj-631gd-gas-singlepoint-DLPNO_CCSD_T1-NormalPNO-augtz-gas.scfp.tmp) ****
             **** ENERGY FILE WAS UPDATED (simple-grid-255-280-b3lyp_d3bj-631gd-gas-singlepoint-DLPNO_CCSD_T1-NormalPNO-augtz-gas.en.tmp) ****
----------------------
UHF SPIN CONTAMINATION
----------------------

Expectation value of <S**2>     :     8.764893
Ideal value S*(S+1) for S=2.5   :     8.750000
Deviation                       :     0.014893

----------------
ORBITAL ENERGIES
----------------
                 SPIN UP ORBITALS
  NO   OCC          E(Eh)            E(eV) 
   0   1.0000    -261.574062     -7117.7921 
   1   1.0000    -104.792818     -2851.5575 
   2   1.0000    -104.789441     -2851.4657 
   3   1.0000    -104.787539     -2851.4139 
   4   1.0000     -32.241791      -877.3437 
   5   1.0000     -27.718227      -754.2513 
   6   1.0000     -27.717158      -754.2222 
   7   1.0000     -27.716966      -754.2170 
   8   1.0000     -20.615026      -560.9634 
   9   1.0000     -11.420923      -310.7791 
  10   1.0000     -11.276473      -306.8484 
  11   1.0000     -11.273337      -306.7631 
  12   1.0000     -11.270877      -306.6962 
  13   1.0000     -11.246609      -306.0358 
  14   1.0000     -11.245857      -306.0153 
  15   1.0000     -11.238006      -305.8017 
  16   1.0000     -11.231486      -305.6243 
  17   1.0000     -10.519527      -286.2509 
  18   1.0000     -10.516127      -286.1584 
  19   1.0000     -10.514175      -286.1053 
  20   1.0000      -7.986365      -217.3200 
  21   1.0000      -7.985600      -217.2992 
  22   1.0000      -7.985553      -217.2979 
  23   1.0000      -7.983003      -217.2286 
  24   1.0000      -7.982223      -217.2073 
  25   1.0000      -7.982168      -217.2058 
  26   1.0000      -7.980967      -217.1731 
  27   1.0000      -7.980302      -217.1551 
  28   1.0000      -7.980252      -217.1537 
  29   1.0000      -4.596698      -125.0825 
  30   1.0000      -3.209805       -87.3432 
  31   1.0000      -3.208142       -87.2980 
  32   1.0000      -3.207980       -87.2936 
  33   1.0000      -1.459499       -39.7150 
  34   1.0000      -1.130587       -30.7648 
  35   1.0000      -1.099415       -29.9166 
  36   1.0000      -1.065694       -28.9990 
  37   1.0000      -1.059887       -28.8410 
  38   1.0000      -1.056964       -28.7614 
  39   1.0000      -1.023108       -27.8402 
  40   1.0000      -1.008564       -27.4444 
  41   1.0000      -0.961399       -26.1610 
  42   1.0000      -0.941276       -25.6134 
  43   1.0000      -0.925642       -25.1880 
  44   1.0000      -0.925538       -25.1852 
  45   1.0000      -0.915019       -24.8989 
  46   1.0000      -0.914333       -24.8803 
  47   1.0000      -0.899074       -24.4650 
  48   1.0000      -0.811734       -22.0884 
  49   1.0000      -0.732789       -19.9402 
  50   1.0000      -0.709661       -19.3108 
  51   1.0000      -0.699843       -19.0437 
  52   1.0000      -0.684709       -18.6319 
  53   1.0000      -0.657872       -17.9016 
  54   1.0000      -0.623893       -16.9770 
  55   1.0000      -0.621454       -16.9106 
  56   1.0000      -0.604819       -16.4580 
  57   1.0000      -0.599108       -16.3025 
  58   1.0000      -0.585454       -15.9310 
  59   1.0000      -0.577726       -15.7207 
  60   1.0000      -0.560907       -15.2631 
  61   1.0000      -0.553234       -15.0543 
  62   1.0000      -0.547430       -14.8963 
  63   1.0000      -0.542838       -14.7714 
  64   1.0000      -0.535676       -14.5765 
  65   1.0000      -0.527723       -14.3601 
  66   1.0000      -0.501636       -13.6502 
  67   1.0000      -0.495827       -13.4921 
  68   1.0000      -0.475957       -12.9514 
  69   1.0000      -0.474835       -12.9209 
  70   1.0000      -0.445505       -12.1228 
  71   1.0000      -0.439620       -11.9627 
  72   1.0000      -0.437770       -11.9123 
  73   1.0000      -0.429124       -11.6771 
  74   1.0000      -0.428132       -11.6501 
  75   1.0000      -0.426851       -11.6152 
  76   1.0000      -0.361631        -9.8405 
  77   0.0000       0.012538         0.3412 
  78   0.0000       0.023360         0.6357 
  79   0.0000       0.024032         0.6539 
  80   0.0000       0.030512         0.8303 
  81   0.0000       0.039178         1.0661 
  82   0.0000       0.041110         1.1187 
  83   0.0000       0.042851         1.1660 
  84   0.0000       0.043336         1.1792 
  85   0.0000       0.044436         1.2092 
  86   0.0000       0.056549         1.5388 
  87   0.0000       0.056948         1.5496 
  88   0.0000       0.061318         1.6686 
  89   0.0000       0.063729         1.7342 
  90   0.0000       0.064375         1.7517 
  91   0.0000       0.067866         1.8467 
  92   0.0000       0.073562         2.0017 
  93   0.0000       0.077378         2.1056 
  94   0.0000       0.082265         2.2385 
  95   0.0000       0.090405         2.4600 
  96   0.0000       0.092153         2.5076 
  97   0.0000       0.094289         2.5657 
  98   0.0000       0.097460         2.6520 
  99   0.0000       0.102238         2.7820 
 100   0.0000       0.104257         2.8370 
 101   0.0000       0.107707         2.9309 
 102   0.0000       0.116990         3.1834 
 103   0.0000       0.120958         3.2914 
 104   0.0000       0.123409         3.3581 
 105   0.0000       0.124207         3.3798 
 106   0.0000       0.125557         3.4166 
 107   0.0000       0.127433         3.4676 
 108   0.0000       0.130760         3.5582 
 109   0.0000       0.133041         3.6202 
 110   0.0000       0.135111         3.6766 
 111   0.0000       0.138130         3.7587 
 112   0.0000       0.142126         3.8674 
 113   0.0000       0.145427         3.9573 
 114   0.0000       0.149639         4.0719 
 115   0.0000       0.151444         4.1210 
 116   0.0000       0.155556         4.2329 
 117   0.0000       0.161808         4.4030 
 118   0.0000       0.162596         4.4245 
 119   0.0000       0.165358         4.4996 
 120   0.0000       0.168804         4.5934 
 121   0.0000       0.170124         4.6293 
 122   0.0000       0.174050         4.7361 
 123   0.0000       0.180874         4.9218 
 124   0.0000       0.182549         4.9674 
 125   0.0000       0.184887         5.0310 
 126   0.0000       0.186719         5.0809 
 127   0.0000       0.191088         5.1998 
 128   0.0000       0.194801         5.3008 
 129   0.0000       0.196913         5.3583 
 130   0.0000       0.198200         5.3933 
 131   0.0000       0.200748         5.4626 
 132   0.0000       0.203364         5.5338 
 133   0.0000       0.207478         5.6458 
 134   0.0000       0.211808         5.7636 
 135   0.0000       0.215869         5.8741 
 136   0.0000       0.218192         5.9373 
 137   0.0000       0.224987         6.1222 
 138   0.0000       0.226592         6.1659 
 139   0.0000       0.232224         6.3191 
 140   0.0000       0.234050         6.3688 
 141   0.0000       0.235875         6.4185 
 142   0.0000       0.238806         6.4982 
 143   0.0000       0.242100         6.5879 
 144   0.0000       0.243512         6.6263 
 145   0.0000       0.245455         6.6792 
 146   0.0000       0.252483         6.8704 
 147   0.0000       0.255081         6.9411 
 148   0.0000       0.257571         7.0089 
 149   0.0000       0.260091         7.0774 
 150   0.0000       0.261392         7.1129 
 151   0.0000       0.267006         7.2656 
 152   0.0000       0.275300         7.4913 
 153   0.0000       0.278656         7.5826 
 154   0.0000       0.280787         7.6406 
 155   0.0000       0.286712         7.8018 
 156   0.0000       0.290289         7.8992 
 157   0.0000       0.291682         7.9371 
 158   0.0000       0.295853         8.0506 
 159   0.0000       0.305502         8.3131 
 160   0.0000       0.308244         8.3877 
 161   0.0000       0.310999         8.4627 
 162   0.0000       0.317241         8.6326 
 163   0.0000       0.319123         8.6838 
 164   0.0000       0.324088         8.8189 
 165   0.0000       0.329059         8.9541 
 166   0.0000       0.331926         9.0322 
 167   0.0000       0.336219         9.1490 
 168   0.0000       0.339133         9.2283 
 169   0.0000       0.342709         9.3256 
 170   0.0000       0.344544         9.3755 
 171   0.0000       0.353129         9.6091 
 172   0.0000       0.354877         9.6567 
 173   0.0000       0.359374         9.7791 
 174   0.0000       0.359893         9.7932 
 175   0.0000       0.366537         9.9740 
 176   0.0000       0.367447         9.9987 
 177   0.0000       0.373138        10.1536 
 178   0.0000       0.376153        10.2357 
 179   0.0000       0.377393        10.2694 
 180   0.0000       0.380055        10.3418 
 181   0.0000       0.382193        10.4000 
 182   0.0000       0.382972        10.4212 
 183   0.0000       0.384406        10.4602 
 184   0.0000       0.391173        10.6444 
 185   0.0000       0.393745        10.7143 
 186   0.0000       0.397050        10.8043 
 187   0.0000       0.400850        10.9077 
 188   0.0000       0.401947        10.9375 
 189   0.0000       0.405650        11.0383 
 190   0.0000       0.408763        11.1230 
 191   0.0000       0.413208        11.2440 
 192   0.0000       0.416982        11.3467 
 193   0.0000       0.422173        11.4879 
 194   0.0000       0.424769        11.5586 
 195   0.0000       0.433541        11.7972 
 196   0.0000       0.437325        11.9002 
 197   0.0000       0.438982        11.9453 
 198   0.0000       0.442670        12.0457 
 199   0.0000       0.443933        12.0800 
 200   0.0000       0.450450        12.2574 
 201   0.0000       0.452014        12.2999 
 202   0.0000       0.455893        12.4055 
 203   0.0000       0.456792        12.4299 
 204   0.0000       0.461435        12.5563 
 205   0.0000       0.464615        12.6428 
 206   0.0000       0.467554        12.7228 
 207   0.0000       0.472777        12.8649 
 208   0.0000       0.478533        13.0215 
 209   0.0000       0.479303        13.0425 
 210   0.0000       0.486365        13.2347 
 211   0.0000       0.486919        13.2497 
 212   0.0000       0.493808        13.4372 
 213   0.0000       0.495193        13.4749 
 214   0.0000       0.498326        13.5601 
 215   0.0000       0.501783        13.6542 
 216   0.0000       0.503969        13.7137 
 217   0.0000       0.507619        13.8130 
 218   0.0000       0.510266        13.8850 
 219   0.0000       0.513858        13.9828 
 220   0.0000       0.515207        14.0195 
 221   0.0000       0.519185        14.1277 
 222   0.0000       0.523459        14.2440 
 223   0.0000       0.524709        14.2781 
 224   0.0000       0.528076        14.3697 
 225   0.0000       0.531412        14.4605 
 226   0.0000       0.533327        14.5126 
 227   0.0000       0.534739        14.5510 
 228   0.0000       0.541288        14.7292 
 229   0.0000       0.544182        14.8079 
 230   0.0000       0.544694        14.8219 
 231   0.0000       0.549525        14.9533 
 232   0.0000       0.556091        15.1320 
 233   0.0000       0.559896        15.2355 
 234   0.0000       0.561795        15.2872 
 235   0.0000       0.565680        15.3929 
 236   0.0000       0.571856        15.5610 
 237   0.0000       0.574601        15.6357 
 238   0.0000       0.575415        15.6578 
 239   0.0000       0.582577        15.8527 
 240   0.0000       0.584290        15.8993 
 241   0.0000       0.586759        15.9665 
 242   0.0000       0.590461        16.0673 
 243   0.0000       0.593135        16.1400 
 244   0.0000       0.598553        16.2875 
 245   0.0000       0.602304        16.3895 
 246   0.0000       0.605121        16.4662 
 247   0.0000       0.613348        16.6900 
 248   0.0000       0.614393        16.7185 
 249   0.0000       0.616163        16.7666 
 250   0.0000       0.619907        16.8685 
 251   0.0000       0.626914        17.0592 
 252   0.0000       0.631440        17.1824 
 253   0.0000       0.633870        17.2485 
 254   0.0000       0.636450        17.3187 
 255   0.0000       0.641783        17.4638 
 256   0.0000       0.644674        17.5425 
 257   0.0000       0.649418        17.6716 
 258   0.0000       0.651521        17.7288 
 259   0.0000       0.655011        17.8238 
 260   0.0000       0.660472        17.9724 
 261   0.0000       0.663903        18.0657 
 262   0.0000       0.667144        18.1539 
 263   0.0000       0.672670        18.3043 
 264   0.0000       0.674498        18.3540 
 265   0.0000       0.679014        18.4769 
 266   0.0000       0.684961        18.6387 
 267   0.0000       0.689044        18.7498 
 268   0.0000       0.693699        18.8765 
 269   0.0000       0.695801        18.9337 
 270   0.0000       0.702925        19.1276 
 271   0.0000       0.707615        19.2552 
 272   0.0000       0.710049        19.3214 
 273   0.0000       0.713832        19.4243 
 274   0.0000       0.717779        19.5318 
 275   0.0000       0.722839        19.6694 
 276   0.0000       0.728926        19.8351 
 277   0.0000       0.732931        19.9441 
 278   0.0000       0.734938        19.9987 
 279   0.0000       0.741555        20.1787 
 280   0.0000       0.746529        20.3141 
 281   0.0000       0.747437        20.3388 
 282   0.0000       0.759113        20.6565 
 283   0.0000       0.760535        20.6952 
 284   0.0000       0.764478        20.8025 
 285   0.0000       0.779195        21.2030 
 286   0.0000       0.780206        21.2305 
 287   0.0000       0.786759        21.4088 
 288   0.0000       0.798343        21.7240 
 289   0.0000       0.801674        21.8147 
 290   0.0000       0.812171        22.1003 
 291   0.0000       0.814898        22.1745 
 292   0.0000       0.821661        22.3585 
 293   0.0000       0.824250        22.4290 
 294   0.0000       0.832729        22.6597 
 295   0.0000       0.835802        22.7433 
 296   0.0000       0.842802        22.9338 
 297   0.0000       0.845898        23.0181 
 298   0.0000       0.853219        23.2173 
 299   0.0000       0.855432        23.2775 
 300   0.0000       0.858617        23.3642 
 301   0.0000       0.860715        23.4212 
 302   0.0000       0.864311        23.5191 
 303   0.0000       0.875099        23.8126 
 304   0.0000       0.879134        23.9225 
 305   0.0000       0.885279        24.0897 
 306   0.0000       0.886841        24.1322 
 307   0.0000       0.891252        24.2522 
 308   0.0000       0.899032        24.4639 
 309   0.0000       0.905550        24.6413 
 310   0.0000       0.910325        24.7712 
 311   0.0000       0.914655        24.8890 
 312   0.0000       0.916824        24.9480 
 313   0.0000       0.918131        24.9836 
 314   0.0000       0.921597        25.0779 
 315   0.0000       0.927465        25.2376 
 316   0.0000       0.931289        25.3417 
 317   0.0000       0.934113        25.4185 
 318   0.0000       0.941479        25.6190 
 319   0.0000       0.942017        25.6336 
 320   0.0000       0.944137        25.6913 
 321   0.0000       0.948421        25.8078 
 322   0.0000       0.951433        25.8898 
 323   0.0000       0.954153        25.9638 
 324   0.0000       0.957739        26.0614 
 325   0.0000       0.959361        26.1056 
 326   0.0000       0.968105        26.3435 
 327   0.0000       0.970546        26.4099 
 328   0.0000       0.974707        26.5231 
 329   0.0000       0.975152        26.5352 
 330   0.0000       0.977411        26.5967 
 331   0.0000       0.981567        26.7098 
 332   0.0000       0.984560        26.7912 
 333   0.0000       0.988331        26.8939 
 334   0.0000       0.991629        26.9836 
 335   0.0000       0.997361        27.1396 
 336   0.0000       1.006345        27.3840 
 337   0.0000       1.006708        27.3939 
 338   0.0000       1.012155        27.5421 
 339   0.0000       1.014769        27.6133 
 340   0.0000       1.018224        27.7073 
 341   0.0000       1.022227        27.8162 
 342   0.0000       1.023128        27.8407 
 343   0.0000       1.028400        27.9842 
 344   0.0000       1.031484        28.0681 
 345   0.0000       1.032331        28.0911 
 346   0.0000       1.039133        28.2762 
 347   0.0000       1.041278        28.3346 
 348   0.0000       1.045417        28.4472 
 349   0.0000       1.048191        28.5227 
 350   0.0000       1.051204        28.6047 
 351   0.0000       1.053879        28.6775 
 352   0.0000       1.058136        28.7933 
 353   0.0000       1.064242        28.9595 
 354   0.0000       1.065513        28.9941 
 355   0.0000       1.070633        29.1334 
 356   0.0000       1.076562        29.2947 
 357   0.0000       1.082117        29.4459 
 358   0.0000       1.085111        29.5274 
 359   0.0000       1.087180        29.5837 
 360   0.0000       1.089249        29.6400 
 361   0.0000       1.093317        29.7507 
 362   0.0000       1.100884        29.9566 
 363   0.0000       1.104143        30.0453 
 364   0.0000       1.106253        30.1027 
 365   0.0000       1.110120        30.2079 
 366   0.0000       1.116752        30.3884 
 367   0.0000       1.119315        30.4581 
 368   0.0000       1.124579        30.6014 
 369   0.0000       1.126757        30.6606 
 370   0.0000       1.133629        30.8476 
 371   0.0000       1.137083        30.9416 
 372   0.0000       1.142680        31.0939 
 373   0.0000       1.144061        31.1315 
 374   0.0000       1.147679        31.2299 
 375   0.0000       1.153850        31.3978 
 376   0.0000       1.156463        31.4689 
 377   0.0000       1.162254        31.6265 
 378   0.0000       1.167404        31.7667 
 379   0.0000       1.175873        31.9971 
 380   0.0000       1.179117        32.0854 
 381   0.0000       1.184349        32.2278 
 382   0.0000       1.187275        32.3074 
 383   0.0000       1.193383        32.4736 
 384   0.0000       1.195188        32.5227 
 385   0.0000       1.202278        32.7156 
 386   0.0000       1.204721        32.7821 
 387   0.0000       1.209124        32.9019 
 388   0.0000       1.213996        33.0345 
 389   0.0000       1.221756        33.2457 
 390   0.0000       1.222720        33.2719 
 391   0.0000       1.231133        33.5008 
 392   0.0000       1.233709        33.5709 
 393   0.0000       1.239824        33.7373 
 394   0.0000       1.243456        33.8362 
 395   0.0000       1.247103        33.9354 
 396   0.0000       1.250949        34.0401 
 397   0.0000       1.258505        34.2457 
 398   0.0000       1.264996        34.4223 
 399   0.0000       1.265795        34.4440 
 400   0.0000       1.269845        34.5542 
 401   0.0000       1.273266        34.6473 
 402   0.0000       1.280563        34.8459 
 403   0.0000       1.285770        34.9876 
 404   0.0000       1.288969        35.0746 
 405   0.0000       1.296962        35.2921 
 406   0.0000       1.303018        35.4569 
 407   0.0000       1.307238        35.5718 
 408   0.0000       1.310722        35.6666 
 409   0.0000       1.312414        35.7126 
 410   0.0000       1.312958        35.7274 
 411   0.0000       1.322184        35.9785 
 412   0.0000       1.324160        36.0322 
 413   0.0000       1.327065        36.1113 
 414   0.0000       1.337300        36.3898 
 415   0.0000       1.342287        36.5255 
 416   0.0000       1.346859        36.6499 
 417   0.0000       1.356331        36.9077 
 418   0.0000       1.362804        37.0838 
 419   0.0000       1.369519        37.2665 
 420   0.0000       1.374755        37.4090 
 421   0.0000       1.379588        37.5405 
 422   0.0000       1.382243        37.6128 
 423   0.0000       1.386204        37.7205 
 424   0.0000       1.388420        37.7808 
 425   0.0000       1.394922        37.9578 
 426   0.0000       1.398605        38.0580 
 427   0.0000       1.406049        38.2605 
 428   0.0000       1.412328        38.4314 
 429   0.0000       1.418959        38.6118 
 430   0.0000       1.421080        38.6695 
 431   0.0000       1.432205        38.9723 
 432   0.0000       1.434277        39.0287 
 433   0.0000       1.440288        39.1922 
 434   0.0000       1.445805        39.3424 
 435   0.0000       1.456888        39.6439 
 436   0.0000       1.459349        39.7109 
 437   0.0000       1.465151        39.8688 
 438   0.0000       1.469978        40.0001 
 439   0.0000       1.476313        40.1725 
 440   0.0000       1.477868        40.2148 
 441   0.0000       1.482080        40.3295 
 442   0.0000       1.484482        40.3948 
 443   0.0000       1.492483        40.6125 
 444   0.0000       1.494893        40.6781 
 445   0.0000       1.498288        40.7705 
 446   0.0000       1.503710        40.9180 
 447   0.0000       1.508753        41.0553 
 448   0.0000       1.514427        41.2097 
 449   0.0000       1.519527        41.3484 
 450   0.0000       1.524576        41.4858 
 451   0.0000       1.531793        41.6822 
 452   0.0000       1.535442        41.7815 
 453   0.0000       1.539368        41.8883 
 454   0.0000       1.546607        42.0853 
 455   0.0000       1.552722        42.2517 
 456   0.0000       1.556902        42.3655 
 457   0.0000       1.565745        42.6061 
 458   0.0000       1.572078        42.7784 
 459   0.0000       1.574454        42.8431 
 460   0.0000       1.577106        42.9152 
 461   0.0000       1.583324        43.0844 
 462   0.0000       1.591052        43.2947 
 463   0.0000       1.596713        43.4488 
 464   0.0000       1.601597        43.5817 
 465   0.0000       1.601941        43.5910 
 466   0.0000       1.607578        43.7444 
 467   0.0000       1.615510        43.9603 
 468   0.0000       1.621189        44.1148 
 469   0.0000       1.628140        44.3039 
 470   0.0000       1.628711        44.3195 
 471   0.0000       1.637008        44.5453 
 472   0.0000       1.643857        44.7316 
 473   0.0000       1.650274        44.9062 
 474   0.0000       1.656051        45.0634 
 475   0.0000       1.659672        45.1620 
 476   0.0000       1.670443        45.4551 
 477   0.0000       1.672473        45.5103 
 478   0.0000       1.678812        45.6828 
 479   0.0000       1.684100        45.8267 
 480   0.0000       1.689770        45.9810 
 481   0.0000       1.696922        46.1756 
 482   0.0000       1.702483        46.3269 
 483   0.0000       1.707672        46.4681 
 484   0.0000       1.711356        46.5684 
 485   0.0000       1.713468        46.6258 
 486   0.0000       1.723849        46.9083 
 487   0.0000       1.728131        47.0248 
 488   0.0000       1.732075        47.1322 
 489   0.0000       1.735540        47.2265 
 490   0.0000       1.737159        47.2705 
 491   0.0000       1.747851        47.5614 
 492   0.0000       1.753595        47.7177 
 493   0.0000       1.758271        47.8450 
 494   0.0000       1.760766        47.9129 
 495   0.0000       1.767306        48.0908 
 496   0.0000       1.768809        48.1317 
 497   0.0000       1.769381        48.1473 
 498   0.0000       1.780247        48.4430 
 499   0.0000       1.784721        48.5647 
 500   0.0000       1.792211        48.7685 
 501   0.0000       1.800005        48.9806 
 502   0.0000       1.806194        49.1490 
 503   0.0000       1.806843        49.1667 
 504   0.0000       1.808454        49.2105 
 505   0.0000       1.821852        49.5751 
 506   0.0000       1.824951        49.6595 
 507   0.0000       1.830248        49.8036 
 508   0.0000       1.836861        49.9835 
 509   0.0000       1.838243        50.0211 
 510   0.0000       1.844779        50.1990 
 511   0.0000       1.851487        50.3815 
 512   0.0000       1.855540        50.4918 
 513   0.0000       1.860647        50.6308 
 514   0.0000       1.866381        50.7868 
 515   0.0000       1.867774        50.8247 
 516   0.0000       1.872333        50.9488 
 517   0.0000       1.882179        51.2167 
 518   0.0000       1.886574        51.3363 
 519   0.0000       1.889847        51.4254 
 520   0.0000       1.893665        51.5292 
 521   0.0000       1.898615        51.6639 
 522   0.0000       1.910205        51.9793 
 523   0.0000       1.912105        52.0310 
 524   0.0000       1.918962        52.2176 
 525   0.0000       1.921418        52.2844 
 526   0.0000       1.929446        52.5029 
 527   0.0000       1.933888        52.6238 
 528   0.0000       1.936850        52.7044 
 529   0.0000       1.942627        52.8616 
 530   0.0000       1.948360        53.0176 
 531   0.0000       1.953598        53.1601 
 532   0.0000       1.958246        53.2866 
 533   0.0000       1.963790        53.4374 
 534   0.0000       1.968686        53.5707 
 535   0.0000       1.979675        53.8697 
 536   0.0000       1.984429        53.9991 
 537   0.0000       1.993703        54.2514 
 538   0.0000       1.995091        54.2892 
 539   0.0000       2.004556        54.5468 
 540   0.0000       2.009103        54.6705 
 541   0.0000       2.017914        54.9102 
 542   0.0000       2.021093        54.9967 
 543   0.0000       2.029364        55.2218 
 544   0.0000       2.034236        55.3544 
 545   0.0000       2.042214        55.5715 
 546   0.0000       2.048124        55.7323 
 547   0.0000       2.051849        55.8337 
 548   0.0000       2.056489        55.9599 
 549   0.0000       2.063240        56.1436 
 550   0.0000       2.070995        56.3546 
 551   0.0000       2.077762        56.5388 
 552   0.0000       2.091958        56.9251 
 553   0.0000       2.098954        57.1154 
 554   0.0000       2.106746        57.3275 
 555   0.0000       2.112210        57.4762 
 556   0.0000       2.113551        57.5126 
 557   0.0000       2.122114        57.7457 
 558   0.0000       2.130886        57.9844 
 559   0.0000       2.135205        58.1019 
 560   0.0000       2.141791        58.2811 
 561   0.0000       2.147921        58.4479 
 562   0.0000       2.159406        58.7604 
 563   0.0000       2.160990        58.8035 
 564   0.0000       2.164170        58.8900 
 565   0.0000       2.173602        59.1467 
 566   0.0000       2.181773        59.3691 
 567   0.0000       2.187564        59.5267 
 568   0.0000       2.195986        59.7558 
 569   0.0000       2.202237        59.9259 
 570   0.0000       2.208502        60.0964 
 571   0.0000       2.212956        60.2176 
 572   0.0000       2.222542        60.4784 
 573   0.0000       2.230780        60.7026 
 574   0.0000       2.234014        60.7906 
 575   0.0000       2.241869        61.0044 
 576   0.0000       2.256939        61.4144 
 577   0.0000       2.258690        61.4621 
 578   0.0000       2.264587        61.6226 
 579   0.0000       2.269580        61.7584 
 580   0.0000       2.282175        62.1011 
 581   0.0000       2.289340        62.2961 
 582   0.0000       2.291224        62.3474 
 583   0.0000       2.298581        62.5476 
 584   0.0000       2.316852        63.0447 
 585   0.0000       2.321772        63.1786 
 586   0.0000       2.326599        63.3100 
 587   0.0000       2.334009        63.5116 
 588   0.0000       2.345500        63.8243 
 589   0.0000       2.350708        63.9660 
 590   0.0000       2.355945        64.1085 
 591   0.0000       2.361594        64.2622 
 592   0.0000       2.377792        64.7030 
 593   0.0000       2.387402        64.9645 
 594   0.0000       2.392681        65.1081 
 595   0.0000       2.399412        65.2913 
 596   0.0000       2.404755        65.4367 
 597   0.0000       2.411325        65.6155 
 598   0.0000       2.416126        65.7461 
 599   0.0000       2.424254        65.9673 
 600   0.0000       2.434402        66.2434 
 601   0.0000       2.444470        66.5174 
 602   0.0000       2.449488        66.6540 
 603   0.0000       2.453029        66.7503 
 604   0.0000       2.465787        67.0975 
 605   0.0000       2.477851        67.4258 
 606   0.0000       2.485977        67.6469 
 607   0.0000       2.502273        68.0903 
 608   0.0000       2.507484        68.2321 
 609   0.0000       2.517134        68.4947 
 610   0.0000       2.528328        68.7993 
 611   0.0000       2.543713        69.2180 
 612   0.0000       2.555230        69.5313 
 613   0.0000       2.556894        69.5766 
 614   0.0000       2.571148        69.9645 
 615   0.0000       2.584177        70.3190 
 616   0.0000       2.598478        70.7082 
 617   0.0000       2.607593        70.9562 
 618   0.0000       2.634207        71.6804 
 619   0.0000       2.642692        71.9113 
 620   0.0000       2.650530        72.1246 
 621   0.0000       2.657615        72.3174 
 622   0.0000       2.668712        72.6194 
 623   0.0000       2.673819        72.7583 
 624   0.0000       2.674811        72.7853 
 625   0.0000       2.695477        73.3476 
 626   0.0000       2.695599        73.3510 
 627   0.0000       2.703230        73.5586 
 628   0.0000       2.717217        73.9392 
 629   0.0000       2.727516        74.2195 
 630   0.0000       2.729847        74.2829 
 631   0.0000       2.746658        74.7404 
 632   0.0000       2.755879        74.9913 
 633   0.0000       2.766649        75.2843 
 634   0.0000       2.771449        75.4150 
 635   0.0000       2.780962        75.6738 
 636   0.0000       2.790562        75.9350 
 637   0.0000       2.794042        76.0298 
 638   0.0000       2.801003        76.2192 
 639   0.0000       2.822639        76.8079 
 640   0.0000       2.832146        77.0666 
 641   0.0000       2.851326        77.5885 
 642   0.0000       2.855307        77.6969 
 643   0.0000       2.869484        78.0826 
 644   0.0000       2.885508        78.5187 
 645   0.0000       2.892005        78.6955 
 646   0.0000       2.902607        78.9840 
 647   0.0000       2.915235        79.3276 
 648   0.0000       2.922749        79.5321 
 649   0.0000       2.934168        79.8428 
 650   0.0000       2.945178        80.1424 
 651   0.0000       2.957973        80.4905 
 652   0.0000       2.980851        81.1131 
 653   0.0000       3.001841        81.6843 
 654   0.0000       3.018075        82.1260 
 655   0.0000       3.027150        82.3729 
 656   0.0000       3.034974        82.5858 
 657   0.0000       3.057191        83.1904 
 658   0.0000       3.073951        83.6465 
 659   0.0000       3.088727        84.0485 
 660   0.0000       3.091992        84.1374 
 661   0.0000       3.104592        84.4802 
 662   0.0000       3.122588        84.9699 
 663   0.0000       3.139362        85.4264 
 664   0.0000       3.158261        85.9407 
 665   0.0000       3.168140        86.2095 
 666   0.0000       3.176186        86.4284 
 667   0.0000       3.189161        86.7815 
 668   0.0000       3.204871        87.2090 
 669   0.0000       3.209656        87.3392 
 670   0.0000       3.216996        87.5389 
 671   0.0000       3.224185        87.7345 
 672   0.0000       3.237863        88.1067 
 673   0.0000       3.249902        88.4343 
 674   0.0000       3.256634        88.6175 
 675   0.0000       3.265440        88.8571 
 676   0.0000       3.271976        89.0350 
 677   0.0000       3.279313        89.2346 
 678   0.0000       3.290014        89.5258 
 679   0.0000       3.296716        89.7082 
 680   0.0000       3.309090        90.0449 
 681   0.0000       3.319713        90.3340 
 682   0.0000       3.331840        90.6640 
 683   0.0000       3.336242        90.7837 
 684   0.0000       3.342817        90.9627 
 685   0.0000       3.354570        91.2825 
 686   0.0000       3.367768        91.6416 
 687   0.0000       3.390376        92.2568 
 688   0.0000       3.394933        92.3808 
 689   0.0000       3.403198        92.6057 
 690   0.0000       3.422395        93.1281 
 691   0.0000       3.431340        93.3715 
 692   0.0000       3.435526        93.4854 
 693   0.0000       3.439767        93.6008 
 694   0.0000       3.448308        93.8332 
 695   0.0000       3.460903        94.1760 
 696   0.0000       3.472107        94.4808 
 697   0.0000       3.484267        94.8117 
 698   0.0000       3.486326        94.8677 
 699   0.0000       3.495364        95.1137 
 700   0.0000       3.495964        95.1300 
 701   0.0000       3.506703        95.4222 
 702   0.0000       3.514642        95.6383 
 703   0.0000       3.525816        95.9423 
 704   0.0000       3.531165        96.0879 
 705   0.0000       3.537995        96.2737 
 706   0.0000       3.545330        96.4733 
 707   0.0000       3.558664        96.8362 
 708   0.0000       3.568335        97.0993 
 709   0.0000       3.570655        97.1625 
 710   0.0000       3.580325        97.4256 
 711   0.0000       3.585504        97.5665 
 712   0.0000       3.595160        97.8293 
 713   0.0000       3.607617        98.1683 
 714   0.0000       3.615362        98.3790 
 715   0.0000       3.625311        98.6497 
 716   0.0000       3.635764        98.9342 
 717   0.0000       3.645598        99.2018 
 718   0.0000       3.658925        99.5644 
 719   0.0000       3.660728        99.6135 
 720   0.0000       3.671851        99.9161 
 721   0.0000       3.676021       100.0296 
 722   0.0000       3.681241       100.1717 
 723   0.0000       3.684447       100.2589 
 724   0.0000       3.696958       100.5993 
 725   0.0000       3.698121       100.6310 
 726   0.0000       3.709920       100.9521 
 727   0.0000       3.717322       101.1535 
 728   0.0000       3.723390       101.3186 
 729   0.0000       3.729373       101.4814 
 730   0.0000       3.745428       101.9183 
 731   0.0000       3.751293       102.0779 
 732   0.0000       3.754843       102.1745 
 733   0.0000       3.760027       102.3155 
 734   0.0000       3.765374       102.4610 
 735   0.0000       3.777552       102.7924 
 736   0.0000       3.778522       102.8188 
 737   0.0000       3.792772       103.2066 
 738   0.0000       3.799258       103.3831 
 739   0.0000       3.805075       103.5414 
 740   0.0000       3.817977       103.8924 
 741   0.0000       3.820276       103.9550 
 742   0.0000       3.822670       104.0201 
 743   0.0000       3.832896       104.2984 
 744   0.0000       3.835359       104.3654 
 745   0.0000       3.842767       104.5670 
 746   0.0000       3.857761       104.9750 
 747   0.0000       3.869307       105.2892 
 748   0.0000       3.876879       105.4952 
 749   0.0000       3.885649       105.7339 
 750   0.0000       3.886107       105.7463 
 751   0.0000       3.889295       105.8331 
 752   0.0000       3.893351       105.9435 
 753   0.0000       3.907770       106.3358 
 754   0.0000       3.911666       106.4418 
 755   0.0000       3.920008       106.6688 
 756   0.0000       3.922275       106.7305 
 757   0.0000       3.935420       107.0882 
 758   0.0000       3.939335       107.1948 
 759   0.0000       3.950221       107.4910 
 760   0.0000       3.952379       107.5497 
 761   0.0000       3.960171       107.7617 
 762   0.0000       3.961890       107.8085 
 763   0.0000       3.976289       108.2003 
 764   0.0000       3.977201       108.2251 
 765   0.0000       3.991078       108.6027 
 766   0.0000       3.992066       108.6296 
 767   0.0000       4.000308       108.8539 
 768   0.0000       4.006051       109.0102 
 769   0.0000       4.017678       109.3266 
 770   0.0000       4.023062       109.4731 
 771   0.0000       4.028351       109.6170 
 772   0.0000       4.037886       109.8765 
 773   0.0000       4.040613       109.9507 
 774   0.0000       4.051636       110.2506 
 775   0.0000       4.056656       110.3872 
 776   0.0000       4.062212       110.5384 
 777   0.0000       4.071950       110.8034 
 778   0.0000       4.079839       111.0181 
 779   0.0000       4.095705       111.4498 
 780   0.0000       4.102369       111.6311 
 781   0.0000       4.108806       111.8063 
 782   0.0000       4.117998       112.0564 
 783   0.0000       4.126648       112.2918 
 784   0.0000       4.129201       112.3613 
 785   0.0000       4.130793       112.4046 
 786   0.0000       4.142926       112.7348 
 787   0.0000       4.150158       112.9315 
 788   0.0000       4.156449       113.1027 
 789   0.0000       4.166013       113.3630 
 790   0.0000       4.173555       113.5682 
 791   0.0000       4.184962       113.8786 
 792   0.0000       4.189249       113.9953 
 793   0.0000       4.199423       114.2721 
 794   0.0000       4.216276       114.7307 
 795   0.0000       4.221800       114.8810 
 796   0.0000       4.227752       115.0430 
 797   0.0000       4.233618       115.2026 
 798   0.0000       4.239574       115.3647 
 799   0.0000       4.251485       115.6888 
 800   0.0000       4.266372       116.0939 
 801   0.0000       4.279147       116.4415 
 802   0.0000       4.285023       116.6014 
 803   0.0000       4.296292       116.9081 
 804   0.0000       4.309247       117.2606 
 805   0.0000       4.313887       117.3868 
 806   0.0000       4.319437       117.5378 
 807   0.0000       4.331286       117.8603 
 808   0.0000       4.336946       118.0143 
 809   0.0000       4.345034       118.2344 
 810   0.0000       4.356230       118.5391 
 811   0.0000       4.364526       118.7648 
 812   0.0000       4.371150       118.9450 
 813   0.0000       4.382352       119.2499 
 814   0.0000       4.395995       119.6211 
 815   0.0000       4.401285       119.7651 
 816   0.0000       4.410304       120.0105 
 817   0.0000       4.428956       120.5180 
 818   0.0000       4.431584       120.5895 
 819   0.0000       4.436643       120.7272 
 820   0.0000       4.453897       121.1967 
 821   0.0000       4.461294       121.3980 
 822   0.0000       4.468995       121.6075 
 823   0.0000       4.487260       122.1046 
 824   0.0000       4.494021       122.2885 
 825   0.0000       4.505472       122.6001 
 826   0.0000       4.506838       122.6373 
 827   0.0000       4.512916       122.8027 
 828   0.0000       4.520888       123.0196 
 829   0.0000       4.529412       123.2516 
 830   0.0000       4.532393       123.3327 
 831   0.0000       4.546239       123.7095 
 832   0.0000       4.552290       123.8741 
 833   0.0000       4.561646       124.1287 
 834   0.0000       4.569805       124.3507 
 835   0.0000       4.598430       125.1296 
 836   0.0000       4.605723       125.3281 
 837   0.0000       4.612757       125.5195 
 838   0.0000       4.629082       125.9637 
 839   0.0000       4.636787       126.1734 
 840   0.0000       4.643816       126.3646 
 841   0.0000       4.662568       126.8749 
 842   0.0000       4.664593       126.9300 
 843   0.0000       4.673169       127.1634 
 844   0.0000       4.685058       127.4869 
 845   0.0000       4.697748       127.8322 
 846   0.0000       4.713938       128.2728 
 847   0.0000       4.715693       128.3205 
 848   0.0000       4.723051       128.5207 
 849   0.0000       4.726981       128.6277 
 850   0.0000       4.756531       129.4318 
 851   0.0000       4.775560       129.9496 
 852   0.0000       4.778054       130.0175 
 853   0.0000       4.786857       130.2570 
 854   0.0000       4.810592       130.9029 
 855   0.0000       4.822735       131.2333 
 856   0.0000       4.829804       131.4257 
 857   0.0000       4.835401       131.5779 
 858   0.0000       4.838130       131.6522 
 859   0.0000       4.870428       132.5311 
 860   0.0000       4.874309       132.6367 
 861   0.0000       4.894571       133.1880 
 862   0.0000       4.900004       133.3359 
 863   0.0000       4.906748       133.5194 
 864   0.0000       4.915439       133.7559 
 865   0.0000       4.925475       134.0290 
 866   0.0000       4.935719       134.3077 
 867   0.0000       4.950494       134.7098 
 868   0.0000       4.964926       135.1025 
 869   0.0000       4.973891       135.3465 
 870   0.0000       4.990019       135.7853 
 871   0.0000       4.996124       135.9515 
 872   0.0000       4.999012       136.0300 
 873   0.0000       5.014247       136.4446 
 874   0.0000       5.021105       136.6312 
 875   0.0000       5.040178       137.1502 
 876   0.0000       5.045845       137.3044 
 877   0.0000       5.053293       137.5071 
 878   0.0000       5.069206       137.9401 
 879   0.0000       5.073941       138.0690 
 880   0.0000       5.094673       138.6331 
 881   0.0000       5.110631       139.0674 
 882   0.0000       5.117851       139.2638 
 883   0.0000       5.126131       139.4891 
 884   0.0000       5.133349       139.6855 
 885   0.0000       5.158672       140.3746 
 886   0.0000       5.169602       140.6720 
 887   0.0000       5.184484       141.0770 
 888   0.0000       5.190455       141.2395 
 889   0.0000       5.205954       141.6612 
 890   0.0000       5.221886       142.0948 
 891   0.0000       5.225373       142.1896 
 892   0.0000       5.240818       142.6099 
 893   0.0000       5.260505       143.1456 
 894   0.0000       5.264555       143.2558 
 895   0.0000       5.269710       143.3961 
 896   0.0000       5.283832       143.7804 
 897   0.0000       5.294309       144.0655 
 898   0.0000       5.314638       144.6187 
 899   0.0000       5.317736       144.7030 
 900   0.0000       5.338004       145.2545 
 901   0.0000       5.351268       145.6154 
 902   0.0000       5.365379       145.9994 
 903   0.0000       5.379178       146.3749 
 904   0.0000       5.390058       146.6709 
 905   0.0000       5.402921       147.0209 
 906   0.0000       5.414514       147.3364 
 907   0.0000       5.437567       147.9637 
 908   0.0000       5.444169       148.1434 
 909   0.0000       5.446496       148.2067 
 910   0.0000       5.453654       148.4015 
 911   0.0000       5.466353       148.7470 
 912   0.0000       5.471593       148.8896 
 913   0.0000       5.485101       149.2572 
 914   0.0000       5.511389       149.9725 
 915   0.0000       5.523943       150.3141 
 916   0.0000       5.530569       150.4944 
 917   0.0000       5.551545       151.0652 
 918   0.0000       5.564220       151.4101 
 919   0.0000       5.572978       151.6484 
 920   0.0000       5.585477       151.9886 
 921   0.0000       5.591790       152.1603 
 922   0.0000       5.605048       152.5211 
 923   0.0000       5.617380       152.8567 
 924   0.0000       5.623192       153.0148 
 925   0.0000       5.640849       153.4953 
 926   0.0000       5.652720       153.8183 
 927   0.0000       5.658220       153.9680 
 928   0.0000       5.664699       154.1443 
 929   0.0000       5.681993       154.6149 
 930   0.0000       5.708220       155.3286 
 931   0.0000       5.709431       155.3615 
 932   0.0000       5.725460       155.7977 
 933   0.0000       5.738421       156.1504 
 934   0.0000       5.743476       156.2879 
 935   0.0000       5.758113       156.6862 
 936   0.0000       5.770423       157.0212 
 937   0.0000       5.780501       157.2954 
 938   0.0000       5.797562       157.7597 
 939   0.0000       5.805095       157.9647 
 940   0.0000       5.826442       158.5455 
 941   0.0000       5.864043       159.5687 
 942   0.0000       5.872698       159.8042 
 943   0.0000       5.905619       160.7001 
 944   0.0000       5.930960       161.3896 
 945   0.0000       5.988970       162.9682 
 946   0.0000       6.056083       164.7944 
 947   0.0000       6.078069       165.3927 
 948   0.0000       6.099343       165.9716 
 949   0.0000       6.113366       166.3531 
 950   0.0000       6.148235       167.3020 
 951   0.0000       6.152625       167.4214 
 952   0.0000       6.182802       168.2426 
 953   0.0000       6.198775       168.6772 
 954   0.0000       6.211191       169.0151 
 955   0.0000       6.230389       169.5375 
 956   0.0000       6.242087       169.8558 
 957   0.0000       6.258418       170.3002 
 958   0.0000       6.266305       170.5148 
 959   0.0000       6.277611       170.8225 
 960   0.0000       6.294562       171.2837 
 961   0.0000       6.310216       171.7097 
 962   0.0000       6.324759       172.1054 
 963   0.0000       6.345736       172.6762 
 964   0.0000       6.357656       173.0006 
 965   0.0000       6.363782       173.1673 
 966   0.0000       6.394474       174.0025 
 967   0.0000       6.407234       174.3497 
 968   0.0000       6.466677       175.9672 
 969   0.0000       6.516681       177.3279 
 970   0.0000       6.590576       179.3387 
 971   0.0000       6.636016       180.5752 
 972   0.0000       6.825168       185.7223 
 973   0.0000       6.835413       186.0010 
 974   0.0000       6.853122       186.4829 
 975   0.0000       6.882534       187.2833 
 976   0.0000       6.912853       188.1083 
 977   0.0000       6.936564       188.7535 
 978   0.0000       6.960523       189.4055 
 979   0.0000       6.993073       190.2912 
 980   0.0000       7.005081       190.6180 
 981   0.0000       7.020441       191.0359 
 982   0.0000       7.031974       191.3497 
 983   0.0000       7.056306       192.0119 
 984   0.0000       7.062122       192.1701 
 985   0.0000       7.121475       193.7852 
 986   0.0000       7.241574       197.0532 
 987   0.0000       7.309292       198.8959 
 988   0.0000       7.331541       199.5014 
 989   0.0000       7.392343       201.1559 
 990   0.0000       7.509958       204.3563 
 991   0.0000       7.575698       206.1452 
 992   0.0000       7.622841       207.4281 
 993   0.0000       7.686312       209.1552 
 994   0.0000       7.756779       211.0727 
 995   0.0000       7.850622       213.6263 
 996   0.0000       7.914331       215.3599 
 997   0.0000       7.998786       217.6580 
 998   0.0000       8.254051       224.6042 
 999   0.0000       9.403353       255.8783 
 1000   0.0000       9.413794       256.1624 
 1001   0.0000       9.431399       256.6414 
 1002   0.0000       9.446496       257.0522 
 1003   0.0000       9.456230       257.3171 
 1004   0.0000       9.483452       258.0578 
 1005   0.0000       9.656105       262.7560 
 1006   0.0000      10.085726       274.4466 
 1007   0.0000      10.089024       274.5363 
 1008   0.0000      10.101827       274.8847 
 1009   0.0000      10.200412       277.5673 
 1010   0.0000      10.209718       277.8206 
 1011   0.0000      10.237055       278.5644 
 1012   0.0000      10.333512       281.1892 
 1013   0.0000      10.380616       282.4709 
 1014   0.0000      10.451825       284.4086 
 1015   0.0000      11.231265       305.6183 
 1016   0.0000      16.789383       456.8623 
 1017   0.0000      17.578324       478.3305 
 1018   0.0000      18.136451       493.5179 
 1019   0.0000      18.418186       501.1843 
 1020   0.0000      18.561465       505.0831 
 1021   0.0000      18.704012       508.9620 
 1022   0.0000      20.424499       555.7789 
 1023   0.0000      21.207040       577.0729 
 1024   0.0000      21.659399       589.3822 

                 SPIN DOWN ORBITALS
  NO   OCC          E(Eh)            E(eV) 
   0   1.0000    -261.570486     -7117.6948 
   1   1.0000    -104.791344     -2851.5174 
   2   1.0000    -104.787893     -2851.4235 
   3   1.0000    -104.785988     -2851.3717 
   4   1.0000     -32.079789      -872.9354 
   5   1.0000     -27.557701      -749.8832 
   6   1.0000     -27.557642      -749.8815 
   7   1.0000     -27.557517      -749.8782 
   8   1.0000     -20.611420      -560.8653 
   9   1.0000     -11.420841      -310.7769 
  10   1.0000     -11.276363      -306.8454 
  11   1.0000     -11.273343      -306.7633 
  12   1.0000     -11.270868      -306.6959 
  13   1.0000     -11.246561      -306.0345 
  14   1.0000     -11.245856      -306.0153 
  15   1.0000     -11.238009      -305.8018 
  16   1.0000     -11.231501      -305.6247 
  17   1.0000     -10.517951      -286.2080 
  18   1.0000     -10.514473      -286.1134 
  19   1.0000     -10.512527      -286.0604 
  20   1.0000      -7.983866      -217.2520 
  21   1.0000      -7.983150      -217.2325 
  22   1.0000      -7.983108      -217.2314 
  23   1.0000      -7.980357      -217.1566 
  24   1.0000      -7.979671      -217.1379 
  25   1.0000      -7.979581      -217.1354 
  26   1.0000      -7.978516      -217.1064 
  27   1.0000      -7.977636      -217.0825 
  28   1.0000      -7.977553      -217.0803 
  29   1.0000      -4.154577      -113.0518 
  30   1.0000      -2.676131       -72.8212 
  31   1.0000      -2.676124       -72.8210 
  32   1.0000      -2.675618       -72.8073 
  33   1.0000      -1.450604       -39.4729 
  34   1.0000      -1.130253       -30.7557 
  35   1.0000      -1.097006       -29.8511 
  36   1.0000      -1.050179       -28.5768 
  37   1.0000      -1.037667       -28.2363 
  38   1.0000      -1.034402       -28.1475 
  39   1.0000      -1.022484       -27.8232 
  40   1.0000      -1.007967       -27.4282 
  41   1.0000      -0.961295       -26.1582 
  42   1.0000      -0.899255       -24.4700 
  43   1.0000      -0.824788       -22.4436 
  44   1.0000      -0.732862       -19.9422 
  45   1.0000      -0.711847       -19.3703 
  46   1.0000      -0.698950       -19.0194 
  47   1.0000      -0.684036       -18.6136 
  48   1.0000      -0.657795       -17.8995 
  49   1.0000      -0.623852       -16.9759 
  50   1.0000      -0.620909       -16.8958 
  51   1.0000      -0.604518       -16.4498 
  52   1.0000      -0.599010       -16.2999 
  53   1.0000      -0.585182       -15.9236 
  54   1.0000      -0.576401       -15.6847 
  55   1.0000      -0.560154       -15.2426 
  56   1.0000      -0.553063       -15.0496 
  57   1.0000      -0.545715       -14.8497 
  58   1.0000      -0.542724       -14.7683 
  59   1.0000      -0.529007       -14.3950 
  60   1.0000      -0.522491       -14.2177 
  61   1.0000      -0.503148       -13.6913 
  62   1.0000      -0.495736       -13.4897 
  63   1.0000      -0.484076       -13.1724 
  64   1.0000      -0.481533       -13.1032 
  65   1.0000      -0.452958       -12.3256 
  66   1.0000      -0.449786       -12.2393 
  67   1.0000      -0.446915       -12.1612 
  68   1.0000      -0.430708       -11.7202 
  69   1.0000      -0.428038       -11.6475 
  70   1.0000      -0.412453       -11.2234 
  71   1.0000      -0.360909        -9.8208 
  72   0.0000       0.012522         0.3407 
  73   0.0000       0.023337         0.6350 
  74   0.0000       0.023998         0.6530 
  75   0.0000       0.030432         0.8281 
  76   0.0000       0.039052         1.0627 
  77   0.0000       0.040928         1.1137 
  78   0.0000       0.042762         1.1636 
  79   0.0000       0.043366         1.1800 
  80   0.0000       0.044303         1.2056 
  81   0.0000       0.053662         1.4602 
  82   0.0000       0.056759         1.5445 
  83   0.0000       0.061200         1.6653 
  84   0.0000       0.063231         1.7206 
  85   0.0000       0.064097         1.7442 
  86   0.0000       0.064736         1.7616 
  87   0.0000       0.071818         1.9543 
  88   0.0000       0.077133         2.0989 
  89   0.0000       0.082085         2.2336 
  90   0.0000       0.089775         2.4429 
  91   0.0000       0.091940         2.5018 
  92   0.0000       0.093942         2.5563 
  93   0.0000       0.096286         2.6201 
  94   0.0000       0.101125         2.7518 
  95   0.0000       0.103018         2.8033 
  96   0.0000       0.104615         2.8467 
  97   0.0000       0.107169         2.9162 
  98   0.0000       0.107961         2.9378 
  99   0.0000       0.110134         2.9969 
 100   0.0000       0.112264         3.0548 
 101   0.0000       0.114799         3.1238 
 102   0.0000       0.119211         3.2439 
 103   0.0000       0.122518         3.3339 
 104   0.0000       0.124076         3.3763 
 105   0.0000       0.125573         3.4170 
 106   0.0000       0.127632         3.4730 
 107   0.0000       0.129245         3.5169 
 108   0.0000       0.132304         3.6002 
 109   0.0000       0.134227         3.6525 
 110   0.0000       0.137088         3.7304 
 111   0.0000       0.138899         3.7796 
 112   0.0000       0.144578         3.9342 
 113   0.0000       0.146584         3.9888 
 114   0.0000       0.152093         4.1386 
 115   0.0000       0.152346         4.1455 
 116   0.0000       0.156413         4.2562 
 117   0.0000       0.162433         4.4200 
 118   0.0000       0.162758         4.4289 
 119   0.0000       0.167665         4.5624 
 120   0.0000       0.171066         4.6549 
 121   0.0000       0.173059         4.7092 
 122   0.0000       0.175707         4.7812 
 123   0.0000       0.181456         4.9377 
 124   0.0000       0.183125         4.9831 
 125   0.0000       0.187271         5.0959 
 126   0.0000       0.187331         5.0975 
 127   0.0000       0.192662         5.2426 
 128   0.0000       0.198046         5.3891 
 129   0.0000       0.198825         5.4103 
 130   0.0000       0.199433         5.4269 
 131   0.0000       0.202613         5.5134 
 132   0.0000       0.205765         5.5991 
 133   0.0000       0.209318         5.6958 
 134   0.0000       0.216402         5.8886 
 135   0.0000       0.218895         5.9564 
 136   0.0000       0.224593         6.1115 
 137   0.0000       0.228127         6.2077 
 138   0.0000       0.229848         6.2545 
 139   0.0000       0.233744         6.3605 
 140   0.0000       0.236151         6.4260 
 141   0.0000       0.240655         6.5485 
 142   0.0000       0.241755         6.5785 
 143   0.0000       0.247014         6.7216 
 144   0.0000       0.250800         6.8246 
 145   0.0000       0.251440         6.8420 
 146   0.0000       0.254023         6.9123 
 147   0.0000       0.260156         7.0792 
 148   0.0000       0.261000         7.1022 
 149   0.0000       0.267328         7.2744 
 150   0.0000       0.273092         7.4312 
 151   0.0000       0.273737         7.4488 
 152   0.0000       0.278511         7.5787 
 153   0.0000       0.282248         7.6804 
 154   0.0000       0.286667         7.8006 
 155   0.0000       0.292604         7.9622 
 156   0.0000       0.293492         7.9863 
 157   0.0000       0.297469         8.0945 
 158   0.0000       0.299329         8.1452 
 159   0.0000       0.307581         8.3697 
 160   0.0000       0.309648         8.4259 
 161   0.0000       0.317969         8.6524 
 162   0.0000       0.321614         8.7516 
 163   0.0000       0.322684         8.7807 
 164   0.0000       0.329838         8.9754 
 165   0.0000       0.331972         9.0334 
 166   0.0000       0.336151         9.1471 
 167   0.0000       0.341657         9.2970 
 168   0.0000       0.342873         9.3301 
 169   0.0000       0.345342         9.3972 
 170   0.0000       0.350230         9.5302 
 171   0.0000       0.354239         9.6393 
 172   0.0000       0.359158         9.7732 
 173   0.0000       0.361439         9.8352 
 174   0.0000       0.364429         9.9166 
 175   0.0000       0.367404         9.9976 
 176   0.0000       0.368663        10.0318 
 177   0.0000       0.376281        10.2391 
 178   0.0000       0.379288        10.3210 
 179   0.0000       0.382916        10.4197 
 180   0.0000       0.385703        10.4955 
 181   0.0000       0.387156        10.5350 
 182   0.0000       0.391182        10.6446 
 183   0.0000       0.393855        10.7173 
 184   0.0000       0.395224        10.7546 
 185   0.0000       0.395764        10.7693 
 186   0.0000       0.399702        10.8764 
 187   0.0000       0.402687        10.9577 
 188   0.0000       0.404524        11.0077 
 189   0.0000       0.408365        11.1122 
 190   0.0000       0.413236        11.2447 
 191   0.0000       0.417421        11.3586 
 192   0.0000       0.421869        11.4796 
 193   0.0000       0.425447        11.5770 
 194   0.0000       0.429485        11.6869 
 195   0.0000       0.435004        11.8370 
 196   0.0000       0.438850        11.9417 
 197   0.0000       0.442212        12.0332 
 198   0.0000       0.446738        12.1564 
 199   0.0000       0.450339        12.2544 
 200   0.0000       0.453799        12.3485 
 201   0.0000       0.457162        12.4400 
 202   0.0000       0.460054        12.5187 
 203   0.0000       0.462686        12.5903 
 204   0.0000       0.464370        12.6361 
 205   0.0000       0.467518        12.7218 
 206   0.0000       0.477422        12.9913 
 207   0.0000       0.477911        13.0046 
 208   0.0000       0.480432        13.0732 
 209   0.0000       0.484207        13.1759 
 210   0.0000       0.487740        13.2721 
 211   0.0000       0.495017        13.4701 
 212   0.0000       0.496850        13.5200 
 213   0.0000       0.498724        13.5710 
 214   0.0000       0.501148        13.6369 
 215   0.0000       0.504554        13.7296 
 216   0.0000       0.506828        13.7915 
 217   0.0000       0.509196        13.8559 
 218   0.0000       0.515044        14.0151 
 219   0.0000       0.517214        14.0741 
 220   0.0000       0.520112        14.1530 
 221   0.0000       0.522666        14.2225 
 222   0.0000       0.527760        14.3611 
 223   0.0000       0.528085        14.3699 
 224   0.0000       0.529462        14.4074 
 225   0.0000       0.533131        14.5072 
 226   0.0000       0.537158        14.6168 
 227   0.0000       0.539580        14.6827 
 228   0.0000       0.542550        14.7635 
 229   0.0000       0.545395        14.8409 
 230   0.0000       0.547335        14.8937 
 231   0.0000       0.552558        15.0359 
 232   0.0000       0.558062        15.1856 
 233   0.0000       0.561181        15.2705 
 234   0.0000       0.563140        15.3238 
 235   0.0000       0.567808        15.4508 
 236   0.0000       0.572680        15.5834 
 237   0.0000       0.576415        15.6850 
 238   0.0000       0.577356        15.7107 
 239   0.0000       0.584177        15.8963 
 240   0.0000       0.586504        15.9596 
 241   0.0000       0.587935        15.9985 
 242   0.0000       0.592943        16.1348 
 243   0.0000       0.594889        16.1878 
 244   0.0000       0.599850        16.3227 
 245   0.0000       0.604095        16.4383 
 246   0.0000       0.606062        16.4918 
 247   0.0000       0.616618        16.7790 
 248   0.0000       0.617398        16.8002 
 249   0.0000       0.619847        16.8669 
 250   0.0000       0.622835        16.9482 
 251   0.0000       0.627986        17.0884 
 252   0.0000       0.634416        17.2633 
 253   0.0000       0.637045        17.3349 
 254   0.0000       0.638735        17.3809 
 255   0.0000       0.643620        17.5138 
 256   0.0000       0.650407        17.6985 
 257   0.0000       0.651820        17.7369 
 258   0.0000       0.653868        17.7927 
 259   0.0000       0.657161        17.8823 
 260   0.0000       0.662753        18.0344 
 261   0.0000       0.667684        18.1686 
 262   0.0000       0.671125        18.2622 
 263   0.0000       0.675495        18.3812 
 264   0.0000       0.676986        18.4217 
 265   0.0000       0.681556        18.5461 
 266   0.0000       0.688039        18.7225 
 267   0.0000       0.691331        18.8121 
 268   0.0000       0.696022        18.9397 
 269   0.0000       0.698745        19.0138 
 270   0.0000       0.706282        19.2189 
 271   0.0000       0.710652        19.3378 
 272   0.0000       0.713281        19.4094 
 273   0.0000       0.719808        19.5870 
 274   0.0000       0.723367        19.6838 
 275   0.0000       0.726355        19.7651 
 276   0.0000       0.733642        19.9634 
 277   0.0000       0.738123        20.0854 
 278   0.0000       0.739311        20.1177 
 279   0.0000       0.745084        20.2748 
 280   0.0000       0.749542        20.3961 
 281   0.0000       0.751741        20.4559 
 282   0.0000       0.761329        20.7168 
 283   0.0000       0.763188        20.7674 
[...]
  | sigma^2 in % of trace(Dpq) retained ...   1.37e-01
  | Av. % of trace(Di) retained         ...  99.998553645250
  | Av. % of trace(Dp) retained         ...  99.999999233060
  | sigma^2 in % of trace(Di) retained  ...   6.68e-07
  | sigma^2 in % of trace(Dp) retained  ...   3.04e-13
 Distributions of % trace(Dij) recovered:
  |       >= 99.9  ...   105 ( 21.7 % of all IJ-pairs)
  |   [80.0, 90.0) ...    23 (  4.8 % of all IJ-pairs)
  |   [90.0, 99.0) ...   270 ( 55.9 % of all IJ-pairs)
  |   [99.0, 99.9) ...    85 ( 17.6 % of all IJ-pairs)
 Distributions of % trace(Dip) recovered:
  |   [80.0, 90.0) ...    14 ( 12.3 % of all IP-pairs)
  |   [90.0, 99.0) ...    55 ( 48.2 % of all IP-pairs)
  |   [99.0, 99.9) ...    45 ( 39.5 % of all IP-pairs)
 Distributions of % trace(Dpq) recovered:
  |       >= 99.9  ...     5 ( 33.3 % of all PQ-pairs)
  |   [99.0, 99.9) ...    10 ( 66.7 % of all PQ-pairs)
 Distributions of % trace(Di) recovered :
  |       >= 99.9  ...    43 (100.0 % of all I-pairs )
 Distributions of % trace(Dp) recovered :
  |       >= 99.9  ...     5 (100.0 % of all P-pairs )

                       ===========================
                       1062 OF 1673 PAIRS ARE KEPT
                       ===========================

 Initial PAO correlation energy (all pairs)    ...  -2.6851155663 Eh
 Energy constituents in PAO basis (Eh):
  | Vijab(+0) ...  -2.2577701396
  | Viab (-1) ...  -0.1741743352
  | Vab  (-2) ...  -0.0573350153
  | Va   (-1) ...  -0.0000449245
  | Vija (+1) ...  -0.0715332712
  | Vij  (+2) ...  -0.0155374941
  | Via  (+0) ...  -0.1085567874
  | Vi   (+1) ...  -0.0001635989
 Initial PNO correlation energy                ...  -2.6507258457 Eh
 Energy constituents in PNO basis (Eh):
  | Vijab(+0) ...  -2.2390132651 (err=  0.0187568745)
  | Viab (-1) ...  -0.1601536214 (err=  0.0140207138)
  | Vab  (-2) ...  -0.0568801800 (err=  0.0004548353)
  | Va   (-1) ...  -0.0000260440 (err=  0.0000188806)
  | Vija (+1) ...  -0.0705707219 (err=  0.0009625493)
  | Vij  (+2) ...  -0.0154805122 (err=  0.0000569820)
  | Via  (+0) ...  -0.1084384636 (err=  0.0001183238)
  | Vi   (+1) ...  -0.0001630376 (err=  0.0000005613)
 Sum of total truncation errors ...   0.0343897206 Eh
  | Pair screening ...   0.0120028406 Eh
  | PNO truncation ...   0.0223868800 Eh

 UMP2 correlation energy (PAO) ...  -2.6800566778
  | alpha-alpha ...  -0.3844914140 (NP_aa=  898)
  | alpha-beta  ...  -1.9906228167 (NP_ab= 1648)
  | beta -beta  ...  -0.3049424471 (NP_bb=  717)
 UMP2 correlation energy (PNO) ...  -2.6452979017
  | alpha-alpha ...  -0.3724288487 (err=  0.0120625652, NP_aa=  564)
  | alpha-beta  ...  -1.9720615107 (err=  0.0185613060, NP_ab= 1037)
  | beta -beta  ...  -0.3008075423 (err=  0.0041349048, NP_bb=  440)
 Sum of total UMP2 truncation errors ...   0.0347587761 Eh
  | Pair screening ...   0.0120102311 Eh
  | PNO truncation ...   0.0227485450 Eh
 Timing for NEV-PNO construction (sec.)
  | Intermediate construction  ..           40.196
  | Amplitude construction     ..           58.192
  | Total time                 ..           98.388
 Making pair pair interaction lists ...      ok
 Total size for 2-ext PNO integrals ...     10.6 MB
Checking the number of SOMO/SOMO doubles PNOs ... 
 #Truncate: (72, 72)[170] -> [85] .. 
 #Truncate: (73, 73)[171] -> [85] .. 
 #Truncate: (74, 74)[171] -> [85] .. 
 #Truncate: (75, 75)[168] -> [85] .. 
 #Truncate: (76, 76)[168] -> [85] .. 

--------------------------------
LOCAL RI TRANSFORMATION (VABPAO)
--------------------------------

Number of PAOs:    1030
Basis functions:   1025 (343 shells)
Aux. functions:    2424 (644 shells)

Processing maps (0.0 sec)
Average map sizes:
   Aux shells -> PAOs           1030.0
   PAOs       -> AO shells       343.0

Calculating integrals (190.9 sec, 37370.165 MB)
Finished
-----------------------------
LOCAL RI TRANSFORMATION (IJV)
-----------------------------

Orbital window:      29 to 76
Basis functions:   1025 (343 shells)
Aux. functions:    2424 (644 shells)

Processing maps (0.0 sec)
Average map sizes:
   Aux shells -> MOs(i)           46.5
   Aux shells -> MOs(j)           48.0
   MOs        -> AO shells       339.4

Calculating integrals (22.9 sec, 41.391 MB)
Sorting integrals (0.4 sec, 41.364 MB)
Total time for the integral transformation: 23.4 sec


-------------------------------------
Pair Pair Term precalculation with     
RI-(ij|mn) and (im|jn) transformation  
ON THE FLY                             
-------------------------------------

   IBatch   1 (of   2)              ... done ( 1068.533 sec)
   IBatch   2 (of   2)              ... done (  982.707 sec)
Total EXT                           ...        2051.240 sec

---------------------
RI-PNO TRANSFORMATION
---------------------

Total Number of PNOs                   ... 33167
Total Number of IJ-PNOs                ... 29070
Total Number of IP-PNOs                ...  3144
Total Number of PQ-PNOs                ...   953
Total Number of IJ-pairs               ...   923
Total Number of PI-pairs               ...   114
Total Number of PQ-pairs               ...    25
Average number of PNOs per pair        ...    31
Maximal number of PNOs per pair        ...    85
>> Statistics for ij-pairs..
   #pairs with  1 -  5 PNOs   :    0
   #pairs with  6 - 10 PNOs   :    0
   #pairs with 11 - 15 PNOs   :   76
   #pairs with 16 - 20 PNOs   :  198
   #pairs with 21 - 25 PNOs   :  160
   #pairs with 26 - 30 PNOs   :  142
   #pairs with 31 - 35 PNOs   :   58
   #pairs with 36 - 40 PNOs   :   56
   #pairs with 41 - 45 PNOs   :   46
   #pairs with 46 - 50 PNOs   :   20
   #pairs with 51 - 55 PNOs   :   32
   #pairs with 56 - 60 PNOs   :   57
   #pairs with 61 - 65 PNOs   :   73
   #pairs with 66 - 70 PNOs   :    2
   #pairs with 71 - 75 PNOs   :    1
   #pairs with 81 - 85 PNOs   :    2
>> Statistics for ip-pairs..
   #pairs with  1 -  5 PNOs   :    0
   #pairs with  6 - 10 PNOs   :    1
   #pairs with 11 - 15 PNOs   :   13
   #pairs with 16 - 20 PNOs   :    9
   #pairs with 21 - 25 PNOs   :   23
   #pairs with 26 - 30 PNOs   :   11
   #pairs with 31 - 35 PNOs   :   43
   #pairs with 36 - 40 PNOs   :   13
   #pairs with 41 - 45 PNOs   :    1
   #pairs with 46 - 50 PNOs   :    0
>> Statistics for pq-pairs..
   #pairs with  1 -  5 PNOs   :    0
   #pairs with  6 - 10 PNOs   :    0
   #pairs with 11 - 15 PNOs   :    0
   #pairs with 16 - 20 PNOs   :    0
   #pairs with 21 - 25 PNOs   :   10
   #pairs with 26 - 30 PNOs   :   10
   #pairs with 31 - 35 PNOs   :    0
   #pairs with 36 - 40 PNOs   :    0
   #pairs with 41 - 45 PNOs   :    0
   #pairs with 46 - 50 PNOs   :    0
   #pairs with 81 - 85 PNOs   :    5

Generation of (ij|ab)[P] integrals            ... on
Generation of (ia|bc)[P],(ja|bc)[P] integrals ... on
Storage of 3 and 4 external integrals         ... on
Generation of ALL (ka|bc)[P] integrals        ... on
Keep RI integrals in memory                   ... off

Ibatch:  1 (of  1)
Starting 2-4 index PNO integral generation ... done

Timings:
Total PNO integral transformation time     ...       1958.435 sec
Size of the 3-external file                ...       280 MB
Size of the 4-external file                ...      1904 MB
Size of the IKJL file                      ...        17 MB
Size of the all 3-external file            ...      6728 MB
Size of the 1-external file                ...        21 MB

Size of the PAO/PNO coefficient matrices   ...     210.4 MB

Making pair/pair overlap matrices          ... done (  289.547 sec)
Size of the pair overlap file              ...    2305.0 MB
Total # unrestricted pairs ...       2041
  # of alpha-alpha pairs   ...        564
  # of alpha-beta pairs    ...       1037
  # of beta-beta pairs     ...        440
Constructing the guess amplitudes          ... done (    0.566 sec)

-------------------------
FINAL STARTUP INFORMATION
-------------------------

E(0)                                       ...  -3028.459874375
E(SL-UMP2 in NEV-PNO space)                ...     -2.681044176
Initial E(tot)                             ...  -3031.140918551
<T|T>                                      ...      0.533162177
Number of unrestricted pairs included      ... 2041
Total number of pairs                      ... 4095
----------------------------------------------------------
                     OPEN-SHELL COUPLED CLUSTER ITERATIONS
----------------------------------------------------------

Number of PNO amplitudes to be optimized        ...          2044661
Number of canonical amplitudes for strong pairs ...       1843438927
Untruncated number of canonical amplitudes      ...       3698645738

Iter       E(tot)           E(Corr)          Delta-E          Residual     Time
  0  -3031.148149139     -2.652528489      0.028515686      0.020888019 1610.72
                           *** Turning on DIIS ***
  1  -3031.263616612     -2.767995963     -0.115467473      0.010138172 1797.63
  2  -3031.328469440     -2.832848791     -0.064852828      0.008352365 1797.29
  3  -3031.350369080     -2.854748431     -0.021899640      0.003260059 1788.86
  4  -3031.357981460     -2.862360811     -0.007612380      0.002647504 1778.83
  5  -3031.362158029     -2.866537380     -0.004176569      0.001507569 1777.02
  6  -3031.363698611     -2.868077962     -0.001540582      0.000774734 1791.59
  7  -3031.364356227     -2.868735578     -0.000657616      0.000486750 1804.97
  8  -3031.364500554     -2.868879905     -0.000144327      0.000234733 1908.17
  9  -3031.364560140     -2.868939490     -0.000059585      0.000141791 1907.72
 10  -3031.364561170     -2.868940521     -0.000001031      0.000088489 1900.12
 11  -3031.364574668     -2.868954019     -0.000013498      0.000060295 1893.88
 12  -3031.364578910     -2.868958261     -0.000004242      0.000032655 1869.07
 13  -3031.364581100     -2.868960451     -0.000002190      0.000017928 1875.68
 14  -3031.364582758     -2.868962109     -0.000001658      0.000010141 1818.84
 15  -3031.364581813     -2.868961164      0.000000945      0.000004355 1654.89
               --- The CCSD iterations have converged ---

E(0)                                       ...  -3028.459874375
E(CORR)(strong-pairs)                      ...     -2.868961164
E(CORR)(weak-pairs)                        ...     -0.035746274
E(CORR)(corrected)                         ...     -2.904707438
E(TOT)                                     ...  -3031.364581813
Singles norm <S|S>**1/2                    ...      0.195373978 ( 0.064837536, 0.130536441)  
T1 diagnostic                              ...      0.020480758                              
<S**2>(linearized)                         ...      8.7508393 (ideal value:      8.7500000)

----------------------
LARGEST PNO AMPLITUDES
----------------------
  46a-> 78a  46b-> 78b       0.056982
  49b-> 72b  -1b-> -1b       0.054575
  51b-> 73b  -1b-> -1b       0.054060
  52b-> 73b  -1b-> -1b       0.053935
  49b-> 76b  -1b-> -1b       0.047272
  49b-> 75b  -1b-> -1b       0.046421
  44a-> 77a  44b-> 77b       0.044671
  55a-> 77a  55b-> 77b       0.044151
  47a-> 78a  47b-> 78b       0.044139
  62a-> 77a  62b-> 77b       0.044123
  38b-> 74b  -1b-> -1b       0.043921
  70a-> 77a  70b-> 77b       0.043640
  56a-> 78a  56b-> 78b       0.043370
  64a-> 77a  64b-> 77b       0.043213
  42b-> 74b  -1b-> -1b       0.043194
  36b-> 72b  -1b-> -1b       0.043130

Total # unrestricted pairs ...       1222
  # of alpha-alpha pairs   ...        334
  # of alpha-beta pairs    ...        611
  # of beta-beta pairs     ...        277

-------------------------------------------
DLPNO BASED TRIPLES CORRECTION
-------------------------------------------

Singles multiplier          ...  1.000000
Fragment selection                          .... not used
TCutTNO                     ... 1.000e-09
TCutMP2Pairs                ... 1.000e-05
TCutDOStrong                ... 2.000e-02
TCutMKNStrong               ... 1.000e-02
TCutDOWeak                  ... 4.000e-02
TCutMKNWeak                 ... 1.000e-01
NTCutTNO                    ... 1

Number of Triples that are to be computed         ...     31940

 . . . . . . . . .
10% done  
20% done  
30% done  
40% done  
50% done  
60% done  
70% done  
80% done  
90% done  
          Batch   1   done (  12708.778 sec)

Triples-Correction TCutTNO=   1.000e-09 (NWeakPairs = 0  1  2  3)  -0.116489406469   -0.001864805613    0.000000000000    0.000000000000
Triples-Correction  -0.118354212082

Triples timings:
Total time                      ... 13242.419 sec

Triples List generation         ...     0.000 sec
TNO generation                  ...   533.362 sec
Pair density generation         ...     0.083 sec
Look up tables                  ...     0.106 sec
Generating 3-index integrals    ...  7631.084 sec
Make 4-ind.int. from 3-ind.int  ...     3.028 sec
Projecting amplitudes (D + S)   ...  4857.931 sec
Sorting integrals for spin cases...    45.127 sec
Calculate W0/W1                 ...   138.050 sec
Energy contr. (sum over a,b,c)  ...    33.435 sec

Everything after 3-index        ...  5186.127 sec

Energy contribution AAA         ...    21.152 sec
Energy contribution AAB         ...    96.254 sec
Energy contribution ABB         ...    87.650 sec
Energy contribution BBB         ...    11.589 sec
prep                ...     2.744 sec
makeTTNO            ...  4808.168 sec
copyij              ...     0.115 sec
copyil              ...     3.605 sec
transposeij         ...     0.069 sec
newMatInDoubleProj  ...    47.877 sec
BlasInDoubleProj    ...  2576.656 sec
ProjSingles         ...    41.064 sec
ProjDoubles         ...  4816.866 sec
overall Doubles for projection      ... 2825299
used Doubles for projection         ... 2825299


Number of Triples   (0, 1, 2, 3 weak pairs; overall):  14729   11677       0       0  ( 26406)
Number of Atoms     (0, 1, 2, 3 weak pairs; overall):   19.1    13.6     0.0     0.0  (    29)
Number of PAOs      (0, 1, 2, 3 weak pairs; overall):  748.1   553.4     0.0     0.0  (  1025)
Number of AuxFcns   (0, 1, 2, 3 weak pairs; overall):  846.6   568.7     0.0     0.0  (  2424)
Number of TNOs (0, 1, 2, 3 weak pairs         ):   78.8    55.9     0.0     0.0
Aver. Number of NTNO, Atoms, PAOs, AuxFcns / Triples:  26406    68.7    16.6   662.0   723.7

Triples Correction (T)                     ...     -0.118354212
    alpha-alpha-alpha ... -0.003790469 (  3.2%)
    alpha-alpha-beta  ... -0.055593088 ( 47.0%)
    alpha-beta -beta  ... -0.054921968 ( 46.4%)
    beta -beta -beta  ... -0.004048688 (  3.4%)
Final correlation energy                   ...     -3.023061650
E(CCSD)                                    ...  -3031.364581813
E(CCSD(T))                                 ...  -3031.482936025

----------------------------
STATISTICS FOR PAIR-ENERGIES
----------------------------
Minimum, maximum and average ratios of UMP and CCSD pair-energies ... 0.46, 1.45, 1.02


------------------------------------------------------------------------------- 
                                     TIMINGS                                   
------------------------------------------------------------------------------- 


Total execution time                   ...    49984.684 sec

Localization of occupied MO's          ...       10.087 sec (  0.0%)
Fock Matrix Formation                  ...     1359.831 sec (  2.7%)
Differential overlap integrals         ...        1.362 sec (  0.0%)
Organizing maps                        ...        1.619 sec (  0.0%)
RI 3-index integral generations        ...      275.652 sec (  0.6%)
RI-PNO integral transformation         ...     4425.739 sec (  8.9%)
Initial Guess                          ...     1874.201 sec (  3.7%)
DIIS Solver                            ...       17.225 sec (  0.0%)
State Vector Update                    ...        0.859 sec (  0.0%)
Sigma-vector construction              ...    28975.281 sec ( 58.0%)
  <0|H|D>                              ...        0.033 sec (  0.0% of sigma)
  <D|H|D>(0-ext)                       ...     5240.083 sec ( 18.1% of sigma)
  <D|H|D>(2-ext Fock)                  ...        1.727 sec (  0.0% of sigma)
  <D|H|D>(2-ext)                       ...     3677.745 sec ( 12.7% of sigma)
  <D|H|D>(4-ext)                       ...      203.566 sec (  0.7% of sigma)
  <D|H|D>(4-ext-corr)                  ...     1222.115 sec (  4.2% of sigma)
  CCSD doubles correction              ...      480.807 sec (  1.7% of sigma)
  <S|H|S>                              ...      772.291 sec (  2.7% of sigma)
  <S|H|D>(1-ext)                       ...      291.298 sec (  1.0% of sigma)
  <D|H|S>(1-ext)                       ...        1.482 sec (  0.0% of sigma)
  <S|H|D>(3-ext)                       ...       23.771 sec (  0.1% of sigma)
  CCSD singles correction              ...        0.006 sec (  0.0% of sigma)
  Fock-dressing                        ...     8190.310 sec ( 28.3% of sigma)
  Singles amplitudes                   ...      122.613 sec (  0.4% of sigma)
  (ik|jl)-dressing                     ...     7062.808 sec ( 24.4% of sigma)
  (ij|ab),(ia|jb)-dressing             ...     1396.167 sec (  4.8% of sigma)
  Pair energies                        ...        0.163 sec (  0.0% of sigma)
Total Time for computing (T)           ...    13414.808 sec ( 26.8% of ALL)


-------------------------   --------------------
FINAL SINGLE POINT ENERGY     -3031.482936025427
-------------------------   --------------------


                            ***************************************
                            *     ORCA property calculations      *
                            ***************************************

                                    ---------------------
                                    Active property flags
                                    ---------------------
   (+) Dipole Moment


------------------------------------------------------------------------------
                       ORCA ELECTRIC PROPERTIES CALCULATION
------------------------------------------------------------------------------

Dipole Moment Calculation                       ... on
Quadrupole Moment Calculation                   ... off
Polarizability Calculation                      ... off
GBWName                                         ... simple-grid-255-280-b3lyp_d3bj-631gd-gas-singlepoint-DLPNO_CCSD_T1-NormalPNO-augtz-gas.gbw
Electron density file                           ... simple-grid-255-280-b3lyp_d3bj-631gd-gas-singlepoint-DLPNO_CCSD_T1-NormalPNO-augtz-gas.scfp.tmp
The origin for moment calculation is the CENTER OF MASS  = (-0.312804, -0.039396  0.014823)

-------------
DIPOLE MOMENT
-------------
                                X             Y             Z
Electronic contribution:    -43.16744      -4.55316       1.58043
Nuclear contribution   :     46.60783       5.86994      -2.20853
                        -----------------------------------------
Total Dipole Moment    :      3.44039       1.31677      -0.62810
                        -----------------------------------------
Magnitude (a.u.)       :      3.73693
Magnitude (Debye)      :      9.49853



--------------------
Rotational spectrum 
--------------------
 
Rotational constants in cm-1:     0.018917     0.010847     0.010211 
Rotational constants in MHz :   567.107060   325.190078   306.117324 

 Dipole components along the rotational axes: 
x,y,z [a.u.] :     3.433807    -1.314912    -0.666824 
x,y,z [Debye]:     8.728044    -3.342241    -1.694933 

 

Timings for individual modules:

Sum of individual times         ...    66229.374 sec (=1103.823 min)
GTO integral calculation        ...       12.463 sec (=   0.208 min)   0.0 %
SCF iterations                  ...    16213.914 sec (= 270.232 min)  24.5 %
MDCI module                     ...    50002.997 sec (= 833.383 min)  75.5 %
                             ****ORCA TERMINATED NORMALLY****
TOTAL RUN TIME: 0 days 18 hours 23 minutes 51 seconds 907 msec
