
                                 *****************
                                 * O   R   C   A *
                                 *****************

           --- An Ab Initio, DFT and Semiempirical electronic structure package ---

                  #######################################################
                  #                        -***-                        #
                  #          Department of theory and spectroscopy      #
                  #               Directorship: Frank Neese             #
                  #        Max Planck Institute fuer Kohlenforschung    #
                  #                Kaiser Wilhelm Platz 1               #
                  #                 D-45470 Muelheim/Ruhr               #
                  #                      Germany                        #
                  #                                                     #
                  #                  All rights reserved                #
                  #                        -***-                        #
                  #######################################################


                         Program Version 4.1.2  - RELEASE  -


 With contributions from (in alphabetic order):
   Daniel Aravena         : Magnetic Properties
   Michael Atanasov       : Ab Initio Ligand Field Theory
   Alexander A. Auer      : GIAO ZORA
   Ute Becker             : Parallelization
   Giovanni Bistoni       : ED, Open-shell LED
   Martin Brehm           : Molecular dynamics
   Dmytro Bykov           : SCF Hessian
   Vijay G. Chilkuri      : MRCI spin determinant printing
   Dipayan Datta          : RHF DLPNO-CCSD density
   Achintya Kumar Dutta   : EOM-CC, STEOM-CC
   Dmitry Ganyushin       : Spin-Orbit,Spin-Spin,Magnetic field MRCI
   Miquel Garcia          : C-PCM Hessian
   Yang Guo               : DLPNO-NEVPT2, CIM, IAO-localization
   Andreas Hansen         : Spin unrestricted coupled pair/coupled cluster methods
   Benjamin Helmich-Paris : CASSCF linear response (MC-RPA)
   Lee Huntington         : MR-EOM, pCC
   Robert Izsak           : Overlap fitted RIJCOSX, COSX-SCS-MP3, EOM
   Christian Kollmar      : KDIIS, OOCD, Brueckner-CCSD(T), CCSD density
   Simone Kossmann        : Meta GGA functionals, TD-DFT gradient, OOMP2, MP2 Hessian
   Martin Krupicka        : AUTO-CI
   Lucas Lang             : DCDCAS
   Dagmar Lenk            : GEPOL surface, SMD
   Dimitrios Liakos       : Extrapolation schemes; parallel MDCI
   Dimitrios Manganas     : ROCIS; embedding schemes
   Dimitrios Pantazis     : SARC Basis sets
   Taras Petrenko         : DFT Hessian,TD-DFT gradient, ASA, ECA, R-Raman, ABS, FL, XAS/XES, NRVS
   Peter Pinski           : DLPNO-MP2, DLPNO-MP2 Gradient
   Christoph Reimann      : Effective Core Potentials
   Marius Retegan         : Local ZFS, SOC
   Christoph Riplinger    : Optimizer, TS searches, QM/MM, DLPNO-CCSD(T), (RO)-DLPNO pert. Triples
   Tobias Risthaus        : Range-separated hybrids, TD-DFT gradient, RPA, STAB
   Michael Roemelt        : Restricted open shell CIS
   Masaaki Saitow         : Open-shell DLPNO
   Barbara Sandhoefer     : DKH picture change effects
   Avijit Sen             : IP-ROCIS
   Kantharuban Sivalingam : CASSCF convergence, NEVPT2, FIC-MRCI
   Bernardo de Souza      : ESD, SOC TD-DFT
   Georgi Stoychev        : AutoAux, RI-MP2 NMR
   Willem Van den Heuvel  : Paramagnetic NMR
   Boris Wezisla          : Elementary symmetry handling
   Frank Wennmohs         : Technical directorship


 We gratefully acknowledge several colleagues who have allowed us to
 interface, adapt or use parts of their codes:
   Stefan Grimme, W. Hujo, H. Kruse,             : VdW corrections, initial TS optimization,
                  C. Bannwarth                     DFT functionals, gCP, sTDA/sTD-DF
   Ed Valeev                                     : LibInt (2-el integral package), F12 methods
   Garnet Chan, S. Sharma, J. Yang, R. Olivares  : DMRG
   Ulf Ekstrom                                   : XCFun DFT Library
   Mihaly Kallay                                 : mrcc  (arbitrary order and MRCC methods)
   Andreas Klamt, Michael Diedenhofen            : otool_cosmo (COSMO solvation model)
   Jiri Pittner, Ondrej Demel                    : Mk-CCSD
   Frank Weinhold                                : gennbo (NPA and NBO analysis)
   Christopher J. Cramer and Donald G. Truhlar   : smd solvation model
   Lars Goerigk                                  : TD-DFT with DH, B97 family of functionals
   V. Asgeirsson, H. Jonsson                     : NEB implementation
   FAccTs GmbH                                   : IRC, NEB, NEB-TS, Multilevel


 Your calculation uses the libint2 library for the computation of 2-el integrals
 For citations please refer to: http://libint.valeyev.net

 This ORCA versions uses:
   CBLAS   interface :  Fast vector & matrix operations
   LAPACKE interface :  Fast linear algebra routines
   SCALAPACK package :  Parallel linear algebra routines


----- Orbital basis set information -----
Your calculation utilizes the basis: aug-cc-pVTZ 
    H, B-Ne : Obtained from the ccRepo (grant-hill.group.shef.ac.uk/ccrepo) Feb. 2017
              R. A. Kendall, T. H. Dunning, Jr., R. J. Harrison, J. Chem. Phys. 96, 6796 (1992)
         He : Obtained from the ccRepo (grant-hill.group.shef.ac.uk/ccrepo) Feb. 2017
              D. E. Woon, T. H. Dunning, Jr., J. Chem. Phys. 100, 2975 (1994)
  Li-Be, Na : Obtained from the ccRepo (grant-hill.group.shef.ac.uk/ccrepo) Feb. 2017
              B. P. Prascher, D. E. Woon, K. A. Peterson, T. H. Dunning, Jr., A. K. Wilson, Theor. Chem. Acc. 128, 69 (2011)
         Mg : Obtained from the Peterson Research Group Website (tyr0.chem.wsu.edu/~kipeters) Feb. 2017
              B. P. Prascher, D. E. Woon, K. A. Peterson, T. H. Dunning, Jr., A. K. Wilson, Theor. Chem. Acc. 128, 69 (2011)
      Al-Ar : Obtained from the ccRepo (grant-hill.group.shef.ac.uk/ccrepo) Feb. 2017
              D. E. Woon, T. H. Dunning, Jr., J. Chem. Phys. 98, 1358 (1993)
      Sc-Zn : Obtained from the ccRepo (grant-hill.group.shef.ac.uk/ccrepo) Feb. 2017
              N. B. Balabanov, K. A. Peterson, J. Chem. Phys. 123, 064107 (2005)
              N. B. Balabanov, K. A. Peterson, J. Chem. Phys. 125, 074110 (2006)
      Ga-Kr : Obtained from the ccRepo (grant-hill.group.shef.ac.uk/ccrepo) Feb. 2017
              A. K. Wilson, D. E. Woon, K. A. Peterson, T. H. Dunning, Jr., J. Chem. Phys. 110, 7667 (1999)
     Ag, Au : Obtained from the Peterson Research Group Website (tyr0.chem.wsu.edu/~kipeters) Feb. 2017
              K. A. Peterson, C. Puzzarini, Theor. Chem. Acc. 114, 283 (2005)

----- AuxJ basis set information -----
Your calculation utilizes the AutoAux generation procedure.
  G. L. Stoychev, A. A. Auer, F. Neese, J. Chem. Theory Comput. 13, 554 (2017)

----- AuxC basis set information -----
Your calculation utilizes the auxiliary basis: aug-cc-pVTZ/C 
  H-He, B-F, Al-Ar, Ga-Kr : Obtained from the EMSL Basis Set Exchange (bse.pnl.gov) Feb. 2017
                            F. Weigend, A. Kohn, C. Hattig, J. Chem. Phys. 116, 3175 (2002)
                   Be, Mg : Obtained from the TURBOMOLE 7.0 basis set library
                            C. Haettig, Phys. Chem. Chem. Phys. 7, 59 (2005)
                       Ne : Obtained from the EMSL Basis Set Exchange (bse.pnl.gov) Feb. 2017
                            C. Haettig, Phys. Chem. Chem. Phys. 7, 59 (2005)
                            F. Weigend, A. Kohn, C. Hattig, J. Chem. Phys. 116, 3175 (2002)
                    Sc-Zn : Obtained from the EMSL Basis Set Exchange (bse.pnl.gov) Feb. 2017
                            J. G. Hill, J. A. Platts, J. Chem. Phys. 128, 044104 (2008)

----- AuxJK basis set information -----
Your calculation utilizes the AutoAux generation procedure.
  G. L. Stoychev, A. A. Auer, F. Neese, J. Chem. Theory Comput. 13, 554 (2017)

================================================================================
                                        WARNINGS
                       Please study these warnings very carefully!
================================================================================


WARNING: your system is open-shell and RHF/RKS was chosen
  ===> : WILL SWITCH to UHF/UKS


WARNING: MDCI localization with Augmented Hessian Foster-Boys
  ===> : Switching off randomization!

WARNING: Post HF methods need fully converged wavefunctions
  ===> : Setting SCFConvForced true
         You can overwrite this default with %scf ConvForced false 


INFO   : the flag for use of LIBINT has been found!

================================================================================
                                       INPUT FILE
================================================================================
NAME = simple-grid-300-280-b3lyp_d3bj-631gd-gas-singlepoint-DLPNO_CCSD_T1-NormalPNO-augtz-gas.inp
|  1> ! aug-cc-pVTZ aug-cc-pVTZ/C DLPNO-CCSD(T1) TightSCF NormalPNO UNO MiniPrint AutoAux
|  2> %pal nproc 10 end
|  3> %maxcore 20000
|  4> %mdci
|  5>      density none
|  6> end
|  7> 
|  8> * xyz 0 6
|  9>  O      0.22180200      0.45796700     -0.82495300
| 10>  C      0.89859300      1.47914500     -0.59068100
| 11>  C      3.23006800     -0.06660000      0.49324300
| 12>  C      2.59616600     -0.93574400     -0.31509000
| 13>  C      2.92114100     -1.01513500     -1.78435600
| 14> Fe     -1.46210500     -0.17815900      0.03333900
| 15> Cl     -2.07041800     -1.91156600     -1.12310700
| 16>  C      1.64070000     -1.99512500      0.15832500
| 17> Cl     -2.70274900      1.60462500     -0.24596600
| 18> Cl     -1.06640900     -0.56165500      2.15261500
| 19>  H      3.97091700      0.59203300      0.03632600
| 20>  H      2.13392700     -2.97607700      0.11395000
| 21>  H      1.28763600     -1.84646700      1.17869900
| 22>  H      0.77047900     -2.06649700     -0.50356600
| 23>  H      3.34379700     -1.99943800     -2.02606100
| 24>  H      2.01295400     -0.91294800     -2.39182800
| 25>  H      3.64499400     -0.25477400     -2.09369000
| 26>  C      3.10149800      0.05432800      1.98612400
| 27>  H      3.96561400     -0.40130800      2.48914500
| 28>  H      3.08062000      1.10538300      2.29927300
| 29>  H      2.20168200     -0.42889800      2.37537900
| 30>  C      0.77901400      2.21630900      0.70388400
| 31>  H      1.63680700      2.86739400      0.88014700
| 32>  H     -0.12667000      2.83708100      0.63851400
| 33>  H      0.63969800      1.52557800      1.53726100
| 34>  C      1.70989000      2.08191700     -1.69197000
| 35>  H      1.22341100      3.02651900     -1.97433200
| 36>  H      2.71635000      2.32676400     -1.34374800
| 37>  H      1.74847200      1.42560900     -2.55975300
| 38> *
| 39> 
| 40> 
| 41>                          ****END OF INPUT****
================================================================================

                       ****************************
                       * Single Point Calculation *
                       ****************************

---------------------------------
CARTESIAN COORDINATES (ANGSTROEM)
---------------------------------
  O      0.221802    0.457967   -0.824953
  C      0.898593    1.479145   -0.590681
  C      3.230068   -0.066600    0.493243
  C      2.596166   -0.935744   -0.315090
  C      2.921141   -1.015135   -1.784356
  Fe    -1.462105   -0.178159    0.033339
  Cl    -2.070418   -1.911566   -1.123107
  C      1.640700   -1.995125    0.158325
  Cl    -2.702749    1.604625   -0.245966
  Cl    -1.066409   -0.561655    2.152615
  H      3.970917    0.592033    0.036326
  H      2.133927   -2.976077    0.113950
  H      1.287636   -1.846467    1.178699
  H      0.770479   -2.066497   -0.503566
  H      3.343797   -1.999438   -2.026061
  H      2.012954   -0.912948   -2.391828
  H      3.644994   -0.254774   -2.093690
  C      3.101498    0.054328    1.986124
  H      3.965614   -0.401308    2.489145
  H      3.080620    1.105383    2.299273
  H      2.201682   -0.428898    2.375379
  C      0.779014    2.216309    0.703884
  H      1.636807    2.867394    0.880147
  H     -0.126670    2.837081    0.638514
  H      0.639698    1.525578    1.537261
  C      1.709890    2.081917   -1.691970
  H      1.223411    3.026519   -1.974332
  H      2.716350    2.326764   -1.343748
  H      1.748472    1.425609   -2.559753

----------------------------
CARTESIAN COORDINATES (A.U.)
----------------------------
  NO LB      ZA    FRAG     MASS         X           Y           Z
   0 O     8.0000    0    15.999    0.419145    0.865432   -1.558935
   1 C     6.0000    0    12.011    1.698095    2.795179   -1.116225
   2 C     6.0000    0    12.011    6.103944   -0.125856    0.932094
   3 C     6.0000    0    12.011    4.906043   -1.768300   -0.595434
   4 C     6.0000    0    12.011    5.520156   -1.918327   -3.371944
   5 Fe   26.0000    0    55.850   -2.762978   -0.336672    0.063002
   6 Cl   17.0000    0    35.453   -3.912523   -3.612336   -2.122365
   7 C     6.0000    0    12.011    3.100474   -3.770240    0.299191
   8 Cl   17.0000    0    35.453   -5.107455    3.032302   -0.464808
   9 Cl   17.0000    0    35.453   -2.015221   -1.061374    4.067853
  10 H     1.0000    0     1.008    7.503946    1.118780    0.068646
  11 H     1.0000    0     1.008    4.032538   -5.623970    0.215334
  12 H     1.0000    0     1.008    2.433279   -3.489317    2.227418
  13 H     1.0000    0     1.008    1.455994   -3.905113   -0.951602
  14 H     1.0000    0     1.008    6.318861   -3.778390   -3.828700
  15 H     1.0000    0     1.008    3.803932   -1.725222   -4.519900
  16 H     1.0000    0     1.008    6.888040   -0.481453   -3.956501
  17 C     6.0000    0    12.011    5.860982    0.102665    3.753230
  18 H     1.0000    0     1.008    7.493924   -0.758362    4.703802
  19 H     1.0000    0     1.008    5.821528    2.088871    4.344996
  20 H     1.0000    0     1.008    4.160576   -0.810500    4.488816
  21 C     6.0000    0    12.011    1.472123    4.188217    1.330148
  22 H     1.0000    0     1.008    3.093117    5.418589    1.663237
  23 H     1.0000    0     1.008   -0.239372    5.361306    1.206617
  24 H     1.0000    0     1.008    1.208854    2.882925    2.905002
  25 C     6.0000    0    12.011    3.231224    3.934253   -3.197360
  26 H     1.0000    0     1.008    2.311912    5.719292   -3.730947
  27 H     1.0000    0     1.008    5.133158    4.396947   -2.539316
  28 H     1.0000    0     1.008    3.304133    2.694011   -4.837232



           ************************************************************
           *        Program running with 10 parallel MPI-processes    *
           *              working on a common directory               *
           ************************************************************


           ************************************************************
           *        Program running with 10 parallel MPI-processes    *
           *              working on a common directory               *
           ************************************************************

Diagonalization of the overlap matrix:
Smallest eigenvalue                        ... 8.591e-07
Time for diagonalization                   ...    0.344 sec
Threshold for overlap eigenvalues          ... 1.000e-08
Number of eigenvalues below threshold      ... 0
Time for construction of square roots      ...    0.285 sec
Total time needed                          ...    0.636 sec

-------------------
DFT GRID GENERATION
-------------------

General Integration Accuracy     IntAcc      ...  4.340
Radial Grid Type                 RadialGrid  ... Gauss-Chebyshev
Angular Grid (max. acc.)         AngularGrid ... Lebedev-110
Angular grid pruning method      GridPruning ... 3 (G Style)
Weight generation scheme         WeightScheme... Becke
Basis function cutoff            BFCut       ...    1.0000e-11
Integration weight cutoff        WCut        ...    1.0000e-14
Grids for H and He will be reduced by one unit

# of grid points (after initial pruning)     ...  36112 (   0.0 sec)
# of grid points (after weights+screening)   ...  32474 (   0.1 sec)
nearest neighbour list constructed           ...    0.0 sec
Grid point re-assignment to atoms done       ...    0.0 sec
Grid point division into batches done        ...    0.0 sec
Reduced shell lists constructed in    0.3 sec

Total number of grid points                  ...    32474
Total number of batches                      ...      524
Average number of points per batch           ...       61
Average number of grid points per atom       ...     1120
Average number of shells per batch           ...   283.83 (82.75%)
Average number of basis functions per batch  ...   839.31 (81.88%)
Average number of large shells per batch     ...   229.33 (80.80%)
Average number of large basis fcns per batch ...   679.59 (80.97%)
Maximum spatial batch extension              ...   3.57,  4.20,  4.18 au
Average spatial batch extension              ...   0.18,  0.19,  0.19 au

Time for grid setup =    0.412 sec

Loading Hartree-Fock densities                     ... done
Calculating cut-offs                               ... done
Setting up the integral package                    ... done
Initializing the effective Hamiltonian             ... done
Starting the Coulomb interaction                   ... done (   1.1 sec)
Reading the grid                                   ... done
Mapping shells                                     ... done
Starting the XC term evaluation                    ... done (   0.9 sec)
Transforming the Hamiltonian                       ... done (   0.2 sec)
Diagonalizing the Hamiltonian                      ... done (   0.4 sec)
Back transforming the eigenvectors                 ... done (   0.1 sec)
Now organizing SCF variables                       ... done
--------------
SCF ITERATIONS
--------------
ITER       Energy         Delta-E        Max-DP      RMS-DP      [F,P]     Damp
               ***  Starting incremental Fock matrix formation  ***
  0  -3027.5982925746   0.000000000000 0.15570807  0.00083328  0.2407617 0.7000
  1  -3027.8541333353  -0.255840760676 0.11724367  0.00066176  0.1574075 0.7000
                               ***Turning on DIIS***
  2  -3028.0249885399  -0.170855204610 0.08247436  0.00049061  0.1094815 0.7000
  3  -3029.6098036379  -1.584815097977 0.23636031  0.00125138  0.0816268 0.0000
  4  -3028.3172256009   1.292578037013 0.04150872  0.00021370  0.0197563 0.0000
  5  -3028.4428861235  -0.125660522662 0.03896516  0.00016739  0.0112441 0.0000
  6  -3028.4898418595  -0.046955735936 0.01927592  0.00006951  0.0053815 0.0000
  7  -3028.5045651844  -0.014723324959 0.00853563  0.00003192  0.0030176 0.0000
  8  -3028.4940852071   0.010479977317 0.00632385  0.00001849  0.0015751 0.0000
  9  -3028.4896230823   0.004462124812 0.00227507  0.00001035  0.0006897 0.0000
 10  -3028.4770137382   0.012609344105 0.00098375  0.00000338  0.0004276 0.0000
 11  -3028.4829996777  -0.005985939483 0.00028158  0.00000165  0.0000924 0.0000
 12  -3028.4808644287   0.002135248987 0.00022116  0.00000131  0.0000218 0.0000
 13  -3028.4807850389   0.000079389762 0.00034803  0.00000145  0.0000100 0.0000
 14  -3028.4807919249  -0.000006885933 0.00056927  0.00000172  0.0000068 0.0000
 15  -3028.4807504135   0.000041511361 0.00035152  0.00000143  0.0000045 0.0000
 16  -3028.4807501550   0.000000258501 0.00048412  0.00000186  0.0000038 0.0000
 17  -3028.4807652902  -0.000015135224 0.00042903  0.00000157  0.0000026 0.0000
 18  -3028.4807463218   0.000018968385 0.00068166  0.00000257  0.0000019 0.0000
                            ***DIIS convergence achieved***

               *****************************************************
               *                     SUCCESS                       *
               *           SCF CONVERGED AFTER  19 CYCLES          *
               *****************************************************

Total Energy       :        -3028.48075241 Eh          -82409.15087 eV
  Last Energy change         ...   -6.0845e-06  Tolerance :   1.0000e-08
  Last MAX-Density change    ...    3.1337e-04  Tolerance :   1.0000e-07
             **** THE GBW FILE WAS UPDATED (simple-grid-300-280-b3lyp_d3bj-631gd-gas-singlepoint-DLPNO_CCSD_T1-NormalPNO-augtz-gas.gbw) ****
             **** DENSITY FILE WAS UPDATED (simple-grid-300-280-b3lyp_d3bj-631gd-gas-singlepoint-DLPNO_CCSD_T1-NormalPNO-augtz-gas.scfp.tmp) ****
             **** ENERGY FILE WAS UPDATED (simple-grid-300-280-b3lyp_d3bj-631gd-gas-singlepoint-DLPNO_CCSD_T1-NormalPNO-augtz-gas.en.tmp) ****
----------------------
UHF SPIN CONTAMINATION
----------------------

Expectation value of <S**2>     :     8.765155
Ideal value S*(S+1) for S=2.5   :     8.750000
Deviation                       :     0.015155

----------------
ORBITAL ENERGIES
----------------
                 SPIN UP ORBITALS
  NO   OCC          E(Eh)            E(eV) 
   0   1.0000    -261.580668     -7117.9718 
   1   1.0000    -104.796540     -2851.6588 
   2   1.0000    -104.793811     -2851.5846 
   3   1.0000    -104.792125     -2851.5387 
   4   1.0000     -32.248272      -877.5201 
   5   1.0000     -27.724849      -754.4315 
   6   1.0000     -27.723563      -754.3965 
   7   1.0000     -27.723373      -754.3913 
   8   1.0000     -20.629428      -561.3553 
   9   1.0000     -11.422762      -310.8292 
  10   1.0000     -11.280752      -306.9649 
  11   1.0000     -11.274539      -306.7958 
  12   1.0000     -11.254829      -306.2595 
  13   1.0000     -11.236480      -305.7602 
  14   1.0000     -11.235679      -305.7384 
  15   1.0000     -11.233596      -305.6817 
  16   1.0000     -11.223990      -305.4203 
  17   1.0000     -10.523277      -286.3529 
  18   1.0000     -10.520531      -286.2782 
  19   1.0000     -10.518787      -286.2307 
  20   1.0000      -7.990092      -217.4215 
  21   1.0000      -7.989373      -217.4019 
  22   1.0000      -7.989309      -217.4002 
  23   1.0000      -7.987441      -217.3493 
  24   1.0000      -7.986613      -217.3268 
  25   1.0000      -7.986560      -217.3253 
  26   1.0000      -7.985561      -217.2982 
  27   1.0000      -7.984914      -217.2806 
  28   1.0000      -7.984878      -217.2796 
  29   1.0000      -4.602956      -125.2528 
  30   1.0000      -3.216127       -87.5153 
  31   1.0000      -3.214253       -87.4643 
  32   1.0000      -3.214171       -87.4620 
  33   1.0000      -1.473994       -40.1094 
  34   1.0000      -1.116063       -30.3696 
  35   1.0000      -1.105288       -30.0764 
  36   1.0000      -1.070363       -29.1261 
  37   1.0000      -1.064582       -28.9687 
  38   1.0000      -1.062181       -28.9034 
  39   1.0000      -1.020655       -27.7734 
  40   1.0000      -1.007616       -27.4186 
  41   1.0000      -0.951941       -25.9036 
  42   1.0000      -0.945916       -25.7397 
  43   1.0000      -0.931770       -25.3547 
  44   1.0000      -0.931614       -25.3505 
  45   1.0000      -0.920538       -25.0491 
  46   1.0000      -0.919890       -25.0315 
  47   1.0000      -0.888956       -24.1897 
  48   1.0000      -0.818760       -22.2796 
  49   1.0000      -0.721825       -19.6419 
  50   1.0000      -0.717326       -19.5194 
  51   1.0000      -0.707977       -19.2650 
  52   1.0000      -0.685880       -18.6637 
  53   1.0000      -0.647389       -17.6163 
  54   1.0000      -0.622146       -16.9295 
  55   1.0000      -0.614457       -16.7202 
  56   1.0000      -0.602867       -16.4048 
  57   1.0000      -0.600270       -16.3342 
  58   1.0000      -0.587030       -15.9739 
  59   1.0000      -0.579576       -15.7711 
  60   1.0000      -0.561261       -15.2727 
  61   1.0000      -0.548815       -14.9340 
  62   1.0000      -0.545998       -14.8574 
  63   1.0000      -0.537070       -14.6144 
  64   1.0000      -0.533849       -14.5268 
  65   1.0000      -0.520931       -14.1753 
  66   1.0000      -0.507641       -13.8136 
  67   1.0000      -0.486435       -13.2366 
  68   1.0000      -0.480059       -13.0631 
  69   1.0000      -0.478340       -13.0163 
  70   1.0000      -0.450095       -12.2477 
  71   1.0000      -0.443475       -12.0676 
  72   1.0000      -0.441722       -12.0199 
  73   1.0000      -0.433231       -11.7888 
  74   1.0000      -0.431985       -11.7549 
  75   1.0000      -0.430859       -11.7243 
  76   1.0000      -0.352523        -9.5926 
  77   0.0000       0.012762         0.3473 
  78   0.0000       0.024068         0.6549 
  79   0.0000       0.025112         0.6833 
  80   0.0000       0.031036         0.8445 
  81   0.0000       0.039671         1.0795 
  82   0.0000       0.041545         1.1305 
  83   0.0000       0.042541         1.1576 
  84   0.0000       0.043002         1.1701 
  85   0.0000       0.044227         1.2035 
  86   0.0000       0.056090         1.5263 
  87   0.0000       0.057767         1.5719 
  88   0.0000       0.061934         1.6853 
  89   0.0000       0.064439         1.7535 
  90   0.0000       0.065639         1.7861 
  91   0.0000       0.068992         1.8774 
  92   0.0000       0.073682         2.0050 
  93   0.0000       0.077292         2.1032 
  94   0.0000       0.082252         2.2382 
  95   0.0000       0.090132         2.4526 
  96   0.0000       0.092443         2.5155 
  97   0.0000       0.094139         2.5617 
  98   0.0000       0.095566         2.6005 
  99   0.0000       0.102849         2.7987 
 100   0.0000       0.106785         2.9058 
 101   0.0000       0.108335         2.9480 
 102   0.0000       0.117836         3.2065 
 103   0.0000       0.120753         3.2858 
 104   0.0000       0.123691         3.3658 
 105   0.0000       0.124250         3.3810 
 106   0.0000       0.125410         3.4126 
 107   0.0000       0.127347         3.4653 
 108   0.0000       0.130574         3.5531 
 109   0.0000       0.132736         3.6119 
 110   0.0000       0.136522         3.7150 
 111   0.0000       0.137536         3.7425 
 112   0.0000       0.143746         3.9115 
 113   0.0000       0.144222         3.9245 
 114   0.0000       0.147757         4.0207 
 115   0.0000       0.151568         4.1244 
 116   0.0000       0.156124         4.2483 
 117   0.0000       0.160951         4.3797 
 118   0.0000       0.163301         4.4436 
 119   0.0000       0.163778         4.4566 
 120   0.0000       0.168165         4.5760 
 121   0.0000       0.170438         4.6379 
 122   0.0000       0.175556         4.7771 
 123   0.0000       0.179378         4.8811 
 124   0.0000       0.182373         4.9626 
 125   0.0000       0.186390         5.0719 
 126   0.0000       0.187896         5.1129 
 127   0.0000       0.191023         5.1980 
 128   0.0000       0.193023         5.2524 
 129   0.0000       0.196406         5.3445 
 130   0.0000       0.196856         5.3567 
 131   0.0000       0.200722         5.4619 
 132   0.0000       0.202643         5.5142 
 133   0.0000       0.205927         5.6035 
 134   0.0000       0.209857         5.7105 
 135   0.0000       0.213878         5.8199 
 136   0.0000       0.216492         5.8910 
 137   0.0000       0.221873         6.0375 
 138   0.0000       0.224959         6.1215 
 139   0.0000       0.229814         6.2536 
 140   0.0000       0.232778         6.3342 
 141   0.0000       0.234632         6.3847 
 142   0.0000       0.238191         6.4815 
 143   0.0000       0.239363         6.5134 
 144   0.0000       0.243779         6.6336 
 145   0.0000       0.247529         6.7356 
 146   0.0000       0.250732         6.8228 
 147   0.0000       0.253541         6.8992 
 148   0.0000       0.255955         6.9649 
 149   0.0000       0.258972         7.0470 
 150   0.0000       0.260767         7.0958 
 151   0.0000       0.268963         7.3189 
 152   0.0000       0.272529         7.4159 
 153   0.0000       0.275774         7.5042 
 154   0.0000       0.279266         7.5992 
 155   0.0000       0.285699         7.7743 
 156   0.0000       0.291945         7.9442 
 157   0.0000       0.295008         8.0276 
 158   0.0000       0.297883         8.1058 
 159   0.0000       0.305743         8.3197 
 160   0.0000       0.306962         8.3529 
 161   0.0000       0.308387         8.3916 
 162   0.0000       0.315808         8.5936 
 163   0.0000       0.318360         8.6630 
 164   0.0000       0.325198         8.8491 
 165   0.0000       0.329236         8.9590 
 166   0.0000       0.331946         9.0327 
 167   0.0000       0.336584         9.1589 
 168   0.0000       0.337801         9.1920 
 169   0.0000       0.340229         9.2581 
 170   0.0000       0.347012         9.4427 
 171   0.0000       0.350284         9.5317 
 172   0.0000       0.353735         9.6256 
 173   0.0000       0.357576         9.7301 
 174   0.0000       0.358360         9.7515 
 175   0.0000       0.361549         9.8383 
 176   0.0000       0.366374         9.9695 
 177   0.0000       0.369793        10.0626 
 178   0.0000       0.372516        10.1367 
 179   0.0000       0.375061        10.2059 
 180   0.0000       0.377271        10.2661 
 181   0.0000       0.378493        10.2993 
 182   0.0000       0.381981        10.3942 
 183   0.0000       0.386115        10.5067 
 184   0.0000       0.387537        10.5454 
 185   0.0000       0.394074        10.7233 
 186   0.0000       0.394353        10.7309 
 187   0.0000       0.396353        10.7853 
 188   0.0000       0.400523        10.8988 
 189   0.0000       0.405227        11.0268 
 190   0.0000       0.407555        11.0901 
 191   0.0000       0.409566        11.1448 
 192   0.0000       0.413731        11.2582 
 193   0.0000       0.416908        11.3446 
 194   0.0000       0.422341        11.4925 
 195   0.0000       0.430358        11.7106 
 196   0.0000       0.433794        11.8041 
 197   0.0000       0.436510        11.8780 
 198   0.0000       0.437069        11.8933 
 199   0.0000       0.445481        12.1221 
 200   0.0000       0.448233        12.1970 
 201   0.0000       0.453725        12.3465 
 202   0.0000       0.454147        12.3580 
 203   0.0000       0.457584        12.4515 
 204   0.0000       0.461441        12.5565 
 205   0.0000       0.462535        12.5862 
 206   0.0000       0.465813        12.6754 
 207   0.0000       0.470748        12.8097 
 208   0.0000       0.474145        12.9021 
 209   0.0000       0.478404        13.0180 
 210   0.0000       0.481909        13.1134 
 211   0.0000       0.486269        13.2321 
 212   0.0000       0.489769        13.3273 
 213   0.0000       0.497316        13.5327 
 214   0.0000       0.498284        13.5590 
 215   0.0000       0.499897        13.6029 
 216   0.0000       0.503432        13.6991 
 217   0.0000       0.506748        13.7893 
 218   0.0000       0.508858        13.8467 
 219   0.0000       0.513442        13.9715 
 220   0.0000       0.514932        14.0120 
 221   0.0000       0.516682        14.0596 
 222   0.0000       0.520632        14.1671 
 223   0.0000       0.524869        14.2824 
 224   0.0000       0.527151        14.3445 
 225   0.0000       0.528857        14.3909 
 226   0.0000       0.531432        14.4610 
 227   0.0000       0.535493        14.5715 
 228   0.0000       0.537994        14.6396 
 229   0.0000       0.541411        14.7325 
 230   0.0000       0.544547        14.8179 
 231   0.0000       0.548487        14.9251 
 232   0.0000       0.550800        14.9880 
 233   0.0000       0.554739        15.0952 
 234   0.0000       0.559630        15.2283 
 235   0.0000       0.567700        15.4479 
 236   0.0000       0.569878        15.5072 
 237   0.0000       0.571336        15.5468 
 238   0.0000       0.574464        15.6319 
 239   0.0000       0.575245        15.6532 
 240   0.0000       0.581716        15.8293 
 241   0.0000       0.584307        15.8998 
 242   0.0000       0.585879        15.9426 
 243   0.0000       0.592013        16.1095 
 244   0.0000       0.595852        16.2140 
 245   0.0000       0.597538        16.2598 
 246   0.0000       0.601599        16.3703 
 247   0.0000       0.608186        16.5496 
 248   0.0000       0.610424        16.6105 
 249   0.0000       0.613022        16.6812 
 250   0.0000       0.617975        16.8160 
 251   0.0000       0.624495        16.9934 
 252   0.0000       0.625702        17.0262 
 253   0.0000       0.628208        17.0944 
 254   0.0000       0.635019        17.2797 
 255   0.0000       0.636819        17.3287 
 256   0.0000       0.643726        17.5167 
 257   0.0000       0.649176        17.6650 
 258   0.0000       0.650190        17.6926 
 259   0.0000       0.657492        17.8913 
 260   0.0000       0.658713        17.9245 
 261   0.0000       0.660059        17.9611 
 262   0.0000       0.663641        18.0586 
 263   0.0000       0.667182        18.1549 
 264   0.0000       0.672363        18.2959 
 265   0.0000       0.674115        18.3436 
 266   0.0000       0.676921        18.4200 
 267   0.0000       0.686075        18.6691 
 268   0.0000       0.686858        18.6903 
 269   0.0000       0.693111        18.8605 
 270   0.0000       0.696515        18.9531 
 271   0.0000       0.701291        19.0831 
 272   0.0000       0.703371        19.1397 
 273   0.0000       0.705652        19.2018 
 274   0.0000       0.714018        19.4294 
 275   0.0000       0.719978        19.5916 
 276   0.0000       0.721639        19.6368 
 277   0.0000       0.727006        19.7828 
 278   0.0000       0.729989        19.8640 
 279   0.0000       0.735244        20.0070 
 280   0.0000       0.740312        20.1449 
 281   0.0000       0.745729        20.2923 
 282   0.0000       0.754329        20.5263 
 283   0.0000       0.760250        20.6875 
 284   0.0000       0.764653        20.8073 
 285   0.0000       0.770482        20.9659 
 286   0.0000       0.771995        21.0070 
 287   0.0000       0.777379        21.1536 
 288   0.0000       0.782646        21.2969 
 289   0.0000       0.800039        21.7702 
 290   0.0000       0.802345        21.8329 
 291   0.0000       0.812304        22.1039 
 292   0.0000       0.819286        22.2939 
 293   0.0000       0.822740        22.3879 
 294   0.0000       0.826498        22.4902 
 295   0.0000       0.832908        22.6646 
 296   0.0000       0.838644        22.8207 
 297   0.0000       0.841948        22.9106 
 298   0.0000       0.844978        22.9930 
 299   0.0000       0.851768        23.1778 
 300   0.0000       0.855873        23.2895 
 301   0.0000       0.863073        23.4854 
 302   0.0000       0.869629        23.6638 
 303   0.0000       0.872990        23.7553 
 304   0.0000       0.880049        23.9473 
 305   0.0000       0.881906        23.9979 
 306   0.0000       0.883813        24.0498 
 307   0.0000       0.888037        24.1647 
 308   0.0000       0.889531        24.2054 
 309   0.0000       0.902736        24.5647 
 310   0.0000       0.906529        24.6679 
 311   0.0000       0.907310        24.6891 
 312   0.0000       0.911802        24.8114 
 313   0.0000       0.914938        24.8967 
 314   0.0000       0.918802        25.0019 
 315   0.0000       0.922683        25.1075 
 316   0.0000       0.923656        25.1340 
 317   0.0000       0.928279        25.2598 
 318   0.0000       0.932746        25.3813 
 319   0.0000       0.936961        25.4960 
 320   0.0000       0.940967        25.6050 
 321   0.0000       0.946950        25.7678 
 322   0.0000       0.948469        25.8092 
 323   0.0000       0.950673        25.8691 
 324   0.0000       0.952911        25.9300 
 325   0.0000       0.957258        26.0483 
 326   0.0000       0.962046        26.1786 
 327   0.0000       0.965231        26.2653 
 328   0.0000       0.966239        26.2927 
 329   0.0000       0.968278        26.3482 
 330   0.0000       0.970432        26.4068 
 331   0.0000       0.978472        26.6256 
 332   0.0000       0.981008        26.6946 
 333   0.0000       0.984837        26.7988 
 334   0.0000       0.990190        26.9444 
 335   0.0000       0.994084        27.0504 
 336   0.0000       0.999373        27.1943 
 337   0.0000       1.002879        27.2897 
 338   0.0000       1.006931        27.4000 
 339   0.0000       1.009249        27.4630 
 340   0.0000       1.010905        27.5081 
 341   0.0000       1.015632        27.6368 
 342   0.0000       1.020261        27.7627 
 343   0.0000       1.023980        27.8639 
 344   0.0000       1.027288        27.9539 
 345   0.0000       1.033416        28.1207 
 346   0.0000       1.034870        28.1602 
 347   0.0000       1.037392        28.2289 
 348   0.0000       1.043275        28.3890 
 349   0.0000       1.045313        28.4444 
 350   0.0000       1.049228        28.5510 
 351   0.0000       1.051713        28.6186 
 352   0.0000       1.054848        28.7039 
 353   0.0000       1.055387        28.7185 
 354   0.0000       1.061917        28.8962 
 355   0.0000       1.065631        28.9973 
 356   0.0000       1.071241        29.1500 
 357   0.0000       1.073089        29.2002 
 358   0.0000       1.075552        29.2673 
 359   0.0000       1.076109        29.2824 
 360   0.0000       1.086982        29.5783 
 361   0.0000       1.088910        29.6307 
 362   0.0000       1.094530        29.7837 
 363   0.0000       1.099246        29.9120 
 364   0.0000       1.101123        29.9631 
 365   0.0000       1.106783        30.1171 
 366   0.0000       1.111437        30.2437 
 367   0.0000       1.115136        30.3444 
 368   0.0000       1.118959        30.4484 
 369   0.0000       1.121759        30.5246 
 370   0.0000       1.130399        30.7597 
 371   0.0000       1.131923        30.8012 
 372   0.0000       1.136529        30.9265 
 373   0.0000       1.142699        31.0944 
 374   0.0000       1.144438        31.1417 
 375   0.0000       1.148473        31.2515 
 376   0.0000       1.153351        31.3843 
 377   0.0000       1.155364        31.4391 
 378   0.0000       1.162434        31.6314 
 379   0.0000       1.167272        31.7631 
 380   0.0000       1.169875        31.8339 
 381   0.0000       1.172292        31.8997 
 382   0.0000       1.179609        32.0988 
 383   0.0000       1.181613        32.1533 
 384   0.0000       1.187399        32.3108 
 385   0.0000       1.190836        32.4043 
 386   0.0000       1.194104        32.4932 
 387   0.0000       1.200959        32.6798 
 388   0.0000       1.206580        32.8327 
 389   0.0000       1.211021        32.9536 
 390   0.0000       1.216459        33.1015 
 391   0.0000       1.222452        33.2646 
 392   0.0000       1.226358        33.3709 
 393   0.0000       1.230600        33.4863 
 394   0.0000       1.237704        33.6796 
 395   0.0000       1.243077        33.8258 
 396   0.0000       1.246433        33.9172 
 397   0.0000       1.250181        34.0192 
 398   0.0000       1.254216        34.1290 
 399   0.0000       1.260499        34.2999 
 400   0.0000       1.262137        34.3445 
 401   0.0000       1.266793        34.4712 
 402   0.0000       1.269157        34.5355 
 403   0.0000       1.274525        34.6816 
 404   0.0000       1.277496        34.7624 
 405   0.0000       1.283618        34.9290 
 406   0.0000       1.288320        35.0570 
 407   0.0000       1.292052        35.1585 
 408   0.0000       1.296923        35.2911 
 409   0.0000       1.302017        35.4297 
 410   0.0000       1.308114        35.5956 
 411   0.0000       1.313270        35.7359 
 412   0.0000       1.314803        35.7776 
 413   0.0000       1.322974        36.0000 
 414   0.0000       1.324665        36.0460 
 415   0.0000       1.332440        36.2575 
 416   0.0000       1.336634        36.3717 
 417   0.0000       1.340344        36.4726 
 418   0.0000       1.345209        36.6050 
 419   0.0000       1.354609        36.8608 
 420   0.0000       1.360601        37.0238 
 421   0.0000       1.362741        37.0821 
 422   0.0000       1.368097        37.2278 
 423   0.0000       1.374497        37.4020 
 424   0.0000       1.378506        37.5111 
 425   0.0000       1.383936        37.6588 
 426   0.0000       1.386006        37.7151 
 427   0.0000       1.390947        37.8496 
 428   0.0000       1.402022        38.1510 
 429   0.0000       1.409336        38.3500 
 430   0.0000       1.412170        38.4271 
 431   0.0000       1.414469        38.4897 
 432   0.0000       1.424000        38.7490 
 433   0.0000       1.429769        38.9060 
 434   0.0000       1.435697        39.0673 
 435   0.0000       1.437830        39.1254 
 436   0.0000       1.449812        39.4514 
 437   0.0000       1.450382        39.4669 
 438   0.0000       1.454793        39.5869 
 439   0.0000       1.457620        39.6639 
 440   0.0000       1.460904        39.7532 
 441   0.0000       1.465964        39.8909 
 442   0.0000       1.469563        39.9888 
 443   0.0000       1.475597        40.1530 
 444   0.0000       1.479232        40.2520 
 445   0.0000       1.482638        40.3446 
 446   0.0000       1.492809        40.6214 
 447   0.0000       1.496465        40.7209 
 448   0.0000       1.500168        40.8217 
 449   0.0000       1.504431        40.9377 
 450   0.0000       1.515447        41.2374 
 451   0.0000       1.519693        41.3529 
 452   0.0000       1.525212        41.5031 
 453   0.0000       1.529877        41.6301 
 454   0.0000       1.533301        41.7233 
 455   0.0000       1.536886        41.8208 
 456   0.0000       1.541019        41.9333 
 457   0.0000       1.549975        42.1770 
 458   0.0000       1.555770        42.3347 
 459   0.0000       1.562320        42.5129 
 460   0.0000       1.566838        42.6358 
 461   0.0000       1.570369        42.7319 
 462   0.0000       1.576811        42.9072 
 463   0.0000       1.583907        43.1003 
 464   0.0000       1.593431        43.3595 
 465   0.0000       1.602511        43.6065 
 466   0.0000       1.607450        43.7409 
 467   0.0000       1.610489        43.8236 
 468   0.0000       1.611265        43.8448 
 469   0.0000       1.620736        44.1025 
 470   0.0000       1.628770        44.3211 
 471   0.0000       1.633640        44.4536 
 472   0.0000       1.637017        44.5455 
 473   0.0000       1.643445        44.7204 
 474   0.0000       1.647995        44.8442 
 475   0.0000       1.652841        44.9761 
 476   0.0000       1.654181        45.0125 
 477   0.0000       1.660941        45.1965 
 478   0.0000       1.666798        45.3559 
 479   0.0000       1.668551        45.4036 
 480   0.0000       1.675852        45.6022 
 481   0.0000       1.679585        45.7038 
 482   0.0000       1.694720        46.1157 
 483   0.0000       1.696433        46.1623 
 484   0.0000       1.698528        46.2193 
 485   0.0000       1.705714        46.4148 
 486   0.0000       1.708860        46.5004 
 487   0.0000       1.715254        46.6744 
 488   0.0000       1.724730        46.9323 
 489   0.0000       1.727524        47.0083 
 490   0.0000       1.728625        47.0383 
 491   0.0000       1.740901        47.3723 
 492   0.0000       1.745350        47.4934 
 493   0.0000       1.751464        47.6598 
 494   0.0000       1.752639        47.6917 
 495   0.0000       1.758955        47.8636 
 496   0.0000       1.761633        47.9365 
 497   0.0000       1.766961        48.0815 
 498   0.0000       1.783466        48.5306 
 499   0.0000       1.784397        48.5559 
 500   0.0000       1.785553        48.5874 
 501   0.0000       1.789040        48.6823 
 502   0.0000       1.793544        48.8048 
 503   0.0000       1.796449        48.8839 
 504   0.0000       1.804504        49.1031 
 505   0.0000       1.806710        49.1631 
 506   0.0000       1.810918        49.2776 
 507   0.0000       1.813582        49.3501 
 508   0.0000       1.820822        49.5471 
 509   0.0000       1.824280        49.6412 
 510   0.0000       1.831078        49.8262 
 511   0.0000       1.834864        49.9292 
 512   0.0000       1.836719        49.9797 
 513   0.0000       1.844227        50.1840 
 514   0.0000       1.847619        50.2763 
 515   0.0000       1.854623        50.4669 
 516   0.0000       1.855692        50.4960 
 517   0.0000       1.864273        50.7295 
 518   0.0000       1.871368        50.9225 
 519   0.0000       1.878925        51.1282 
 520   0.0000       1.882498        51.2254 
 521   0.0000       1.888187        51.3802 
 522   0.0000       1.892994        51.5110 
 523   0.0000       1.899161        51.6788 
 524   0.0000       1.901901        51.7533 
 525   0.0000       1.907586        51.9081 
 526   0.0000       1.915643        52.1273 
 527   0.0000       1.923232        52.3338 
 528   0.0000       1.929471        52.5036 
 529   0.0000       1.933560        52.6148 
 530   0.0000       1.938340        52.7449 
 531   0.0000       1.943926        52.8969 
 532   0.0000       1.951781        53.1107 
 533   0.0000       1.958374        53.2901 
 534   0.0000       1.961345        53.3709 
 535   0.0000       1.964379        53.4535 
 536   0.0000       1.970564        53.6218 
 537   0.0000       1.978645        53.8417 
 538   0.0000       1.984094        53.9900 
 539   0.0000       1.988714        54.1157 
 540   0.0000       1.998838        54.3912 
 541   0.0000       2.001916        54.4749 
 542   0.0000       2.007711        54.6326 
 543   0.0000       2.013326        54.7854 
 544   0.0000       2.017499        54.8989 
 545   0.0000       2.024511        55.0897 
 546   0.0000       2.038375        55.4670 
 547   0.0000       2.040000        55.5112 
 548   0.0000       2.048936        55.7544 
 549   0.0000       2.060264        56.0626 
 550   0.0000       2.060919        56.0805 
 551   0.0000       2.068935        56.2986 
 552   0.0000       2.072735        56.4020 
 553   0.0000       2.079840        56.5953 
 554   0.0000       2.088007        56.8176 
 555   0.0000       2.095163        57.0123 
 556   0.0000       2.100940        57.1695 
 557   0.0000       2.102493        57.2117 
 558   0.0000       2.105058        57.2816 
 559   0.0000       2.119043        57.6621 
 560   0.0000       2.122055        57.7441 
 561   0.0000       2.131393        57.9982 
 562   0.0000       2.138173        58.1826 
 563   0.0000       2.150599        58.5208 
 564   0.0000       2.157688        58.7137 
 565   0.0000       2.171531        59.0904 
 566   0.0000       2.176551        59.2270 
 567   0.0000       2.178556        59.2815 
 568   0.0000       2.181682        59.3666 
 569   0.0000       2.187273        59.5187 
 570   0.0000       2.190736        59.6130 
 571   0.0000       2.199436        59.8497 
 572   0.0000       2.211614        60.1811 
 573   0.0000       2.221852        60.4597 
 574   0.0000       2.225038        60.5464 
 575   0.0000       2.231047        60.7099 
 576   0.0000       2.235904        60.8420 
 577   0.0000       2.239522        60.9405 
 578   0.0000       2.247707        61.1632 
 579   0.0000       2.261207        61.5306 
 580   0.0000       2.268578        61.7312 
 581   0.0000       2.273248        61.8582 
 582   0.0000       2.275463        61.9185 
 583   0.0000       2.283577        62.1393 
 584   0.0000       2.296609        62.4939 
 585   0.0000       2.300645        62.6037 
 586   0.0000       2.316883        63.0456 
 587   0.0000       2.321005        63.1578 
 588   0.0000       2.329822        63.3977 
 589   0.0000       2.332695        63.4759 
 590   0.0000       2.343963        63.7825 
 591   0.0000       2.345518        63.8248 
 592   0.0000       2.356830        64.1326 
 593   0.0000       2.366346        64.3915 
 594   0.0000       2.369940        64.4893 
 595   0.0000       2.378916        64.7336 
 596   0.0000       2.384937        64.8974 
 597   0.0000       2.389646        65.0256 
 598   0.0000       2.394685        65.1627 
 599   0.0000       2.409574        65.5678 
 600   0.0000       2.424037        65.9614 
 601   0.0000       2.429457        66.1089 
 602   0.0000       2.432073        66.1801 
 603   0.0000       2.439658        66.3865 
 604   0.0000       2.457005        66.8585 
 605   0.0000       2.462974        67.0209 
 606   0.0000       2.475419        67.3596 
 607   0.0000       2.480199        67.4896 
 608   0.0000       2.488403        67.7129 
 609   0.0000       2.496506        67.9334 
 610   0.0000       2.505009        68.1648 
 611   0.0000       2.512981        68.3817 
 612   0.0000       2.530039        68.8459 
 613   0.0000       2.545032        69.2538 
 614   0.0000       2.550966        69.4153 
 615   0.0000       2.565355        69.8069 
 616   0.0000       2.572258        69.9947 
 617   0.0000       2.603673        70.8495 
 618   0.0000       2.625065        71.4316 
 619   0.0000       2.632450        71.6326 
 620   0.0000       2.643687        71.9384 
 621   0.0000       2.652601        72.1809 
 622   0.0000       2.657492        72.3140 
 623   0.0000       2.672160        72.7132 
 624   0.0000       2.675201        72.7959 
 625   0.0000       2.680065        72.9283 
 626   0.0000       2.698413        73.4276 
 627   0.0000       2.701136        73.5017 
 628   0.0000       2.704879        73.6035 
 629   0.0000       2.707686        73.6799 
 630   0.0000       2.718271        73.9679 
 631   0.0000       2.727119        74.2087 
 632   0.0000       2.746158        74.7268 
 633   0.0000       2.747336        74.7588 
 634   0.0000       2.763129        75.1886 
 635   0.0000       2.768059        75.3227 
 636   0.0000       2.781086        75.6772 
 637   0.0000       2.783009        75.7295 
 638   0.0000       2.790916        75.9447 
 639   0.0000       2.802898        76.2707 
 640   0.0000       2.820612        76.7528 
 641   0.0000       2.828070        76.9557 
 642   0.0000       2.836242        77.1781 
 643   0.0000       2.861568        77.8672 
 644   0.0000       2.864920        77.9584 
 645   0.0000       2.886122        78.5354 
 646   0.0000       2.890517        78.6550 
 647   0.0000       2.894980        78.7764 
 648   0.0000       2.903709        79.0139 
 649   0.0000       2.928360        79.6847 
 650   0.0000       2.934598        79.8545 
 651   0.0000       2.954478        80.3954 
 652   0.0000       2.961891        80.5971 
 653   0.0000       2.979954        81.0887 
 654   0.0000       2.985755        81.2465 
 655   0.0000       2.996892        81.5496 
 656   0.0000       3.035363        82.5964 
 657   0.0000       3.042403        82.7880 
 658   0.0000       3.070745        83.5592 
 659   0.0000       3.082504        83.8792 
 660   0.0000       3.091141        84.1142 
 661   0.0000       3.095134        84.2229 
 662   0.0000       3.114016        84.7367 
 663   0.0000       3.124669        85.0266 
 664   0.0000       3.133323        85.2621 
 665   0.0000       3.145697        85.5988 
 666   0.0000       3.168418        86.2170 
 667   0.0000       3.183815        86.6360 
 668   0.0000       3.189694        86.7960 
 669   0.0000       3.195107        86.9433 
 670   0.0000       3.209758        87.3420 
 671   0.0000       3.217101        87.5418 
 672   0.0000       3.232583        87.9630 
 673   0.0000       3.241108        88.1950 
 674   0.0000       3.251528        88.4786 
 675   0.0000       3.255374        88.5832 
 676   0.0000       3.263637        88.8081 
 677   0.0000       3.272606        89.0521 
 678   0.0000       3.275773        89.1383 
 679   0.0000       3.294396        89.6451 
 680   0.0000       3.299725        89.7901 
 681   0.0000       3.310318        90.0783 
 682   0.0000       3.326647        90.5227 
 683   0.0000       3.331275        90.6486 
 684   0.0000       3.338140        90.8354 
 685   0.0000       3.345868        91.0457 
 686   0.0000       3.358339        91.3851 
 687   0.0000       3.368725        91.6677 
 688   0.0000       3.384979        92.1100 
 689   0.0000       3.401633        92.5631 
 690   0.0000       3.405181        92.6597 
 691   0.0000       3.409006        92.7638 
 692   0.0000       3.419462        93.0483 
 693   0.0000       3.433777        93.4378 
 694   0.0000       3.439473        93.5928 
 695   0.0000       3.443011        93.6891 
 696   0.0000       3.451427        93.9181 
 697   0.0000       3.462996        94.2329 
 698   0.0000       3.474427        94.5440 
 699   0.0000       3.475960        94.5857 
 700   0.0000       3.489736        94.9606 
 701   0.0000       3.493575        95.0650 
 702   0.0000       3.503843        95.3444 
 703   0.0000       3.507425        95.4419 
 704   0.0000       3.512121        95.5697 
 705   0.0000       3.520815        95.8062 
 706   0.0000       3.530846        96.0792 
 707   0.0000       3.538737        96.2939 
 708   0.0000       3.544073        96.4391 
 709   0.0000       3.551440        96.6396 
 710   0.0000       3.562435        96.9388 
 711   0.0000       3.573542        97.2410 
 712   0.0000       3.579464        97.4022 
 713   0.0000       3.587683        97.6258 
 714   0.0000       3.597482        97.8925 
 715   0.0000       3.604344        98.0792 
 716   0.0000       3.614081        98.3441 
 717   0.0000       3.628945        98.7486 
 718   0.0000       3.643202        99.1366 
 719   0.0000       3.650899        99.3460 
 720   0.0000       3.655722        99.4772 
 721   0.0000       3.657656        99.5299 
 722   0.0000       3.664623        99.7194 
 723   0.0000       3.674184        99.9796 
 724   0.0000       3.681404       100.1761 
 725   0.0000       3.687148       100.3324 
 726   0.0000       3.692086       100.4668 
 727   0.0000       3.700771       100.7031 
 728   0.0000       3.705009       100.8184 
 729   0.0000       3.708378       100.9101 
 730   0.0000       3.714925       101.0883 
 731   0.0000       3.716593       101.1336 
 732   0.0000       3.730674       101.5168 
 733   0.0000       3.732130       101.5564 
 734   0.0000       3.746599       101.9501 
 735   0.0000       3.757170       102.2378 
 736   0.0000       3.758941       102.2860 
 737   0.0000       3.766107       102.4810 
 738   0.0000       3.772258       102.6484 
 739   0.0000       3.780079       102.8612 
 740   0.0000       3.782057       102.9150 
 741   0.0000       3.791046       103.1596 
 742   0.0000       3.797290       103.3295 
 743   0.0000       3.804614       103.5288 
 744   0.0000       3.822040       104.0030 
 745   0.0000       3.834124       104.3318 
 746   0.0000       3.842306       104.5545 
 747   0.0000       3.852767       104.8391 
 748   0.0000       3.856624       104.9441 
 749   0.0000       3.862680       105.1089 
 750   0.0000       3.869375       105.2910 
 751   0.0000       3.870863       105.3315 
 752   0.0000       3.884012       105.6893 
 753   0.0000       3.888822       105.8202 
 754   0.0000       3.901868       106.1752 
 755   0.0000       3.910225       106.4026 
 756   0.0000       3.916719       106.5794 
 757   0.0000       3.925935       106.8301 
 758   0.0000       3.933633       107.0396 
 759   0.0000       3.937263       107.1384 
 760   0.0000       3.943133       107.2981 
 761   0.0000       3.945984       107.3757 
 762   0.0000       3.952361       107.5492 
 763   0.0000       3.959512       107.7438 
 764   0.0000       3.968884       107.9988 
 765   0.0000       3.977978       108.2463 
 766   0.0000       3.982387       108.3663 
 767   0.0000       3.987097       108.4944 
 768   0.0000       3.991897       108.6250 
 769   0.0000       4.002706       108.9192 
 770   0.0000       4.011340       109.1541 
 771   0.0000       4.016824       109.3033 
 772   0.0000       4.022908       109.4689 
 773   0.0000       4.028128       109.6109 
 774   0.0000       4.037355       109.8620 
 775   0.0000       4.049569       110.1944 
 776   0.0000       4.054759       110.3356 
 777   0.0000       4.058666       110.4419 
 778   0.0000       4.069320       110.7318 
 779   0.0000       4.076411       110.9248 
 780   0.0000       4.082537       111.0915 
 781   0.0000       4.089784       111.2887 
 782   0.0000       4.102121       111.6244 
 783   0.0000       4.107934       111.7826 
 784   0.0000       4.115125       111.9782 
 785   0.0000       4.120622       112.1278 
 786   0.0000       4.130749       112.4034 
 787   0.0000       4.137953       112.5994 
 788   0.0000       4.143552       112.7518 
 789   0.0000       4.151759       112.9751 
 790   0.0000       4.162454       113.2661 
 791   0.0000       4.169399       113.4551 
 792   0.0000       4.179514       113.7304 
 793   0.0000       4.183078       113.8273 
 794   0.0000       4.193736       114.1174 
 795   0.0000       4.202881       114.3662 
 796   0.0000       4.204738       114.4167 
 797   0.0000       4.207917       114.5032 
 798   0.0000       4.213062       114.6432 
 799   0.0000       4.216999       114.7504 
 800   0.0000       4.230034       115.1051 
 801   0.0000       4.248327       115.6028 
 802   0.0000       4.250747       115.6687 
 803   0.0000       4.262554       115.9900 
 804   0.0000       4.270420       116.2040 
 805   0.0000       4.283875       116.5702 
 806   0.0000       4.290670       116.7551 
 807   0.0000       4.291895       116.7884 
 808   0.0000       4.301637       117.0535 
 809   0.0000       4.311207       117.3139 
 810   0.0000       4.325294       117.6972 
 811   0.0000       4.344293       118.2142 
 812   0.0000       4.351473       118.4096 
 813   0.0000       4.353735       118.4711 
 814   0.0000       4.365014       118.7781 
 815   0.0000       4.375631       119.0670 
 816   0.0000       4.383633       119.2847 
 817   0.0000       4.394568       119.5823 
 818   0.0000       4.411489       120.0427 
 819   0.0000       4.420868       120.2979 
 820   0.0000       4.427631       120.4820 
 821   0.0000       4.431151       120.5778 
 822   0.0000       4.446254       120.9887 
 823   0.0000       4.450109       121.0936 
 824   0.0000       4.470694       121.6538 
 825   0.0000       4.479638       121.8972 
 826   0.0000       4.491679       122.2248 
 827   0.0000       4.496397       122.3532 
 828   0.0000       4.511030       122.7514 
 829   0.0000       4.514039       122.8333 
 830   0.0000       4.519184       122.9733 
 831   0.0000       4.530187       123.2727 
 832   0.0000       4.541254       123.5738 
 833   0.0000       4.546487       123.7162 
 834   0.0000       4.556222       123.9811 
 835   0.0000       4.565621       124.2369 
 836   0.0000       4.567497       124.2879 
 837   0.0000       4.587077       124.8207 
 838   0.0000       4.590157       124.9045 
 839   0.0000       4.600206       125.1780 
 840   0.0000       4.621250       125.7506 
 841   0.0000       4.636033       126.1529 
 842   0.0000       4.640223       126.2669 
 843   0.0000       4.653258       126.6216 
 844   0.0000       4.657827       126.7459 
 845   0.0000       4.666813       126.9904 
 846   0.0000       4.676282       127.2481 
 847   0.0000       4.688768       127.5879 
 848   0.0000       4.699964       127.8925 
 849   0.0000       4.708596       128.1274 
 850   0.0000       4.727814       128.6504 
 851   0.0000       4.737922       128.9254 
 852   0.0000       4.740391       128.9926 
 853   0.0000       4.766932       129.7148 
 854   0.0000       4.776768       129.9825 
 855   0.0000       4.791086       130.3721 
 856   0.0000       4.792291       130.4049 
 857   0.0000       4.811746       130.9343 
 858   0.0000       4.819780       131.1529 
 859   0.0000       4.825123       131.2983 
 860   0.0000       4.836533       131.6088 
 861   0.0000       4.852536       132.0442 
 862   0.0000       4.861858       132.2979 
 863   0.0000       4.883058       132.8748 
 864   0.0000       4.888329       133.0182 
 865   0.0000       4.894624       133.1895 
 866   0.0000       4.904073       133.4466 
 867   0.0000       4.914260       133.7238 
 868   0.0000       4.928485       134.1109 
 869   0.0000       4.939133       134.4006 
 870   0.0000       4.952001       134.7508 
 871   0.0000       4.967702       135.1781 
 872   0.0000       4.983963       135.6205 
 873   0.0000       4.992706       135.8584 
 874   0.0000       5.000821       136.0793 
 875   0.0000       5.008951       136.3005 
 876   0.0000       5.014659       136.4558 
 877   0.0000       5.029592       136.8622 
 878   0.0000       5.036325       137.0454 
 879   0.0000       5.053778       137.5203 
 880   0.0000       5.071043       137.9901 
 881   0.0000       5.085099       138.3726 
 882   0.0000       5.095067       138.6438 
 883   0.0000       5.111194       139.0827 
 884   0.0000       5.123539       139.4186 
 885   0.0000       5.129013       139.5676 
 886   0.0000       5.139948       139.8651 
 887   0.0000       5.158014       140.3567 
 888   0.0000       5.164663       140.5376 
 889   0.0000       5.175596       140.8351 
 890   0.0000       5.188354       141.1823 
 891   0.0000       5.203794       141.6024 
 892   0.0000       5.214490       141.8935 
 893   0.0000       5.224826       142.1747 
 894   0.0000       5.237473       142.5189 
 895   0.0000       5.254401       142.9795 
 896   0.0000       5.258256       143.0844 
 897   0.0000       5.277051       143.5958 
 898   0.0000       5.295907       144.1090 
 899   0.0000       5.307467       144.4235 
 900   0.0000       5.321020       144.7923 
 901   0.0000       5.328642       144.9997 
 902   0.0000       5.345615       145.4616 
 903   0.0000       5.355069       145.7188 
 904   0.0000       5.368583       146.0866 
 905   0.0000       5.372025       146.1802 
 906   0.0000       5.400659       146.9594 
 907   0.0000       5.407668       147.1501 
 908   0.0000       5.420346       147.4951 
 909   0.0000       5.425026       147.6225 
 910   0.0000       5.446640       148.2106 
 911   0.0000       5.450931       148.3274 
 912   0.0000       5.462602       148.6450 
 913   0.0000       5.481044       149.1468 
 914   0.0000       5.485400       149.2653 
 915   0.0000       5.497395       149.5917 
 916   0.0000       5.516755       150.1185 
 917   0.0000       5.525454       150.3552 
 918   0.0000       5.537577       150.6851 
 919   0.0000       5.544859       150.8833 
 920   0.0000       5.559163       151.2725 
 921   0.0000       5.580552       151.8545 
 922   0.0000       5.591577       152.1546 
 923   0.0000       5.604858       152.5159 
 924   0.0000       5.615045       152.7932 
 925   0.0000       5.623011       153.0099 
 926   0.0000       5.634499       153.3225 
 927   0.0000       5.642281       153.5343 
 928   0.0000       5.651072       153.7735 
 929   0.0000       5.668150       154.2382 
 930   0.0000       5.675417       154.4360 
 931   0.0000       5.693577       154.9301 
 932   0.0000       5.702267       155.1666 
 933   0.0000       5.712421       155.4429 
 934   0.0000       5.721216       155.6822 
 935   0.0000       5.731615       155.9652 
 936   0.0000       5.742527       156.2621 
 937   0.0000       5.767087       156.9304 
 938   0.0000       5.780222       157.2878 
 939   0.0000       5.795981       157.7167 
 940   0.0000       5.819525       158.3573 
 941   0.0000       5.862129       159.5167 
 942   0.0000       5.874921       159.8647 
 943   0.0000       5.888646       160.2382 
 944   0.0000       5.933413       161.4564 
 945   0.0000       5.963005       162.2616 
 946   0.0000       6.035978       164.2473 
 947   0.0000       6.068054       165.1201 
 948   0.0000       6.085731       165.6011 
 949   0.0000       6.109351       166.2439 
 950   0.0000       6.134538       166.9293 
 951   0.0000       6.149903       167.3474 
 952   0.0000       6.156655       167.5311 
 953   0.0000       6.166206       167.7910 
 954   0.0000       6.198199       168.6616 
 955   0.0000       6.212015       169.0375 
 956   0.0000       6.219214       169.2334 
 957   0.0000       6.232241       169.5879 
 958   0.0000       6.248826       170.0392 
 959   0.0000       6.277754       170.8264 
 960   0.0000       6.288151       171.1093 
 961   0.0000       6.300666       171.4498 
 962   0.0000       6.313923       171.8106 
 963   0.0000       6.331994       172.3023 
 964   0.0000       6.344183       172.6340 
 965   0.0000       6.359452       173.0495 
 966   0.0000       6.389755       173.8741 
 967   0.0000       6.411663       174.4702 
 968   0.0000       6.461113       175.8158 
 969   0.0000       6.552049       178.2903 
 970   0.0000       6.601384       179.6328 
 971   0.0000       6.637724       180.6217 
 972   0.0000       6.775640       184.3746 
 973   0.0000       6.813686       185.4098 
 974   0.0000       6.826981       185.7716 
 975   0.0000       6.865491       186.8195 
 976   0.0000       6.897543       187.6917 
 977   0.0000       6.909252       188.0103 
 978   0.0000       6.930873       188.5986 
 979   0.0000       6.953331       189.2098 
 980   0.0000       6.977072       189.8558 
 981   0.0000       6.991691       190.2536 
 982   0.0000       7.033035       191.3786 
 983   0.0000       7.057185       192.0358 
 984   0.0000       7.075342       192.5298 
 985   0.0000       7.077524       192.5892 
 986   0.0000       7.233840       196.8428 
 987   0.0000       7.247939       197.2265 
 988   0.0000       7.328382       199.4154 
 989   0.0000       7.346447       199.9070 
 990   0.0000       7.496218       203.9825 
 991   0.0000       7.569148       205.9670 
 992   0.0000       7.594290       206.6511 
 993   0.0000       7.667053       208.6311 
 994   0.0000       7.730429       210.3557 
 995   0.0000       7.812047       212.5766 
 996   0.0000       7.893833       214.8021 
 997   0.0000       7.972127       216.9326 
 998   0.0000       8.215910       223.5663 
 999   0.0000       9.391397       255.5529 
 1000   0.0000       9.396647       255.6958 
 1001   0.0000       9.429985       256.6029 
 1002   0.0000       9.445375       257.0217 
 1003   0.0000       9.449678       257.1388 
 1004   0.0000       9.472801       257.7680 
 1005   0.0000       9.612889       261.5800 
 1006   0.0000      10.073375       274.1105 
 1007   0.0000      10.081383       274.3284 
 1008   0.0000      10.092510       274.6311 
 1009   0.0000      10.189842       277.2797 
 1010   0.0000      10.205217       277.6981 
 1011   0.0000      10.230808       278.3944 
 1012   0.0000      10.309107       280.5251 
 1013   0.0000      10.353587       281.7354 
 1014   0.0000      10.388742       282.6920 
 1015   0.0000      10.614410       288.8328 
 1016   0.0000      16.282364       443.0656 
 1017   0.0000      17.395927       473.3672 
 1018   0.0000      18.046974       491.0831 
 1019   0.0000      18.257843       496.8212 
 1020   0.0000      18.463888       502.4279 
 1021   0.0000      18.701071       508.8820 
 1022   0.0000      20.380842       554.5909 
 1023   0.0000      21.363144       581.3207 
 1024   0.0000      21.603893       587.8718 

                 SPIN DOWN ORBITALS
  NO   OCC          E(Eh)            E(eV) 
   0   1.0000    -261.577080     -7117.8742 
   1   1.0000    -104.795025     -2851.6176 
   2   1.0000    -104.792242     -2851.5419 
   3   1.0000    -104.790539     -2851.4955 
   4   1.0000     -32.086324      -873.1133 
   5   1.0000     -27.564299      -750.0627 
   6   1.0000     -27.564129      -750.0581 
   7   1.0000     -27.564075      -750.0566 
   8   1.0000     -20.626230      -561.2683 
   9   1.0000     -11.422685      -310.8271 
  10   1.0000     -11.280655      -306.9622 
  11   1.0000     -11.274538      -306.7958 
  12   1.0000     -11.254890      -306.2611 
  13   1.0000     -11.236404      -305.7581 
  14   1.0000     -11.235669      -305.7381 
  15   1.0000     -11.233603      -305.6819 
  16   1.0000     -11.223996      -305.4205 
  17   1.0000     -10.521662      -286.3090 
  18   1.0000     -10.518856      -286.2326 
  19   1.0000     -10.517104      -286.1850 
  20   1.0000      -7.987600      -217.3536 
  21   1.0000      -7.986803      -217.3320 
  22   1.0000      -7.986765      -217.3309 
  23   1.0000      -7.984701      -217.2748 
  24   1.0000      -7.984062      -217.2574 
  25   1.0000      -7.983964      -217.2547 
  26   1.0000      -7.983106      -217.2314 
  27   1.0000      -7.982163      -217.2057 
  28   1.0000      -7.982086      -217.2036 
  29   1.0000      -4.160976      -113.2259 
  30   1.0000      -2.682529       -72.9953 
  31   1.0000      -2.682413       -72.9922 
  32   1.0000      -2.682064       -72.9827 
  33   1.0000      -1.466232       -39.8982 
  34   1.0000      -1.115759       -30.3614 
  35   1.0000      -1.103244       -30.0208 
  36   1.0000      -1.054513       -28.6948 
  37   1.0000      -1.041847       -28.3501 
  38   1.0000      -1.039062       -28.2743 
  39   1.0000      -1.019611       -27.7450 
  40   1.0000      -1.007477       -27.4149 
  41   1.0000      -0.951647       -25.8956 
  42   1.0000      -0.889028       -24.1917 
  43   1.0000      -0.830217       -22.5914 
  44   1.0000      -0.722126       -19.6500 
  45   1.0000      -0.718448       -19.5500 
  46   1.0000      -0.707287       -19.2463 
  47   1.0000      -0.685386       -18.6503 
  48   1.0000      -0.647356       -17.6155 
  49   1.0000      -0.621563       -16.9136 
  50   1.0000      -0.614358       -16.7175 
  51   1.0000      -0.602788       -16.4027 
  52   1.0000      -0.600177       -16.3316 
  53   1.0000      -0.586746       -15.9662 
  54   1.0000      -0.578323       -15.7370 
  55   1.0000      -0.560261       -15.2455 
  56   1.0000      -0.546669       -14.8756 
  57   1.0000      -0.545063       -14.8319 
  58   1.0000      -0.534199       -14.5363 
  59   1.0000      -0.526921       -14.3383 
  60   1.0000      -0.520775       -14.1710 
  61   1.0000      -0.509015       -13.8510 
  62   1.0000      -0.488933       -13.3045 
  63   1.0000      -0.486702       -13.2438 
  64   1.0000      -0.484415       -13.1816 
  65   1.0000      -0.456723       -12.4281 
  66   1.0000      -0.453972       -12.3532 
  67   1.0000      -0.450772       -12.2661 
  68   1.0000      -0.433947       -11.8083 
  69   1.0000      -0.432533       -11.7698 
  70   1.0000      -0.415986       -11.3196 
  71   1.0000      -0.352197        -9.5838 
  72   0.0000       0.012746         0.3468 
  73   0.0000       0.024043         0.6542 
  74   0.0000       0.025066         0.6821 
  75   0.0000       0.030979         0.8430 
  76   0.0000       0.039590         1.0773 
  77   0.0000       0.041368         1.1257 
  78   0.0000       0.042511         1.1568 
  79   0.0000       0.042961         1.1690 
  80   0.0000       0.044042         1.1984 
  81   0.0000       0.054027         1.4702 
  82   0.0000       0.056483         1.5370 
  83   0.0000       0.061445         1.6720 
  84   0.0000       0.062585         1.7030 
  85   0.0000       0.064745         1.7618 
  86   0.0000       0.065628         1.7858 
  87   0.0000       0.071626         1.9490 
  88   0.0000       0.077165         2.0998 
  89   0.0000       0.081719         2.2237 
  90   0.0000       0.089158         2.4261 
  91   0.0000       0.091470         2.4890 
  92   0.0000       0.093103         2.5334 
  93   0.0000       0.094165         2.5624 
  94   0.0000       0.098912         2.6915 
  95   0.0000       0.102196         2.7809 
  96   0.0000       0.103023         2.8034 
  97   0.0000       0.103905         2.8274 
  98   0.0000       0.105248         2.8639 
  99   0.0000       0.107941         2.9372 
 100   0.0000       0.110692         3.0121 
 101   0.0000       0.115625         3.1463 
 102   0.0000       0.119077         3.2402 
 103   0.0000       0.122100         3.3225 
 104   0.0000       0.124668         3.3924 
 105   0.0000       0.125720         3.4210 
 106   0.0000       0.126464         3.4413 
 107   0.0000       0.129046         3.5115 
 108   0.0000       0.131940         3.5903 
 109   0.0000       0.133167         3.6237 
 110   0.0000       0.137388         3.7385 
 111   0.0000       0.138703         3.7743 
 112   0.0000       0.144896         3.9428 
 113   0.0000       0.145385         3.9561 
 114   0.0000       0.149729         4.0743 
 115   0.0000       0.152326         4.1450 
 116   0.0000       0.156661         4.2630 
 117   0.0000       0.162140         4.4120 
 118   0.0000       0.163583         4.4513 
 119   0.0000       0.165774         4.5109 
 120   0.0000       0.169751         4.6192 
 121   0.0000       0.172151         4.6845 
 122   0.0000       0.177239         4.8229 
 123   0.0000       0.180036         4.8990 
 124   0.0000       0.183442         4.9917 
 125   0.0000       0.187040         5.0896 
 126   0.0000       0.188699         5.1348 
 127   0.0000       0.193752         5.2723 
 128   0.0000       0.195857         5.3296 
 129   0.0000       0.197869         5.3843 
 130   0.0000       0.199540         5.4297 
 131   0.0000       0.202250         5.5035 
 132   0.0000       0.204140         5.5549 
 133   0.0000       0.209089         5.6896 
 134   0.0000       0.215689         5.8692 
 135   0.0000       0.216991         5.9046 
 136   0.0000       0.220139         5.9903 
 137   0.0000       0.223837         6.0909 
 138   0.0000       0.228347         6.2136 
 139   0.0000       0.233274         6.3477 
 140   0.0000       0.236687         6.4406 
 141   0.0000       0.240763         6.5515 
 142   0.0000       0.242257         6.5921 
 143   0.0000       0.247299         6.7294 
 144   0.0000       0.247790         6.7427 
 145   0.0000       0.253409         6.8956 
 146   0.0000       0.255678         6.9574 
 147   0.0000       0.257572         7.0089 
 148   0.0000       0.260356         7.0846 
 149   0.0000       0.264027         7.1845 
 150   0.0000       0.268436         7.3045 
 151   0.0000       0.273322         7.4375 
 152   0.0000       0.278296         7.5728 
 153   0.0000       0.281946         7.6721 
 154   0.0000       0.285333         7.7643 
 155   0.0000       0.288729         7.8567 
 156   0.0000       0.296710         8.0739 
 157   0.0000       0.299014         8.1366 
 158   0.0000       0.301283         8.1983 
 159   0.0000       0.307680         8.3724 
 160   0.0000       0.310570         8.4510 
 161   0.0000       0.316962         8.6250 
 162   0.0000       0.319842         8.7033 
 163   0.0000       0.321328         8.7438 
 164   0.0000       0.329469         8.9653 
 165   0.0000       0.333136         9.0651 
 166   0.0000       0.336781         9.1643 
 167   0.0000       0.338533         9.2119 
 168   0.0000       0.341145         9.2830 
 169   0.0000       0.343973         9.3600 
 170   0.0000       0.349595         9.5130 
 171   0.0000       0.353704         9.6248 
 172   0.0000       0.357156         9.7187 
 173   0.0000       0.359715         9.7883 
 174   0.0000       0.361882         9.8473 
 175   0.0000       0.363479         9.8908 
 176   0.0000       0.368506        10.0276 
 177   0.0000       0.373531        10.1643 
 178   0.0000       0.376728        10.2513 
 179   0.0000       0.380270        10.3477 
 180   0.0000       0.382343        10.4041 
 181   0.0000       0.384294        10.4572 
 182   0.0000       0.389678        10.6037 
 183   0.0000       0.391638        10.6570 
 184   0.0000       0.393439        10.7060 
 185   0.0000       0.397048        10.8042 
 186   0.0000       0.397655        10.8207 
 187   0.0000       0.399858        10.8807 
 188   0.0000       0.401943        10.9374 
 189   0.0000       0.408589        11.1183 
 190   0.0000       0.410002        11.1567 
 191   0.0000       0.413932        11.2637 
 192   0.0000       0.416241        11.3265 
 193   0.0000       0.420848        11.4519 
 194   0.0000       0.425618        11.5816 
 195   0.0000       0.432739        11.7754 
 196   0.0000       0.436881        11.8881 
 197   0.0000       0.443197        12.0600 
 198   0.0000       0.445614        12.1258 
 199   0.0000       0.449437        12.2298 
 200   0.0000       0.452517        12.3136 
 201   0.0000       0.454662        12.3720 
 202   0.0000       0.460216        12.5231 
 203   0.0000       0.460446        12.5294 
 204   0.0000       0.463405        12.6099 
 205   0.0000       0.467825        12.7302 
 206   0.0000       0.472645        12.8613 
 207   0.0000       0.473843        12.8939 
 208   0.0000       0.479258        13.0413 
 209   0.0000       0.480580        13.0772 
 210   0.0000       0.486957        13.2508 
 211   0.0000       0.490862        13.3570 
 212   0.0000       0.493690        13.4340 
 213   0.0000       0.498785        13.5726 
 214   0.0000       0.501148        13.6369 
 215   0.0000       0.504934        13.7400 
 216   0.0000       0.508540        13.8381 
 217   0.0000       0.510619        13.8947 
 218   0.0000       0.513258        13.9665 
 219   0.0000       0.516792        14.0626 
 220   0.0000       0.518945        14.1212 
 221   0.0000       0.520947        14.1757 
 222   0.0000       0.523679        14.2500 
 223   0.0000       0.525758        14.3066 
 224   0.0000       0.530401        14.4329 
 225   0.0000       0.531833        14.4719 
 226   0.0000       0.532846        14.4995 
 227   0.0000       0.538626        14.6568 
 228   0.0000       0.540352        14.7037 
 229   0.0000       0.544133        14.8066 
 230   0.0000       0.546434        14.8692 
 231   0.0000       0.549708        14.9583 
 232   0.0000       0.552610        15.0373 
 233   0.0000       0.557526        15.1710 
 234   0.0000       0.560903        15.2630 
 235   0.0000       0.569827        15.5058 
 236   0.0000       0.571164        15.5422 
 237   0.0000       0.572932        15.5903 
 238   0.0000       0.575663        15.6646 
 239   0.0000       0.577548        15.7159 
 240   0.0000       0.584672        15.9097 
 241   0.0000       0.585993        15.9457 
 242   0.0000       0.587026        15.9738 
 243   0.0000       0.593422        16.1478 
 244   0.0000       0.599023        16.3002 
 245   0.0000       0.599543        16.3144 
 246   0.0000       0.603585        16.4244 
 247   0.0000       0.609270        16.5791 
 248   0.0000       0.613474        16.6935 
 249   0.0000       0.615041        16.7361 
 250   0.0000       0.621253        16.9051 
 251   0.0000       0.626353        17.0439 
 252   0.0000       0.627676        17.0799 
 253   0.0000       0.630643        17.1607 
 254   0.0000       0.637565        17.3490 
 255   0.0000       0.642165        17.4742 
 256   0.0000       0.647058        17.6073 
 257   0.0000       0.650907        17.7121 
 258   0.0000       0.652294        17.7498 
 259   0.0000       0.658819        17.9274 
 260   0.0000       0.660505        17.9733 
 261   0.0000       0.663271        18.0485 
 262   0.0000       0.666396        18.1336 
 263   0.0000       0.672345        18.2954 
 264   0.0000       0.674968        18.3668 
 265   0.0000       0.677143        18.4260 
 266   0.0000       0.681297        18.5390 
 267   0.0000       0.688391        18.7321 
 268   0.0000       0.688997        18.7486 
 269   0.0000       0.695736        18.9319 
 270   0.0000       0.698805        19.0154 
 271   0.0000       0.704807        19.1788 
 272   0.0000       0.707453        19.2508 
 273   0.0000       0.710326        19.3290 
 274   0.0000       0.717303        19.5188 
 275   0.0000       0.723353        19.6834 
 276   0.0000       0.725463        19.7408 
 277   0.0000       0.732251        19.9256 
 278   0.0000       0.735405        20.0114 
 279   0.0000       0.738701        20.1011 
 280   0.0000       0.744878        20.2692 
 281   0.0000       0.748658        20.3720 
 282   0.0000       0.757450        20.6113 
 283   0.0000       0.762157        20.7394 
[...]
  | sigma^2 in % of trace(Dpq) retained ...   1.40e-01
  | Av. % of trace(Di) retained         ...  99.998592228335
  | Av. % of trace(Dp) retained         ...  99.999999108121
  | sigma^2 in % of trace(Di) retained  ...   6.63e-07
  | sigma^2 in % of trace(Dp) retained  ...   5.58e-13
 Distributions of % trace(Dij) recovered:
  |       >= 99.9  ...   105 ( 22.4 % of all IJ-pairs)
  |   [80.0, 90.0) ...    19 (  4.1 % of all IJ-pairs)
  |   [90.0, 99.0) ...   263 ( 56.2 % of all IJ-pairs)
  |   [99.0, 99.9) ...    81 ( 17.3 % of all IJ-pairs)
 Distributions of % trace(Dip) recovered:
  |   [70.0, 80.0) ...     1 (  0.9 % of all IP-pairs)
  |   [80.0, 90.0) ...    11 (  9.6 % of all IP-pairs)
  |   [90.0, 99.0) ...    56 ( 49.1 % of all IP-pairs)
  |   [99.0, 99.9) ...    46 ( 40.4 % of all IP-pairs)
 Distributions of % trace(Dpq) recovered:
  |       >= 99.9  ...     5 ( 33.3 % of all PQ-pairs)
  |   [99.0, 99.9) ...    10 ( 66.7 % of all PQ-pairs)
 Distributions of % trace(Di) recovered :
  |       >= 99.9  ...    43 (100.0 % of all I-pairs )
 Distributions of % trace(Dp) recovered :
  |       >= 99.9  ...     5 (100.0 % of all P-pairs )

                       ===========================
                       1032 OF 1678 PAIRS ARE KEPT
                       ===========================

 Initial PAO correlation energy (all pairs)    ...  -2.6782049711 Eh
 Energy constituents in PAO basis (Eh):
  | Vijab(+0) ...  -2.2508756428
  | Viab (-1) ...  -0.1740100550
  | Vab  (-2) ...  -0.0573189118
  | Va   (-1) ...  -0.0000464180
  | Vija (+1) ...  -0.0714576404
  | Vij  (+2) ...  -0.0155712293
  | Via  (+0) ...  -0.1087582754
  | Vi   (+1) ...  -0.0001667985
 Initial PNO correlation energy                ...  -2.6442563495 Eh
 Energy constituents in PNO basis (Eh):
  | Vijab(+0) ...  -2.2323231346 (err=  0.0185525083)
  | Viab (-1) ...  -0.1601511108 (err=  0.0138589442)
  | Vab  (-2) ...  -0.0568601450 (err=  0.0004587668)
  | Va   (-1) ...  -0.0000268661 (err=  0.0000195519)
  | Vija (+1) ...  -0.0705510171 (err=  0.0009066233)
  | Vij  (+2) ...  -0.0155250186 (err=  0.0000462107)
  | Via  (+0) ...  -0.1086526722 (err=  0.0001056032)
  | Vi   (+1) ...  -0.0001663851 (err=  0.0000004133)
 Sum of total truncation errors ...   0.0339486216 Eh
  | Pair screening ...   0.0120442956 Eh
  | PNO truncation ...   0.0219043260 Eh

 UMP2 correlation energy (PAO) ...  -2.6730434126
  | alpha-alpha ...  -0.3827536340 (NP_aa=  901)
  | alpha-beta  ...  -1.9869704988 (NP_ab= 1653)
  | beta -beta  ...  -0.3033192798 (NP_bb=  719)
 UMP2 correlation energy (PNO) ...  -2.6387358241
  | alpha-alpha ...  -0.3707706874 (err=  0.0119829466, NP_aa=  549)
  | alpha-beta  ...  -1.9687467094 (err=  0.0182237894, NP_ab= 1007)
  | beta -beta  ...  -0.2992184273 (err=  0.0041008525, NP_bb=  425)
 Sum of total UMP2 truncation errors ...   0.0343075885 Eh
  | Pair screening ...   0.0120507116 Eh
  | PNO truncation ...   0.0222568769 Eh
 Timing for NEV-PNO construction (sec.)
  | Intermediate construction  ..           39.303
  | Amplitude construction     ..           57.607
  | Total time                 ..           96.909
 Making pair pair interaction lists ...      ok
 Total size for 2-ext PNO integrals ...     10.4 MB
Checking the number of SOMO/SOMO doubles PNOs ... 
 #Truncate: (72, 72)[173] -> [85] .. 
 #Truncate: (73, 73)[174] -> [85] .. 
 #Truncate: (74, 74)[174] -> [85] .. 
 #Truncate: (75, 75)[172] -> [85] .. 
 #Truncate: (76, 76)[173] -> [85] .. 

--------------------------------
LOCAL RI TRANSFORMATION (VABPAO)
--------------------------------

Number of PAOs:    1030
Basis functions:   1025 (343 shells)
Aux. functions:    2424 (644 shells)

Processing maps (0.0 sec)
Average map sizes:
   Aux shells -> PAOs           1030.0
   PAOs       -> AO shells       343.0

Calculating integrals (213.8 sec, 37370.165 MB)
Finished
-----------------------------
LOCAL RI TRANSFORMATION (IJV)
-----------------------------

Orbital window:      29 to 76
Basis functions:   1025 (343 shells)
Aux. functions:    2424 (644 shells)

Processing maps (0.0 sec)
Average map sizes:
   Aux shells -> MOs(i)           46.2
   Aux shells -> MOs(j)           48.0
   MOs        -> AO shells       340.6

Calculating integrals (22.2 sec, 41.162 MB)
Sorting integrals (0.3 sec, 41.135 MB)
Total time for the integral transformation: 22.6 sec


-------------------------------------
Pair Pair Term precalculation with     
RI-(ij|mn) and (im|jn) transformation  
ON THE FLY                             
-------------------------------------

   IBatch   1 (of   2)              ... done ( 1249.413 sec)
   IBatch   2 (of   2)              ... done (  543.031 sec)
Total EXT                           ...        1792.444 sec

---------------------
RI-PNO TRANSFORMATION
---------------------

Total Number of PNOs                   ... 32209
Total Number of IJ-PNOs                ... 28118
Total Number of IP-PNOs                ...  3138
Total Number of PQ-PNOs                ...   953
Total Number of IJ-pairs               ...   893
Total Number of PI-pairs               ...   114
Total Number of PQ-pairs               ...    25
Average number of PNOs per pair        ...    31
Maximal number of PNOs per pair        ...    85
>> Statistics for ij-pairs..
   #pairs with  1 -  5 PNOs   :    0
   #pairs with  6 - 10 PNOs   :    0
   #pairs with 11 - 15 PNOs   :   94
   #pairs with 16 - 20 PNOs   :  172
   #pairs with 21 - 25 PNOs   :  176
   #pairs with 26 - 30 PNOs   :  110
   #pairs with 31 - 35 PNOs   :   56
   #pairs with 36 - 40 PNOs   :   54
   #pairs with 41 - 45 PNOs   :   44
   #pairs with 46 - 50 PNOs   :   19
   #pairs with 51 - 55 PNOs   :   36
   #pairs with 56 - 60 PNOs   :   52
   #pairs with 61 - 65 PNOs   :   77
   #pairs with 66 - 70 PNOs   :    1
   #pairs with 76 - 80 PNOs   :    2
>> Statistics for ip-pairs..
   #pairs with  1 -  5 PNOs   :    0
   #pairs with  6 - 10 PNOs   :    2
   #pairs with 11 - 15 PNOs   :   12
   #pairs with 16 - 20 PNOs   :   12
   #pairs with 21 - 25 PNOs   :   20
   #pairs with 26 - 30 PNOs   :    8
   #pairs with 31 - 35 PNOs   :   46
   #pairs with 36 - 40 PNOs   :   11
   #pairs with 41 - 45 PNOs   :    3
   #pairs with 46 - 50 PNOs   :    0
>> Statistics for pq-pairs..
   #pairs with  1 -  5 PNOs   :    0
   #pairs with  6 - 10 PNOs   :    0
   #pairs with 11 - 15 PNOs   :    0
   #pairs with 16 - 20 PNOs   :    0
   #pairs with 21 - 25 PNOs   :   10
   #pairs with 26 - 30 PNOs   :   10
   #pairs with 31 - 35 PNOs   :    0
   #pairs with 36 - 40 PNOs   :    0
   #pairs with 41 - 45 PNOs   :    0
   #pairs with 46 - 50 PNOs   :    0
   #pairs with 81 - 85 PNOs   :    5

Generation of (ij|ab)[P] integrals            ... on
Generation of (ia|bc)[P],(ja|bc)[P] integrals ... on
Storage of 3 and 4 external integrals         ... on
Generation of ALL (ka|bc)[P] integrals        ... on
Keep RI integrals in memory                   ... off

Ibatch:  1 (of  1)
Starting 2-4 index PNO integral generation ... done

Timings:
Total PNO integral transformation time     ...       1802.535 sec
Size of the 3-external file                ...       276 MB
Size of the 4-external file                ...      1882 MB
Size of the IKJL file                      ...        16 MB
Size of the all 3-external file            ...      6628 MB
Size of the 1-external file                ...        20 MB

Size of the PAO/PNO coefficient matrices   ...     201.9 MB

Making pair/pair overlap matrices          ... done (  279.293 sec)
Size of the pair overlap file              ...    2213.0 MB
Total # unrestricted pairs ...       1981
  # of alpha-alpha pairs   ...        549
  # of alpha-beta pairs    ...       1007
  # of beta-beta pairs     ...        425
Constructing the guess amplitudes          ... done (    0.569 sec)

-------------------------
FINAL STARTUP INFORMATION
-------------------------

E(0)                                       ...  -3028.472601788
E(SL-UMP2 in NEV-PNO space)                ...     -2.673962350
Initial E(tot)                             ...  -3031.146564139
<T|T>                                      ...      0.531802445
Number of unrestricted pairs included      ... 1981
Total number of pairs                      ... 4095
----------------------------------------------------------
                     OPEN-SHELL COUPLED CLUSTER ITERATIONS
----------------------------------------------------------

Number of PNO amplitudes to be optimized        ...          1993087
Number of canonical amplitudes for strong pairs ...       1789231912
Untruncated number of canonical amplitudes      ...       3698645738

Iter       E(tot)           E(Corr)          Delta-E          Residual     Time
  0  -3031.153821157     -2.645992843      0.027969508      0.021358407 1337.72
                           *** Turning on DIIS ***
  1  -3031.270892436     -2.763064121     -0.117071279      0.011245735 1312.62
  2  -3031.336029068     -2.828200754     -0.065136632      0.008553929 1555.53
  3  -3031.358324821     -2.850496507     -0.022295753      0.003967455 1586.80
  4  -3031.366156178     -2.858327863     -0.007831357      0.002657663 1595.56
  5  -3031.370488432     -2.862660117     -0.004332254      0.001497636 1592.84
  6  -3031.372089316     -2.864261002     -0.001600885      0.000767430 1588.61
  7  -3031.372745835     -2.864917520     -0.000656519      0.000465721 1577.12
  8  -3031.372894844     -2.865066529     -0.000149009      0.000259063 1569.40
  9  -3031.372954740     -2.865126425     -0.000059896      0.000158054 1569.42
 10  -3031.372958265     -2.865129950     -0.000003525      0.000083301 1554.12
 11  -3031.372971020     -2.865142706     -0.000012755      0.000062622 1552.32
 12  -3031.372975966     -2.865147652     -0.000004946      0.000039866 1691.05
 13  -3031.372978061     -2.865149747     -0.000002095      0.000016931 1561.00
 14  -3031.372979678     -2.865151363     -0.000001616      0.000012393 1549.85
 15  -3031.372978943     -2.865150629      0.000000734      0.000005346 1553.86
               --- The CCSD iterations have converged ---

E(0)                                       ...  -3028.472601788
E(CORR)(strong-pairs)                      ...     -2.865150629
E(CORR)(weak-pairs)                        ...     -0.035226526
E(CORR)(corrected)                         ...     -2.900377155
E(TOT)                                     ...  -3031.372978943
Singles norm <S|S>**1/2                    ...      0.197100929 ( 0.064662209, 0.132438719)  
T1 diagnostic                              ...      0.020661791                              
<S**2>(linearized)                         ...      8.7508744 (ideal value:      8.7500000)

----------------------
LARGEST PNO AMPLITUDES
----------------------
  46a-> 77a  46b-> 77b       0.066084
  47a-> 77a  47b-> 77b       0.057489
  52b-> 73b  -1b-> -1b       0.055369
  49b-> 72b  -1b-> -1b       0.055329
  51b-> 73b  -1b-> -1b       0.052852
  47a-> 77a  46b-> 77b       0.049992
  46a-> 77a  47b-> 77b       0.049992
  44a-> 77a  44b-> 77b       0.047418
  49b-> 76b  -1b-> -1b       0.046978
  42b-> 74b  -1b-> -1b       0.046949
  49b-> 75b  -1b-> -1b       0.046539
  43a-> 77a  43b-> 77b       0.045260
  35b-> 72b  -1b-> -1b       0.045056
  56a-> 77a  56b-> 77b       0.044920
  38b-> 74b  -1b-> -1b       0.044352
  55a-> 77a  55b-> 77b       0.044070

Total # unrestricted pairs ...       1292
  # of alpha-alpha pairs   ...        352
  # of alpha-beta pairs    ...        646
  # of beta-beta pairs     ...        294

-------------------------------------------
DLPNO BASED TRIPLES CORRECTION
-------------------------------------------

Singles multiplier          ...  1.000000
Fragment selection                          .... not used
TCutTNO                     ... 1.000e-09
TCutMP2Pairs                ... 1.000e-05
TCutDOStrong                ... 2.000e-02
TCutMKNStrong               ... 1.000e-02
TCutDOWeak                  ... 4.000e-02
TCutMKNWeak                 ... 1.000e-01
NTCutTNO                    ... 1

Number of Triples that are to be computed         ...     30598

 . . . . . . . . .
10% done  
20% done  
30% done  
40% done  
50% done  
60% done  
70% done  
80% done  
90% done  
          Batch   1   done (  12423.997 sec)

Triples-Correction TCutTNO=   1.000e-09 (NWeakPairs = 0  1  2  3)  -0.115813996396   -0.001671640314    0.000000000000    0.000000000000
Triples-Correction  -0.117485636710

Triples timings:
Total time                      ... 12955.320 sec

Triples List generation         ...     0.000 sec
TNO generation                  ...   531.097 sec
Pair density generation         ...     0.081 sec
Look up tables                  ...     0.103 sec
Generating 3-index integrals    ...  7561.775 sec
Make 4-ind.int. from 3-ind.int  ...     2.987 sec
Projecting amplitudes (D + S)   ...  4641.765 sec
Sorting integrals for spin cases...    44.986 sec
Calculate W0/W1                 ...   138.132 sec
Energy contr. (sum over a,b,c)  ...    34.222 sec

Everything after 3-index        ...  4970.711 sec

Energy contribution AAA         ...    21.299 sec
Energy contribution AAB         ...    96.386 sec
Energy contribution ABB         ...    88.003 sec
Energy contribution BBB         ...    11.689 sec
prep                ...     2.710 sec
makeTTNO            ...  4593.584 sec
copyij              ...     0.117 sec
copyil              ...     3.632 sec
transposeij         ...     0.070 sec
newMatInDoubleProj  ...    47.164 sec
BlasInDoubleProj    ...  2451.220 sec
ProjSingles         ...    39.408 sec
ProjDoubles         ...  4602.357 sec
overall Doubles for projection      ... 2730274
used Doubles for projection         ... 2730274


Number of Triples   (0, 1, 2, 3 weak pairs; overall):  14089   11210       0       0  ( 25299)
Number of Atoms     (0, 1, 2, 3 weak pairs; overall):   18.7    13.3     0.0     0.0  (    29)
Number of PAOs      (0, 1, 2, 3 weak pairs; overall):  737.9   545.7     0.0     0.0  (  1025)
Number of AuxFcns   (0, 1, 2, 3 weak pairs; overall):  884.0   584.1     0.0     0.0  (  2424)
Number of TNOs (0, 1, 2, 3 weak pairs         ):   77.7    54.8     0.0     0.0
Aver. Number of NTNO, Atoms, PAOs, AuxFcns / Triples:  25299    67.6    16.3   652.7   751.1

Triples Correction (T)                     ...     -0.117485637
    alpha-alpha-alpha ... -0.003717624 (  3.2%)
    alpha-alpha-beta  ... -0.055195057 ( 47.0%)
    alpha-beta -beta  ... -0.054570689 ( 46.4%)
    beta -beta -beta  ... -0.004002267 (  3.4%)
Final correlation energy                   ...     -3.017862792
E(CCSD)                                    ...  -3031.372978943
E(CCSD(T))                                 ...  -3031.490464580

----------------------------
STATISTICS FOR PAIR-ENERGIES
----------------------------
Minimum, maximum and average ratios of UMP and CCSD pair-energies ... 0.46, 1.47, 1.03


------------------------------------------------------------------------------- 
                                     TIMINGS                                   
------------------------------------------------------------------------------- 


Total execution time                   ...    44906.383 sec

Localization of occupied MO's          ...        9.874 sec (  0.0%)
Fock Matrix Formation                  ...     1351.477 sec (  3.0%)
Differential overlap integrals         ...        1.374 sec (  0.0%)
Organizing maps                        ...        1.637 sec (  0.0%)
RI 3-index integral generations        ...      301.006 sec (  0.7%)
RI-PNO integral transformation         ...     4030.452 sec (  9.0%)
Initial Guess                          ...     1815.705 sec (  4.0%)
DIIS Solver                            ...       16.555 sec (  0.0%)
State Vector Update                    ...        0.719 sec (  0.0%)
Sigma-vector construction              ...    24747.804 sec ( 55.1%)
  <0|H|D>                              ...        0.031 sec (  0.0% of sigma)
  <D|H|D>(0-ext)                       ...     4261.436 sec ( 17.2% of sigma)
  <D|H|D>(2-ext Fock)                  ...        1.590 sec (  0.0% of sigma)
  <D|H|D>(2-ext)                       ...     3382.307 sec ( 13.7% of sigma)
  <D|H|D>(4-ext)                       ...      165.878 sec (  0.7% of sigma)
  <D|H|D>(4-ext-corr)                  ...     1034.643 sec (  4.2% of sigma)
  CCSD doubles correction              ...      411.696 sec (  1.7% of sigma)
  <S|H|S>                              ...      725.398 sec (  2.9% of sigma)
  <S|H|D>(1-ext)                       ...      273.596 sec (  1.1% of sigma)
  <D|H|S>(1-ext)                       ...        0.666 sec (  0.0% of sigma)
  <S|H|D>(3-ext)                       ...       20.931 sec (  0.1% of sigma)
  CCSD singles correction              ...        0.005 sec (  0.0% of sigma)
  Fock-dressing                        ...     6841.502 sec ( 27.6% of sigma)
  Singles amplitudes                   ...      110.682 sec (  0.4% of sigma)
  (ik|jl)-dressing                     ...     5985.219 sec ( 24.2% of sigma)
  (ij|ab),(ia|jb)-dressing             ...     1238.745 sec (  5.0% of sigma)
  Pair energies                        ...        0.128 sec (  0.0% of sigma)
Total Time for computing (T)           ...    12992.286 sec ( 28.9% of ALL)


-------------------------   --------------------
FINAL SINGLE POINT ENERGY     -3031.490464580121
-------------------------   --------------------


                            ***************************************
                            *     ORCA property calculations      *
                            ***************************************

                                    ---------------------
                                    Active property flags
                                    ---------------------
   (+) Dipole Moment


------------------------------------------------------------------------------
                       ORCA ELECTRIC PROPERTIES CALCULATION
------------------------------------------------------------------------------

Dipole Moment Calculation                       ... on
Quadrupole Moment Calculation                   ... off
Polarizability Calculation                      ... off
GBWName                                         ... simple-grid-300-280-b3lyp_d3bj-631gd-gas-singlepoint-DLPNO_CCSD_T1-NormalPNO-augtz-gas.gbw
Electron density file                           ... simple-grid-300-280-b3lyp_d3bj-631gd-gas-singlepoint-DLPNO_CCSD_T1-NormalPNO-augtz-gas.scfp.tmp
The origin for moment calculation is the CENTER OF MASS  = (-0.311709, -0.043659  0.016851)

-------------
DIPOLE MOMENT
-------------
                                X             Y             Z
Electronic contribution:    -43.45678      -4.81140       1.95344
Nuclear contribution   :     46.44467       6.50525      -2.51079
                        -----------------------------------------
Total Dipole Moment    :      2.98789       1.69384      -0.55735
                        -----------------------------------------
Magnitude (a.u.)       :      3.47954
Magnitude (Debye)      :      8.84429



--------------------
Rotational spectrum 
--------------------
 
Rotational constants in cm-1:     0.018526     0.010703     0.010074 
Rotational constants in MHz :   555.405354   320.864508   302.001503 

 Dipole components along the rotational axes: 
x,y,z [a.u.] :     2.981515    -1.692345    -0.594767 
x,y,z [Debye]:     7.578410    -4.301599    -1.511777 

 

Timings for individual modules:

Sum of individual times         ...    61004.925 sec (=1016.749 min)
GTO integral calculation        ...       12.377 sec (=   0.206 min)   0.0 %
SCF iterations                  ...    16067.600 sec (= 267.793 min)  26.3 %
MDCI module                     ...    44924.948 sec (= 748.749 min)  73.6 %
                             ****ORCA TERMINATED NORMALLY****
TOTAL RUN TIME: 0 days 16 hours 56 minutes 47 seconds 587 msec
