
                                 *****************
                                 * O   R   C   A *
                                 *****************

           --- An Ab Initio, DFT and Semiempirical electronic structure package ---

                  #######################################################
                  #                        -***-                        #
                  #          Department of theory and spectroscopy      #
                  #               Directorship: Frank Neese             #
                  #        Max Planck Institute fuer Kohlenforschung    #
                  #                Kaiser Wilhelm Platz 1               #
                  #                 D-45470 Muelheim/Ruhr               #
                  #                      Germany                        #
                  #                                                     #
                  #                  All rights reserved                #
                  #                        -***-                        #
                  #######################################################


                         Program Version 4.1.2  - RELEASE  -


 With contributions from (in alphabetic order):
   Daniel Aravena         : Magnetic Properties
   Michael Atanasov       : Ab Initio Ligand Field Theory
   Alexander A. Auer      : GIAO ZORA
   Ute Becker             : Parallelization
   Giovanni Bistoni       : ED, Open-shell LED
   Martin Brehm           : Molecular dynamics
   Dmytro Bykov           : SCF Hessian
   Vijay G. Chilkuri      : MRCI spin determinant printing
   Dipayan Datta          : RHF DLPNO-CCSD density
   Achintya Kumar Dutta   : EOM-CC, STEOM-CC
   Dmitry Ganyushin       : Spin-Orbit,Spin-Spin,Magnetic field MRCI
   Miquel Garcia          : C-PCM Hessian
   Yang Guo               : DLPNO-NEVPT2, CIM, IAO-localization
   Andreas Hansen         : Spin unrestricted coupled pair/coupled cluster methods
   Benjamin Helmich-Paris : CASSCF linear response (MC-RPA)
   Lee Huntington         : MR-EOM, pCC
   Robert Izsak           : Overlap fitted RIJCOSX, COSX-SCS-MP3, EOM
   Christian Kollmar      : KDIIS, OOCD, Brueckner-CCSD(T), CCSD density
   Simone Kossmann        : Meta GGA functionals, TD-DFT gradient, OOMP2, MP2 Hessian
   Martin Krupicka        : AUTO-CI
   Lucas Lang             : DCDCAS
   Dagmar Lenk            : GEPOL surface, SMD
   Dimitrios Liakos       : Extrapolation schemes; parallel MDCI
   Dimitrios Manganas     : ROCIS; embedding schemes
   Dimitrios Pantazis     : SARC Basis sets
   Taras Petrenko         : DFT Hessian,TD-DFT gradient, ASA, ECA, R-Raman, ABS, FL, XAS/XES, NRVS
   Peter Pinski           : DLPNO-MP2, DLPNO-MP2 Gradient
   Christoph Reimann      : Effective Core Potentials
   Marius Retegan         : Local ZFS, SOC
   Christoph Riplinger    : Optimizer, TS searches, QM/MM, DLPNO-CCSD(T), (RO)-DLPNO pert. Triples
   Tobias Risthaus        : Range-separated hybrids, TD-DFT gradient, RPA, STAB
   Michael Roemelt        : Restricted open shell CIS
   Masaaki Saitow         : Open-shell DLPNO
   Barbara Sandhoefer     : DKH picture change effects
   Avijit Sen             : IP-ROCIS
   Kantharuban Sivalingam : CASSCF convergence, NEVPT2, FIC-MRCI
   Bernardo de Souza      : ESD, SOC TD-DFT
   Georgi Stoychev        : AutoAux, RI-MP2 NMR
   Willem Van den Heuvel  : Paramagnetic NMR
   Boris Wezisla          : Elementary symmetry handling
   Frank Wennmohs         : Technical directorship


 We gratefully acknowledge several colleagues who have allowed us to
 interface, adapt or use parts of their codes:
   Stefan Grimme, W. Hujo, H. Kruse,             : VdW corrections, initial TS optimization,
                  C. Bannwarth                     DFT functionals, gCP, sTDA/sTD-DF
   Ed Valeev                                     : LibInt (2-el integral package), F12 methods
   Garnet Chan, S. Sharma, J. Yang, R. Olivares  : DMRG
   Ulf Ekstrom                                   : XCFun DFT Library
   Mihaly Kallay                                 : mrcc  (arbitrary order and MRCC methods)
   Andreas Klamt, Michael Diedenhofen            : otool_cosmo (COSMO solvation model)
   Jiri Pittner, Ondrej Demel                    : Mk-CCSD
   Frank Weinhold                                : gennbo (NPA and NBO analysis)
   Christopher J. Cramer and Donald G. Truhlar   : smd solvation model
   Lars Goerigk                                  : TD-DFT with DH, B97 family of functionals
   V. Asgeirsson, H. Jonsson                     : NEB implementation
   FAccTs GmbH                                   : IRC, NEB, NEB-TS, Multilevel


 Your calculation uses the libint2 library for the computation of 2-el integrals
 For citations please refer to: http://libint.valeyev.net

 This ORCA versions uses:
   CBLAS   interface :  Fast vector & matrix operations
   LAPACKE interface :  Fast linear algebra routines
   SCALAPACK package :  Parallel linear algebra routines


----- Orbital basis set information -----
Your calculation utilizes the basis: aug-cc-pVTZ 
    H, B-Ne : Obtained from the ccRepo (grant-hill.group.shef.ac.uk/ccrepo) Feb. 2017
              R. A. Kendall, T. H. Dunning, Jr., R. J. Harrison, J. Chem. Phys. 96, 6796 (1992)
         He : Obtained from the ccRepo (grant-hill.group.shef.ac.uk/ccrepo) Feb. 2017
              D. E. Woon, T. H. Dunning, Jr., J. Chem. Phys. 100, 2975 (1994)
  Li-Be, Na : Obtained from the ccRepo (grant-hill.group.shef.ac.uk/ccrepo) Feb. 2017
              B. P. Prascher, D. E. Woon, K. A. Peterson, T. H. Dunning, Jr., A. K. Wilson, Theor. Chem. Acc. 128, 69 (2011)
         Mg : Obtained from the Peterson Research Group Website (tyr0.chem.wsu.edu/~kipeters) Feb. 2017
              B. P. Prascher, D. E. Woon, K. A. Peterson, T. H. Dunning, Jr., A. K. Wilson, Theor. Chem. Acc. 128, 69 (2011)
      Al-Ar : Obtained from the ccRepo (grant-hill.group.shef.ac.uk/ccrepo) Feb. 2017
              D. E. Woon, T. H. Dunning, Jr., J. Chem. Phys. 98, 1358 (1993)
      Sc-Zn : Obtained from the ccRepo (grant-hill.group.shef.ac.uk/ccrepo) Feb. 2017
              N. B. Balabanov, K. A. Peterson, J. Chem. Phys. 123, 064107 (2005)
              N. B. Balabanov, K. A. Peterson, J. Chem. Phys. 125, 074110 (2006)
      Ga-Kr : Obtained from the ccRepo (grant-hill.group.shef.ac.uk/ccrepo) Feb. 2017
              A. K. Wilson, D. E. Woon, K. A. Peterson, T. H. Dunning, Jr., J. Chem. Phys. 110, 7667 (1999)
     Ag, Au : Obtained from the Peterson Research Group Website (tyr0.chem.wsu.edu/~kipeters) Feb. 2017
              K. A. Peterson, C. Puzzarini, Theor. Chem. Acc. 114, 283 (2005)

----- AuxJ basis set information -----
Your calculation utilizes the AutoAux generation procedure.
  G. L. Stoychev, A. A. Auer, F. Neese, J. Chem. Theory Comput. 13, 554 (2017)

----- AuxC basis set information -----
Your calculation utilizes the auxiliary basis: aug-cc-pVTZ/C 
  H-He, B-F, Al-Ar, Ga-Kr : Obtained from the EMSL Basis Set Exchange (bse.pnl.gov) Feb. 2017
                            F. Weigend, A. Kohn, C. Hattig, J. Chem. Phys. 116, 3175 (2002)
                   Be, Mg : Obtained from the TURBOMOLE 7.0 basis set library
                            C. Haettig, Phys. Chem. Chem. Phys. 7, 59 (2005)
                       Ne : Obtained from the EMSL Basis Set Exchange (bse.pnl.gov) Feb. 2017
                            C. Haettig, Phys. Chem. Chem. Phys. 7, 59 (2005)
                            F. Weigend, A. Kohn, C. Hattig, J. Chem. Phys. 116, 3175 (2002)
                    Sc-Zn : Obtained from the EMSL Basis Set Exchange (bse.pnl.gov) Feb. 2017
                            J. G. Hill, J. A. Platts, J. Chem. Phys. 128, 044104 (2008)

----- AuxJK basis set information -----
Your calculation utilizes the AutoAux generation procedure.
  G. L. Stoychev, A. A. Auer, F. Neese, J. Chem. Theory Comput. 13, 554 (2017)

================================================================================
                                        WARNINGS
                       Please study these warnings very carefully!
================================================================================


WARNING: your system is open-shell and RHF/RKS was chosen
  ===> : WILL SWITCH to UHF/UKS


WARNING: MDCI localization with Augmented Hessian Foster-Boys
  ===> : Switching off randomization!

WARNING: Post HF methods need fully converged wavefunctions
  ===> : Setting SCFConvForced true
         You can overwrite this default with %scf ConvForced false 


INFO   : the flag for use of LIBINT has been found!

================================================================================
                                       INPUT FILE
================================================================================
NAME = simple-grid-265-260-b3lyp_d3bj-631gd-gas-singlepoint-DLPNO_CCSD_T1-NormalPNO-augtz-gas.inp
|  1> ! aug-cc-pVTZ aug-cc-pVTZ/C DLPNO-CCSD(T1) TightSCF NormalPNO UNO MiniPrint AutoAux
|  2> %pal nproc 10 end
|  3> %maxcore 20000
|  4> %mdci
|  5>      density none
|  6> end
|  7> 
|  8> * xyz 0 6
|  9>  O      0.27321900      0.26325200     -0.76494100
| 10>  C      1.05749100      1.23487900     -0.62740200
| 11>  C      3.21849300     -0.01405600      0.26295100
| 12>  C      2.46787000     -1.02286900     -0.22695900
| 13>  C      2.57376400     -1.45487500     -1.66276500
| 14> Fe     -1.47335700     -0.11759300      0.05142800
| 15> Cl     -2.10699400     -1.97509800     -0.88964000
| 16>  C      1.58084300     -1.89174100      0.61681600
| 17> Cl     -2.57016600      1.68472300     -0.54314100
| 18> Cl     -1.24033000     -0.23666900      2.22970600
| 19>  H      3.89928600      0.48312000     -0.42787800
| 20>  H      2.11191300     -2.82508600      0.85022500
| 21>  H      1.28322900     -1.43466200      1.56076600
| 22>  H      0.67744400     -2.18069200      0.07014600
| 23>  H      2.88139600     -2.50764700     -1.70843200
| 24>  H      1.59707400     -1.39497100     -2.15837900
| 25>  H      3.30500600     -0.86773400     -2.22585600
| 26>  C      3.37977100      0.36865400      1.70846200
| 27>  H      4.28191700     -0.10120300      2.12373500
| 28>  H      3.50823500      1.44976200      1.82971700
| 29>  H      2.53675600      0.05553100      2.32967700
| 30>  C      0.98064400      2.11328500      0.58085100
| 31>  H      1.87411300      2.72581900      0.70359000
| 32>  H      0.12130400      2.78100900      0.41593300
| 33>  H      0.77422900      1.53830200      1.48413300
| 34>  C      1.76639700      1.74810300     -1.84343600
| 35>  H      1.08918700      2.49211400     -2.28950800
| 36>  H      2.70277700      2.25058100     -1.59754400
| 37>  H      1.92334600      0.95862000     -2.57676400
| 38> *
| 39> 
| 40> 
| 41>                          ****END OF INPUT****
================================================================================

                       ****************************
                       * Single Point Calculation *
                       ****************************

---------------------------------
CARTESIAN COORDINATES (ANGSTROEM)
---------------------------------
  O      0.273219    0.263252   -0.764941
  C      1.057491    1.234879   -0.627402
  C      3.218493   -0.014056    0.262951
  C      2.467870   -1.022869   -0.226959
  C      2.573764   -1.454875   -1.662765
  Fe    -1.473357   -0.117593    0.051428
  Cl    -2.106994   -1.975098   -0.889640
  C      1.580843   -1.891741    0.616816
  Cl    -2.570166    1.684723   -0.543141
  Cl    -1.240330   -0.236669    2.229706
  H      3.899286    0.483120   -0.427878
  H      2.111913   -2.825086    0.850225
  H      1.283229   -1.434662    1.560766
  H      0.677444   -2.180692    0.070146
  H      2.881396   -2.507647   -1.708432
  H      1.597074   -1.394971   -2.158379
  H      3.305006   -0.867734   -2.225856
  C      3.379771    0.368654    1.708462
  H      4.281917   -0.101203    2.123735
  H      3.508235    1.449762    1.829717
  H      2.536756    0.055531    2.329677
  C      0.980644    2.113285    0.580851
  H      1.874113    2.725819    0.703590
  H      0.121304    2.781009    0.415933
  H      0.774229    1.538302    1.484133
  C      1.766397    1.748103   -1.843436
  H      1.089187    2.492114   -2.289508
  H      2.702777    2.250581   -1.597544
  H      1.923346    0.958620   -2.576764

----------------------------
CARTESIAN COORDINATES (A.U.)
----------------------------
  NO LB      ZA    FRAG     MASS         X           Y           Z
   0 O     8.0000    0    15.999    0.516309    0.497474   -1.445529
   1 C     6.0000    0    12.011    1.998368    2.333583   -1.185618
   2 C     6.0000    0    12.011    6.082070   -0.026562    0.496905
   3 C     6.0000    0    12.011    4.663598   -1.932942   -0.428890
   4 C     6.0000    0    12.011    4.863709   -2.749315   -3.142170
   5 Fe   26.0000    0    55.850   -2.784241   -0.222219    0.097185
   6 Cl   17.0000    0    35.453   -3.981642   -3.732394   -1.681176
   7 C     6.0000    0    12.011    2.987360   -3.574872    1.165613
   8 Cl   17.0000    0    35.453   -4.856910    3.183665   -1.026388
   9 Cl   17.0000    0    35.453   -2.343884   -0.447240    4.213534
  10 H     1.0000    0     1.008    7.368583    0.912964   -0.808572
  11 H     1.0000    0     1.008    3.990937   -5.338639    1.606692
  12 H     1.0000    0     1.008    2.424951   -2.711118    2.949420
  13 H     1.0000    0     1.008    1.280184   -4.120911    0.132557
  14 H     1.0000    0     1.008    5.445049   -4.738766   -3.228469
  15 H     1.0000    0     1.008    3.018032   -2.636113   -4.078745
  16 H     1.0000    0     1.008    6.245556   -1.639780   -4.206258
  17 C     6.0000    0    12.011    6.386842    0.696655    3.228525
  18 H     1.0000    0     1.008    8.091650   -0.191246    4.013278
  19 H     1.0000    0     1.008    6.629603    2.739653    3.457664
  20 H     1.0000    0     1.008    4.793774    0.104938    4.402452
  21 C     6.0000    0    12.011    1.853149    3.993530    1.097649
  22 H     1.0000    0     1.008    3.541560    5.151051    1.329592
  23 H     1.0000    0     1.008    0.229231    5.255345    0.785999
  24 H     1.0000    0     1.008    1.463081    2.906969    2.804605
  25 C     6.0000    0    12.011    3.338007    3.303436   -3.483589
  26 H     1.0000    0     1.008    2.058265    4.709413   -4.326543
  27 H     1.0000    0     1.008    5.107508    4.252982   -3.018921
  28 H     1.0000    0     1.008    3.634597    1.811529   -4.869378



           ************************************************************
           *        Program running with 10 parallel MPI-processes    *
           *              working on a common directory               *
           ************************************************************


           ************************************************************
           *        Program running with 10 parallel MPI-processes    *
           *              working on a common directory               *
           ************************************************************

Diagonalization of the overlap matrix:
Smallest eigenvalue                        ... 7.509e-07
Time for diagonalization                   ...    0.349 sec
Threshold for overlap eigenvalues          ... 1.000e-08
Number of eigenvalues below threshold      ... 0
Time for construction of square roots      ...    0.286 sec
Total time needed                          ...    0.641 sec

-------------------
DFT GRID GENERATION
-------------------

General Integration Accuracy     IntAcc      ...  4.340
Radial Grid Type                 RadialGrid  ... Gauss-Chebyshev
Angular Grid (max. acc.)         AngularGrid ... Lebedev-110
Angular grid pruning method      GridPruning ... 3 (G Style)
Weight generation scheme         WeightScheme... Becke
Basis function cutoff            BFCut       ...    1.0000e-11
Integration weight cutoff        WCut        ...    1.0000e-14
Grids for H and He will be reduced by one unit

# of grid points (after initial pruning)     ...  36112 (   0.0 sec)
# of grid points (after weights+screening)   ...  32416 (   0.1 sec)
nearest neighbour list constructed           ...    0.0 sec
Grid point re-assignment to atoms done       ...    0.0 sec
Grid point division into batches done        ...    0.0 sec
Reduced shell lists constructed in    0.3 sec

Total number of grid points                  ...    32416
Total number of batches                      ...      520
Average number of points per batch           ...       62
Average number of grid points per atom       ...     1118
Average number of shells per batch           ...   288.25 (84.04%)
Average number of basis functions per batch  ...   854.96 (83.41%)
Average number of large shells per batch     ...   234.11 (81.22%)
Average number of large basis fcns per batch ...   696.72 (81.49%)
Maximum spatial batch extension              ...   3.17,  4.05,  3.89 au
Average spatial batch extension              ...   0.17,  0.18,  0.18 au

Time for grid setup =    0.426 sec

Loading Hartree-Fock densities                     ... done
Calculating cut-offs                               ... done
Setting up the integral package                    ... done
Initializing the effective Hamiltonian             ... done
Starting the Coulomb interaction                   ... done (   1.1 sec)
Reading the grid                                   ... done
Mapping shells                                     ... done
Starting the XC term evaluation                    ... done (   0.9 sec)
Transforming the Hamiltonian                       ... done (   0.2 sec)
Diagonalizing the Hamiltonian                      ... done (   0.4 sec)
Back transforming the eigenvectors                 ... done (   0.1 sec)
Now organizing SCF variables                       ... done
--------------
SCF ITERATIONS
--------------
ITER       Energy         Delta-E        Max-DP      RMS-DP      [F,P]     Damp
               ***  Starting incremental Fock matrix formation  ***
  0  -3027.5875171686   0.000000000000 0.20939892  0.00103250  0.2453772 0.7000
  1  -3027.8417395116  -0.254222342955 0.15973019  0.00081699  0.1521745 0.7000
                               ***Turning on DIIS***
  2  -3028.0117850049  -0.170045493333 0.11336069  0.00060436  0.1093286 0.7000
  3  -3029.6130384871  -1.601253482176 0.26264204  0.00152035  0.0816258 0.0000
  4  -3028.3072858430   1.305752644033 0.04587870  0.00022287  0.0202838 0.0000
  5  -3028.4305400038  -0.123254160796 0.03929908  0.00017382  0.0119373 0.0000
  6  -3028.4755375067  -0.044997502886 0.02082317  0.00007196  0.0054104 0.0000
  7  -3028.4908506795  -0.015313172740 0.00900818  0.00003340  0.0035184 0.0000
  8  -3028.4809163681   0.009934311411 0.00601614  0.00001921  0.0015462 0.0000
  9  -3028.4757212748   0.005195093292 0.00238921  0.00001094  0.0007672 0.0000
 10  -3028.4632897275   0.012431547248 0.00102429  0.00000341  0.0004236 0.0000
 11  -3028.4693668962  -0.006077168713 0.00030473  0.00000175  0.0000826 0.0000
 12  -3028.4672560269   0.002110869340 0.00025116  0.00000131  0.0000254 0.0000
 13  -3028.4672035169   0.000052510033 0.00052314  0.00000193  0.0000093 0.0000
 14  -3028.4672128849  -0.000009368074 0.00053597  0.00000189  0.0000058 0.0000
 15  -3028.4671686853   0.000044199636 0.00043615  0.00000169  0.0000038 0.0000
 16  -3028.4671715942  -0.000002908928 0.00064817  0.00000221  0.0000031 0.0000
 17  -3028.4671868354  -0.000015241231 0.00035935  0.00000189  0.0000020 0.0000
 18  -3028.4671693766   0.000017458850 0.00091571  0.00000306  0.0000014 0.0000
                            ***DIIS convergence achieved***

               *****************************************************
               *                     SUCCESS                       *
               *           SCF CONVERGED AFTER  19 CYCLES          *
               *****************************************************

Total Energy       :        -3028.46717759 Eh          -82408.78148 eV
  Last Energy change         ...   -8.2120e-06  Tolerance :   1.0000e-08
  Last MAX-Density change    ...    3.7558e-04  Tolerance :   1.0000e-07
             **** THE GBW FILE WAS UPDATED (simple-grid-265-260-b3lyp_d3bj-631gd-gas-singlepoint-DLPNO_CCSD_T1-NormalPNO-augtz-gas.gbw) ****
             **** DENSITY FILE WAS UPDATED (simple-grid-265-260-b3lyp_d3bj-631gd-gas-singlepoint-DLPNO_CCSD_T1-NormalPNO-augtz-gas.scfp.tmp) ****
             **** ENERGY FILE WAS UPDATED (simple-grid-265-260-b3lyp_d3bj-631gd-gas-singlepoint-DLPNO_CCSD_T1-NormalPNO-augtz-gas.en.tmp) ****
----------------------
UHF SPIN CONTAMINATION
----------------------

Expectation value of <S**2>     :     8.764960
Ideal value S*(S+1) for S=2.5   :     8.750000
Deviation                       :     0.014960

----------------
ORBITAL ENERGIES
----------------
                 SPIN UP ORBITALS
  NO   OCC          E(Eh)            E(eV) 
   0   1.0000    -261.576018     -7117.8453 
   1   1.0000    -104.793123     -2851.5659 
   2   1.0000    -104.790811     -2851.5029 
   3   1.0000    -104.789420     -2851.4651 
   4   1.0000     -32.243697      -877.3956 
   5   1.0000     -27.720184      -754.3046 
   6   1.0000     -27.719037      -754.2733 
   7   1.0000     -27.718870      -754.2688 
   8   1.0000     -20.615881      -560.9866 
   9   1.0000     -11.422848      -310.8315 
  10   1.0000     -11.277882      -306.8868 
  11   1.0000     -11.272417      -306.7381 
  12   1.0000     -11.268681      -306.6364 
  13   1.0000     -11.243198      -305.9430 
  14   1.0000     -11.241424      -305.8947 
  15   1.0000     -11.239848      -305.8518 
  16   1.0000     -11.230835      -305.6066 
  17   1.0000     -10.519828      -286.2591 
  18   1.0000     -10.517483      -286.1953 
  19   1.0000     -10.516039      -286.1560 
  20   1.0000      -7.986659      -217.3280 
  21   1.0000      -7.985913      -217.3077 
  22   1.0000      -7.985860      -217.3063 
  23   1.0000      -7.984380      -217.2660 
  24   1.0000      -7.983575      -217.2441 
  25   1.0000      -7.983503      -217.2422 
  26   1.0000      -7.982824      -217.2237 
  27   1.0000      -7.982163      -217.2057 
  28   1.0000      -7.982116      -217.2044 
  29   1.0000      -4.598572      -125.1335 
  30   1.0000      -3.211733       -87.3957 
  31   1.0000      -3.209964       -87.3475 
  32   1.0000      -3.209830       -87.3439 
  33   1.0000      -1.464414       -39.8487 
  34   1.0000      -1.127242       -30.6738 
  35   1.0000      -1.101916       -29.9847 
  36   1.0000      -1.066560       -29.0226 
  37   1.0000      -1.060988       -28.8710 
  38   1.0000      -1.058652       -28.8074 
  39   1.0000      -1.022092       -27.8125 
  40   1.0000      -1.011464       -27.5233 
  41   1.0000      -0.959141       -26.0996 
  42   1.0000      -0.942870       -25.6568 
  43   1.0000      -0.927545       -25.2398 
  44   1.0000      -0.927406       -25.2360 
  45   1.0000      -0.916515       -24.9396 
  46   1.0000      -0.916245       -24.9323 
  47   1.0000      -0.897626       -24.4256 
  48   1.0000      -0.813470       -22.1357 
  49   1.0000      -0.729873       -19.8608 
  50   1.0000      -0.712256       -19.3815 
  51   1.0000      -0.703626       -19.1466 
  52   1.0000      -0.688799       -18.7432 
  53   1.0000      -0.655478       -17.8365 
  54   1.0000      -0.622563       -16.9408 
  55   1.0000      -0.621426       -16.9099 
  56   1.0000      -0.602832       -16.4039 
  57   1.0000      -0.600748       -16.3472 
  58   1.0000      -0.585823       -15.9411 
  59   1.0000      -0.580064       -15.7843 
  60   1.0000      -0.559712       -15.2306 
  61   1.0000      -0.554587       -15.0911 
  62   1.0000      -0.552254       -15.0276 
  63   1.0000      -0.539091       -14.6694 
  64   1.0000      -0.533875       -14.5275 
  65   1.0000      -0.526736       -14.3332 
  66   1.0000      -0.502818       -13.6824 
  67   1.0000      -0.493820       -13.4375 
  68   1.0000      -0.477528       -12.9942 
  69   1.0000      -0.475536       -12.9400 
  70   1.0000      -0.446788       -12.1577 
  71   1.0000      -0.440447       -11.9852 
  72   1.0000      -0.438998       -11.9457 
  73   1.0000      -0.430397       -11.7117 
  74   1.0000      -0.428905       -11.6711 
  75   1.0000      -0.428432       -11.6582 
  76   1.0000      -0.358680        -9.7602 
  77   0.0000       0.012898         0.3510 
  78   0.0000       0.023776         0.6470 
  79   0.0000       0.024441         0.6651 
  80   0.0000       0.030560         0.8316 
  81   0.0000       0.039534         1.0758 
  82   0.0000       0.041417         1.1270 
  83   0.0000       0.042657         1.1607 
  84   0.0000       0.043080         1.1723 
  85   0.0000       0.043878         1.1940 
  86   0.0000       0.056172         1.5285 
  87   0.0000       0.057256         1.5580 
  88   0.0000       0.060668         1.6509 
  89   0.0000       0.064424         1.7531 
  90   0.0000       0.066858         1.8193 
  91   0.0000       0.070453         1.9171 
  92   0.0000       0.073638         2.0038 
  93   0.0000       0.075697         2.0598 
  94   0.0000       0.080370         2.1870 
  95   0.0000       0.092299         2.5116 
  96   0.0000       0.092541         2.5182 
  97   0.0000       0.093302         2.5389 
  98   0.0000       0.098527         2.6811 
  99   0.0000       0.102877         2.7994 
 100   0.0000       0.105088         2.8596 
 101   0.0000       0.107098         2.9143 
 102   0.0000       0.116532         3.1710 
 103   0.0000       0.122056         3.3213 
 104   0.0000       0.122830         3.3424 
 105   0.0000       0.123770         3.3680 
 106   0.0000       0.127266         3.4631 
 107   0.0000       0.128431         3.4948 
 108   0.0000       0.130669         3.5557 
 109   0.0000       0.134088         3.6487 
 110   0.0000       0.136272         3.7082 
 111   0.0000       0.139186         3.7874 
 112   0.0000       0.142299         3.8722 
 113   0.0000       0.144960         3.9446 
 114   0.0000       0.149475         4.0674 
 115   0.0000       0.152094         4.1387 
 116   0.0000       0.153476         4.1763 
 117   0.0000       0.159528         4.3410 
 118   0.0000       0.161752         4.4015 
 119   0.0000       0.166443         4.5291 
 120   0.0000       0.167581         4.5601 
 121   0.0000       0.170379         4.6362 
 122   0.0000       0.174438         4.7467 
 123   0.0000       0.177211         4.8222 
 124   0.0000       0.181208         4.9309 
 125   0.0000       0.185448         5.0463 
 126   0.0000       0.188077         5.1178 
 127   0.0000       0.189413         5.1542 
 128   0.0000       0.193714         5.2712 
 129   0.0000       0.197614         5.3773 
 130   0.0000       0.200376         5.4525 
 131   0.0000       0.203026         5.5246 
 132   0.0000       0.205364         5.5882 
 133   0.0000       0.206365         5.6155 
 134   0.0000       0.209458         5.6997 
 135   0.0000       0.212890         5.7930 
 136   0.0000       0.218588         5.9481 
 137   0.0000       0.221728         6.0335 
 138   0.0000       0.224891         6.1196 
 139   0.0000       0.229996         6.2585 
 140   0.0000       0.232447         6.3252 
 141   0.0000       0.235992         6.4217 
 142   0.0000       0.238766         6.4971 
 143   0.0000       0.241292         6.5659 
 144   0.0000       0.246107         6.6969 
 145   0.0000       0.248452         6.7607 
 146   0.0000       0.250585         6.8188 
 147   0.0000       0.252565         6.8727 
 148   0.0000       0.259006         7.0479 
 149   0.0000       0.260951         7.1008 
 150   0.0000       0.263589         7.1726 
 151   0.0000       0.271922         7.3994 
 152   0.0000       0.273426         7.4403 
 153   0.0000       0.275202         7.4886 
 154   0.0000       0.281127         7.6499 
 155   0.0000       0.286616         7.7992 
 156   0.0000       0.292982         7.9724 
 157   0.0000       0.295107         8.0303 
 158   0.0000       0.298051         8.1104 
 159   0.0000       0.302183         8.2228 
 160   0.0000       0.310324         8.4443 
 161   0.0000       0.311197         8.4681 
 162   0.0000       0.315574         8.5872 
 163   0.0000       0.318394         8.6640 
 164   0.0000       0.327781         8.9194 
 165   0.0000       0.330663         8.9978 
 166   0.0000       0.332445         9.0463 
 167   0.0000       0.336673         9.1613 
 168   0.0000       0.342141         9.3101 
 169   0.0000       0.344116         9.3639 
 170   0.0000       0.349155         9.5010 
 171   0.0000       0.350539         9.5386 
 172   0.0000       0.356238         9.6937 
 173   0.0000       0.358336         9.7508 
 174   0.0000       0.361050         9.8247 
 175   0.0000       0.361815         9.8455 
 176   0.0000       0.366259         9.9664 
 177   0.0000       0.370207        10.0738 
 178   0.0000       0.374585        10.1930 
 179   0.0000       0.375911        10.2291 
 180   0.0000       0.378805        10.3078 
 181   0.0000       0.379341        10.3224 
 182   0.0000       0.384023        10.4498 
 183   0.0000       0.385861        10.4998 
 184   0.0000       0.391687        10.6583 
 185   0.0000       0.393298        10.7022 
 186   0.0000       0.400266        10.8918 
 187   0.0000       0.403887        10.9903 
 188   0.0000       0.404807        11.0153 
 189   0.0000       0.408077        11.1043 
 190   0.0000       0.410091        11.1592 
 191   0.0000       0.413117        11.2415 
 192   0.0000       0.415246        11.2994 
 193   0.0000       0.423274        11.5179 
 194   0.0000       0.427601        11.6356 
 195   0.0000       0.429974        11.7002 
 196   0.0000       0.433526        11.7968 
 197   0.0000       0.440447        11.9852 
 198   0.0000       0.442909        12.0522 
 199   0.0000       0.445385        12.1195 
 200   0.0000       0.450707        12.2644 
 201   0.0000       0.453208        12.3324 
 202   0.0000       0.455207        12.3868 
 203   0.0000       0.459691        12.5088 
 204   0.0000       0.462223        12.5777 
 205   0.0000       0.468643        12.7524 
 206   0.0000       0.470025        12.7900 
 207   0.0000       0.471367        12.8266 
 208   0.0000       0.475435        12.9372 
 209   0.0000       0.480156        13.0657 
 210   0.0000       0.483355        13.1528 
 211   0.0000       0.487516        13.2660 
 212   0.0000       0.489819        13.3287 
 213   0.0000       0.492470        13.4008 
 214   0.0000       0.495688        13.4883 
 215   0.0000       0.499400        13.5894 
 216   0.0000       0.503142        13.6912 
 217   0.0000       0.506807        13.7909 
 218   0.0000       0.510023        13.8784 
 219   0.0000       0.512214        13.9381 
 220   0.0000       0.516604        14.0575 
 221   0.0000       0.519579        14.1385 
 222   0.0000       0.520405        14.1609 
 223   0.0000       0.524431        14.2705 
 224   0.0000       0.528609        14.3842 
 225   0.0000       0.531172        14.4539 
 226   0.0000       0.535081        14.5603 
 227   0.0000       0.537872        14.6362 
 228   0.0000       0.540975        14.7207 
 229   0.0000       0.543763        14.7965 
 230   0.0000       0.545496        14.8437 
 231   0.0000       0.550020        14.9668 
 232   0.0000       0.558512        15.1979 
 233   0.0000       0.560877        15.2622 
 234   0.0000       0.566625        15.4187 
 235   0.0000       0.567175        15.4336 
 236   0.0000       0.569539        15.4980 
 237   0.0000       0.573213        15.5979 
 238   0.0000       0.576841        15.6967 
 239   0.0000       0.580049        15.7839 
 240   0.0000       0.582796        15.8587 
 241   0.0000       0.589563        16.0428 
 242   0.0000       0.593412        16.1476 
 243   0.0000       0.597509        16.2590 
 244   0.0000       0.600640        16.3442 
 245   0.0000       0.602892        16.4055 
 246   0.0000       0.611090        16.6286 
 247   0.0000       0.614793        16.7294 
 248   0.0000       0.615509        16.7489 
 249   0.0000       0.620658        16.8890 
 250   0.0000       0.624574        16.9955 
 251   0.0000       0.629804        17.1379 
 252   0.0000       0.634903        17.2766 
 253   0.0000       0.637443        17.3457 
 254   0.0000       0.640644        17.4328 
 255   0.0000       0.642982        17.4964 
 256   0.0000       0.647349        17.6153 
 257   0.0000       0.649319        17.6689 
 258   0.0000       0.651886        17.7387 
 259   0.0000       0.654095        17.7988 
 260   0.0000       0.659320        17.9410 
 261   0.0000       0.660087        17.9619 
 262   0.0000       0.664696        18.0873 
 263   0.0000       0.668179        18.1821 
 264   0.0000       0.672652        18.3038 
 265   0.0000       0.678771        18.4703 
 266   0.0000       0.682896        18.5826 
 267   0.0000       0.685822        18.6622 
 268   0.0000       0.690497        18.7894 
 269   0.0000       0.697310        18.9748 
 270   0.0000       0.698437        19.0054 
 271   0.0000       0.704578        19.1725 
 272   0.0000       0.712955        19.4005 
 273   0.0000       0.716379        19.4937 
 274   0.0000       0.719203        19.5705 
 275   0.0000       0.723445        19.6859 
 276   0.0000       0.726249        19.7622 
 277   0.0000       0.730638        19.8817 
 278   0.0000       0.734187        19.9782 
 279   0.0000       0.737747        20.0751 
 280   0.0000       0.742391        20.2015 
 281   0.0000       0.752312        20.4714 
 282   0.0000       0.757134        20.6027 
 283   0.0000       0.759088        20.6558 
 284   0.0000       0.760869        20.7043 
 285   0.0000       0.770516        20.9668 
 286   0.0000       0.772188        21.0123 
 287   0.0000       0.783596        21.3227 
 288   0.0000       0.792206        21.5570 
 289   0.0000       0.806708        21.9516 
 290   0.0000       0.808213        21.9926 
 291   0.0000       0.814062        22.1517 
 292   0.0000       0.819363        22.2960 
 293   0.0000       0.824492        22.4356 
 294   0.0000       0.831196        22.6180 
 295   0.0000       0.842356        22.9217 
 296   0.0000       0.845920        23.0186 
 297   0.0000       0.847136        23.0517 
 298   0.0000       0.854316        23.2471 
 299   0.0000       0.859466        23.3873 
 300   0.0000       0.862476        23.4692 
 301   0.0000       0.867616        23.6090 
 302   0.0000       0.871360        23.7109 
 303   0.0000       0.875657        23.8278 
 304   0.0000       0.884147        24.0589 
 305   0.0000       0.886002        24.1093 
 306   0.0000       0.887558        24.1517 
 307   0.0000       0.894660        24.3449 
 308   0.0000       0.900056        24.4918 
 309   0.0000       0.906325        24.6624 
 310   0.0000       0.906394        24.6642 
 311   0.0000       0.912222        24.8228 
 312   0.0000       0.913118        24.8472 
 313   0.0000       0.917848        24.9759 
 314   0.0000       0.924332        25.1524 
 315   0.0000       0.925715        25.1900 
 316   0.0000       0.930513        25.3205 
 317   0.0000       0.932715        25.3805 
 318   0.0000       0.939998        25.5786 
 319   0.0000       0.942881        25.6571 
 320   0.0000       0.944568        25.7030 
 321   0.0000       0.949951        25.8495 
 322   0.0000       0.953483        25.9456 
 323   0.0000       0.957513        26.0553 
 324   0.0000       0.958876        26.0923 
 325   0.0000       0.962113        26.1804 
 326   0.0000       0.964387        26.2423 
 327   0.0000       0.969909        26.3926 
 328   0.0000       0.971677        26.4407 
 329   0.0000       0.973559        26.4919 
 330   0.0000       0.979522        26.6541 
 331   0.0000       0.983181        26.7537 
 332   0.0000       0.985686        26.8219 
 333   0.0000       0.990610        26.9559 
 334   0.0000       0.998328        27.1659 
 335   0.0000       1.001435        27.2504 
 336   0.0000       1.001924        27.2637 
 337   0.0000       1.004698        27.3392 
 338   0.0000       1.007250        27.4087 
 339   0.0000       1.009150        27.4604 
 340   0.0000       1.013371        27.5752 
 341   0.0000       1.016442        27.6588 
 342   0.0000       1.022152        27.8142 
 343   0.0000       1.025465        27.9043 
 344   0.0000       1.028056        27.9748 
 345   0.0000       1.033516        28.1234 
 346   0.0000       1.036326        28.1999 
 347   0.0000       1.038745        28.2657 
 348   0.0000       1.041877        28.3509 
 349   0.0000       1.045139        28.4397 
 350   0.0000       1.048792        28.5391 
 351   0.0000       1.056597        28.7515 
 352   0.0000       1.060822        28.8664 
 353   0.0000       1.062263        28.9056 
 354   0.0000       1.066721        29.0269 
 355   0.0000       1.067898        29.0590 
 356   0.0000       1.074078        29.2271 
 357   0.0000       1.077784        29.3280 
 358   0.0000       1.081743        29.4357 
 359   0.0000       1.085433        29.5361 
 360   0.0000       1.087614        29.5955 
 361   0.0000       1.088811        29.6281 
 362   0.0000       1.095125        29.7999 
 363   0.0000       1.102039        29.9880 
 364   0.0000       1.104656        30.0592 
 365   0.0000       1.107596        30.1392 
 366   0.0000       1.112898        30.2835 
 367   0.0000       1.121451        30.5162 
 368   0.0000       1.126964        30.6662 
 369   0.0000       1.127774        30.6883 
 370   0.0000       1.132069        30.8052 
 371   0.0000       1.136463        30.9247 
 372   0.0000       1.145099        31.1597 
 373   0.0000       1.148461        31.2512 
 374   0.0000       1.151723        31.3400 
 375   0.0000       1.155025        31.4298 
 376   0.0000       1.158455        31.5232 
 377   0.0000       1.166722        31.7481 
 378   0.0000       1.171590        31.8806 
 379   0.0000       1.175050        31.9747 
 380   0.0000       1.181436        32.1485 
 381   0.0000       1.183090        32.1935 
 382   0.0000       1.186608        32.2893 
 383   0.0000       1.190745        32.4018 
 384   0.0000       1.194784        32.5117 
 385   0.0000       1.202772        32.7291 
 386   0.0000       1.205246        32.7964 
 387   0.0000       1.206594        32.8331 
 388   0.0000       1.212914        33.0051 
 389   0.0000       1.223375        33.2897 
 390   0.0000       1.226798        33.3829 
 391   0.0000       1.227098        33.3910 
 392   0.0000       1.230925        33.4952 
 393   0.0000       1.234310        33.5873 
 394   0.0000       1.239936        33.7404 
 395   0.0000       1.245229        33.8844 
 396   0.0000       1.252657        34.0865 
 397   0.0000       1.256581        34.1933 
 398   0.0000       1.259719        34.2787 
 399   0.0000       1.264399        34.4061 
 400   0.0000       1.269010        34.5315 
 401   0.0000       1.274377        34.6776 
 402   0.0000       1.276846        34.7448 
 403   0.0000       1.279266        34.8106 
 404   0.0000       1.287369        35.0311 
 405   0.0000       1.290229        35.1089 
 406   0.0000       1.295516        35.2528 
 407   0.0000       1.301173        35.4067 
 408   0.0000       1.305735        35.5309 
 409   0.0000       1.312491        35.7147 
 410   0.0000       1.319523        35.9060 
 411   0.0000       1.321799        35.9680 
 412   0.0000       1.324486        36.0411 
 413   0.0000       1.326988        36.1092 
 414   0.0000       1.338998        36.4360 
 415   0.0000       1.343301        36.5531 
 416   0.0000       1.345792        36.6209 
 417   0.0000       1.353318        36.8256 
 418   0.0000       1.357649        36.9435 
 419   0.0000       1.358013        36.9534 
 420   0.0000       1.363369        37.0992 
 421   0.0000       1.371883        37.3308 
 422   0.0000       1.383530        37.6478 
 423   0.0000       1.386751        37.7354 
 424   0.0000       1.397652        38.0321 
 425   0.0000       1.402514        38.1644 
 426   0.0000       1.406226        38.2654 
 427   0.0000       1.409247        38.3475 
 428   0.0000       1.414376        38.4871 
 429   0.0000       1.417175        38.5633 
 430   0.0000       1.422257        38.7016 
 431   0.0000       1.426503        38.8171 
 432   0.0000       1.437681        39.1213 
 433   0.0000       1.443304        39.2743 
 434   0.0000       1.448457        39.4145 
 435   0.0000       1.453400        39.5490 
 436   0.0000       1.455742        39.6128 
 437   0.0000       1.461728        39.7756 
 438   0.0000       1.470905        40.0254 
 439   0.0000       1.474558        40.1248 
 440   0.0000       1.477695        40.2101 
 441   0.0000       1.479736        40.2657 
 442   0.0000       1.492305        40.6077 
 443   0.0000       1.494992        40.6808 
 444   0.0000       1.501400        40.8552 
 445   0.0000       1.502919        40.8965 
 446   0.0000       1.505763        40.9739 
 447   0.0000       1.511398        41.1272 
 448   0.0000       1.517519        41.2938 
 449   0.0000       1.522800        41.4375 
 450   0.0000       1.524281        41.4778 
 451   0.0000       1.530615        41.6501 
 452   0.0000       1.531902        41.6852 
 453   0.0000       1.537980        41.8506 
 454   0.0000       1.550608        42.1942 
 455   0.0000       1.552643        42.2496 
 456   0.0000       1.559199        42.4280 
 457   0.0000       1.565520        42.6000 
 458   0.0000       1.565880        42.6098 
 459   0.0000       1.576007        42.8853 
 460   0.0000       1.579806        42.9887 
 461   0.0000       1.581953        43.0471 
 462   0.0000       1.592047        43.3218 
 463   0.0000       1.598812        43.5059 
 464   0.0000       1.599392        43.5217 
 465   0.0000       1.603055        43.6213 
 466   0.0000       1.618484        44.0412 
 467   0.0000       1.621971        44.1361 
 468   0.0000       1.626464        44.2583 
 469   0.0000       1.634624        44.4804 
 470   0.0000       1.643281        44.7160 
 471   0.0000       1.647768        44.8381 
 472   0.0000       1.648868        44.8680 
 473   0.0000       1.656904        45.0866 
 474   0.0000       1.659934        45.1691 
 475   0.0000       1.665517        45.3210 
 476   0.0000       1.668978        45.4152 
 477   0.0000       1.673007        45.5248 
 478   0.0000       1.676681        45.6248 
 479   0.0000       1.680110        45.7181 
 480   0.0000       1.683496        45.8103 
 481   0.0000       1.692679        46.0601 
 482   0.0000       1.704291        46.3761 
 483   0.0000       1.710244        46.5381 
 484   0.0000       1.712061        46.5876 
 485   0.0000       1.717018        46.7224 
 486   0.0000       1.719344        46.7857 
 487   0.0000       1.722654        46.8758 
 488   0.0000       1.733817        47.1796 
 489   0.0000       1.739960        47.3467 
 490   0.0000       1.745505        47.4976 
 491   0.0000       1.748530        47.5799 
 492   0.0000       1.751476        47.6601 
 493   0.0000       1.753617        47.7183 
 494   0.0000       1.760003        47.8921 
 495   0.0000       1.772333        48.2276 
 496   0.0000       1.773831        48.2684 
 497   0.0000       1.777792        48.3762 
 498   0.0000       1.784283        48.5528 
 499   0.0000       1.790624        48.7254 
 500   0.0000       1.792634        48.7801 
 501   0.0000       1.800022        48.9811 
 502   0.0000       1.804596        49.1055 
 503   0.0000       1.808104        49.2010 
 504   0.0000       1.813489        49.3475 
 505   0.0000       1.818321        49.4790 
 506   0.0000       1.824030        49.6344 
 507   0.0000       1.830338        49.8060 
 508   0.0000       1.837173        49.9920 
 509   0.0000       1.840580        50.0847 
 510   0.0000       1.844978        50.2044 
 511   0.0000       1.855670        50.4953 
 512   0.0000       1.859339        50.5952 
 513   0.0000       1.864327        50.7309 
 514   0.0000       1.869467        50.8708 
 515   0.0000       1.869958        50.8841 
 516   0.0000       1.876993        51.0756 
 517   0.0000       1.883524        51.2533 
 518   0.0000       1.887430        51.3596 
 519   0.0000       1.889257        51.4093 
 520   0.0000       1.896470        51.6056 
 521   0.0000       1.902493        51.7695 
 522   0.0000       1.911340        52.0102 
 523   0.0000       1.912943        52.0538 
 524   0.0000       1.914557        52.0978 
 525   0.0000       1.925576        52.3976 
 526   0.0000       1.932797        52.5941 
 527   0.0000       1.936602        52.6976 
 528   0.0000       1.939638        52.7802 
 529   0.0000       1.943860        52.8951 
 530   0.0000       1.951965        53.1157 
 531   0.0000       1.954781        53.1923 
 532   0.0000       1.958883        53.3039 
 533   0.0000       1.966765        53.5184 
 534   0.0000       1.971620        53.6505 
 535   0.0000       1.980770        53.8995 
 536   0.0000       1.984526        54.0017 
 537   0.0000       1.988011        54.0965 
 538   0.0000       1.992845        54.2281 
 539   0.0000       1.997131        54.3447 
 540   0.0000       2.011351        54.7317 
 541   0.0000       2.016061        54.8598 
 542   0.0000       2.022695        55.0403 
 543   0.0000       2.030162        55.2435 
 544   0.0000       2.039189        55.4891 
 545   0.0000       2.046694        55.6934 
 546   0.0000       2.049263        55.7633 
 547   0.0000       2.057441        55.9858 
 548   0.0000       2.064286        56.1721 
 549   0.0000       2.068942        56.2988 
 550   0.0000       2.076144        56.4948 
 551   0.0000       2.077294        56.5260 
 552   0.0000       2.088636        56.8347 
 553   0.0000       2.094365        56.9906 
 554   0.0000       2.096601        57.0514 
 555   0.0000       2.098561        57.1048 
 556   0.0000       2.117428        57.6181 
 557   0.0000       2.119775        57.6820 
 558   0.0000       2.128784        57.9272 
 559   0.0000       2.137866        58.1743 
 560   0.0000       2.140978        58.2590 
 561   0.0000       2.150194        58.5098 
 562   0.0000       2.160365        58.7865 
 563   0.0000       2.167309        58.9755 
 564   0.0000       2.170541        59.0634 
 565   0.0000       2.176691        59.2308 
 566   0.0000       2.181776        59.3691 
 567   0.0000       2.189146        59.5697 
 568   0.0000       2.192990        59.6743 
 569   0.0000       2.202927        59.9447 
 570   0.0000       2.214952        60.2719 
 571   0.0000       2.216257        60.3074 
 572   0.0000       2.223073        60.4929 
 573   0.0000       2.224759        60.5388 
 574   0.0000       2.234136        60.7939 
 575   0.0000       2.242883        61.0319 
 576   0.0000       2.248303        61.1794 
 577   0.0000       2.259127        61.4740 
 578   0.0000       2.260671        61.5160 
 579   0.0000       2.269429        61.7543 
 580   0.0000       2.275329        61.9149 
 581   0.0000       2.278908        62.0122 
 582   0.0000       2.290937        62.3396 
 583   0.0000       2.294811        62.4450 
 584   0.0000       2.302390        62.6512 
 585   0.0000       2.307077        62.7787 
 586   0.0000       2.323274        63.2195 
 587   0.0000       2.338435        63.6320 
 588   0.0000       2.342975        63.7556 
 589   0.0000       2.351452        63.9862 
 590   0.0000       2.362550        64.2883 
 591   0.0000       2.369391        64.4744 
 592   0.0000       2.382083        64.8198 
 593   0.0000       2.384042        64.8731 
 594   0.0000       2.398907        65.2776 
 595   0.0000       2.403560        65.4042 
 596   0.0000       2.413173        65.6658 
 597   0.0000       2.415788        65.7369 
 598   0.0000       2.419408        65.8354 
 599   0.0000       2.434796        66.2542 
 600   0.0000       2.437786        66.3355 
 601   0.0000       2.441101        66.4257 
 602   0.0000       2.452525        66.7366 
 603   0.0000       2.463013        67.0220 
 604   0.0000       2.468282        67.1654 
 605   0.0000       2.483035        67.5668 
 606   0.0000       2.498387        67.9846 
 607   0.0000       2.501109        68.0586 
 608   0.0000       2.509026        68.2741 
 609   0.0000       2.521785        68.6212 
 610   0.0000       2.534144        68.9576 
 611   0.0000       2.544128        69.2292 
 612   0.0000       2.552477        69.4564 
 613   0.0000       2.556922        69.5774 
 614   0.0000       2.565882        69.8212 
 615   0.0000       2.575473        70.0822 
 616   0.0000       2.585541        70.3561 
 617   0.0000       2.611137        71.0526 
 618   0.0000       2.639102        71.8136 
 619   0.0000       2.648159        72.0601 
 620   0.0000       2.652866        72.1882 
 621   0.0000       2.667844        72.5957 
 622   0.0000       2.671051        72.6830 
 623   0.0000       2.676953        72.8436 
 624   0.0000       2.682858        73.0043 
 625   0.0000       2.687926        73.1422 
 626   0.0000       2.692589        73.2691 
 627   0.0000       2.709941        73.7412 
 628   0.0000       2.715281        73.8865 
 629   0.0000       2.726425        74.1898 
 630   0.0000       2.738290        74.5127 
 631   0.0000       2.745199        74.7007 
 632   0.0000       2.756779        75.0158 
 633   0.0000       2.762146        75.1618 
 634   0.0000       2.764621        75.2292 
 635   0.0000       2.775737        75.5316 
 636   0.0000       2.786722        75.8306 
 637   0.0000       2.794407        76.0397 
 638   0.0000       2.804582        76.3166 
 639   0.0000       2.814098        76.5755 
 640   0.0000       2.822068        76.7924 
 641   0.0000       2.843693        77.3808 
 642   0.0000       2.854328        77.6702 
 643   0.0000       2.865060        77.9622 
 644   0.0000       2.883989        78.4773 
 645   0.0000       2.897752        78.8518 
 646   0.0000       2.909387        79.1684 
 647   0.0000       2.917265        79.3828 
 648   0.0000       2.926705        79.6397 
 649   0.0000       2.942503        80.0696 
 650   0.0000       2.957487        80.4773 
 651   0.0000       2.977288        81.0161 
 652   0.0000       2.978738        81.0556 
 653   0.0000       2.997294        81.5605 
 654   0.0000       3.018668        82.1421 
 655   0.0000       3.032924        82.5301 
 656   0.0000       3.044996        82.8586 
 657   0.0000       3.054177        83.1084 
 658   0.0000       3.064364        83.3856 
 659   0.0000       3.079400        83.7947 
 660   0.0000       3.093705        84.1840 
 661   0.0000       3.096468        84.2592 
 662   0.0000       3.118724        84.8648 
 663   0.0000       3.143332        85.5344 
 664   0.0000       3.149766        85.7095 
 665   0.0000       3.159518        85.9749 
 666   0.0000       3.174459        86.3814 
 667   0.0000       3.195679        86.9589 
 668   0.0000       3.200431        87.0881 
 669   0.0000       3.207819        87.2892 
 670   0.0000       3.222422        87.6866 
 671   0.0000       3.227689        87.8299 
 672   0.0000       3.234608        88.0182 
 673   0.0000       3.242818        88.2416 
 674   0.0000       3.254603        88.5623 
 675   0.0000       3.260735        88.7291 
 676   0.0000       3.272950        89.0615 
 677   0.0000       3.281914        89.3054 
 678   0.0000       3.293221        89.6131 
 679   0.0000       3.293815        89.6293 
 680   0.0000       3.312305        90.1324 
 681   0.0000       3.314605        90.1950 
 682   0.0000       3.329313        90.5952 
 683   0.0000       3.336756        90.7977 
 684   0.0000       3.340429        90.8977 
 685   0.0000       3.348192        91.1089 
 686   0.0000       3.370574        91.7180 
 687   0.0000       3.379769        91.9682 
 688   0.0000       3.389485        92.2326 
 689   0.0000       3.408102        92.7392 
 690   0.0000       3.414133        92.9033 
 691   0.0000       3.426988        93.2531 
 692   0.0000       3.435061        93.4728 
 693   0.0000       3.440376        93.6174 
 694   0.0000       3.447764        93.8184 
 695   0.0000       3.461593        94.1947 
 696   0.0000       3.466291        94.3226 
 697   0.0000       3.484172        94.8092 
 698   0.0000       3.489895        94.9649 
 699   0.0000       3.493882        95.0734 
 700   0.0000       3.500377        95.2501 
 701   0.0000       3.505328        95.3848 
 702   0.0000       3.525353        95.9297 
 703   0.0000       3.531718        96.1029 
 704   0.0000       3.539597        96.3173 
 705   0.0000       3.542743        96.4029 
 706   0.0000       3.554562        96.7245 
 707   0.0000       3.567642        97.0805 
 708   0.0000       3.571400        97.1827 
 709   0.0000       3.573567        97.2417 
 710   0.0000       3.587496        97.6207 
 711   0.0000       3.589431        97.6734 
 712   0.0000       3.592788        97.7647 
 713   0.0000       3.609894        98.2302 
 714   0.0000       3.618798        98.4725 
 715   0.0000       3.627332        98.7047 
 716   0.0000       3.633984        98.8857 
 717   0.0000       3.642861        99.1273 
 718   0.0000       3.652110        99.3790 
 719   0.0000       3.655533        99.4721 
 720   0.0000       3.669656        99.8564 
 721   0.0000       3.672624        99.9372 
 722   0.0000       3.691231       100.4435 
 723   0.0000       3.694457       100.5313 
 724   0.0000       3.699629       100.6720 
 725   0.0000       3.704259       100.7980 
 726   0.0000       3.709934       100.9524 
 727   0.0000       3.717406       101.1558 
 728   0.0000       3.723726       101.3277 
 729   0.0000       3.727337       101.4260 
 730   0.0000       3.734687       101.6260 
 731   0.0000       3.739069       101.7452 
 732   0.0000       3.746194       101.9391 
 733   0.0000       3.752655       102.1149 
 734   0.0000       3.762535       102.3838 
 735   0.0000       3.779045       102.8331 
 736   0.0000       3.786177       103.0271 
 737   0.0000       3.791376       103.1686 
 738   0.0000       3.800311       103.4117 
 739   0.0000       3.803934       103.5103 
 740   0.0000       3.815482       103.8245 
 741   0.0000       3.818616       103.9098 
 742   0.0000       3.829382       104.2028 
 743   0.0000       3.838715       104.4568 
 744   0.0000       3.843493       104.5868 
 745   0.0000       3.845067       104.6296 
 746   0.0000       3.846329       104.6639 
 747   0.0000       3.868900       105.2781 
 748   0.0000       3.877730       105.5184 
 749   0.0000       3.881615       105.6241 
 750   0.0000       3.882103       105.6374 
 751   0.0000       3.890596       105.8685 
 752   0.0000       3.899954       106.1231 
 753   0.0000       3.907015       106.3153 
 754   0.0000       3.915322       106.5413 
 755   0.0000       3.918459       106.6267 
 756   0.0000       3.936102       107.1068 
 757   0.0000       3.940479       107.2259 
 758   0.0000       3.943956       107.3205 
 759   0.0000       3.950240       107.4915 
 760   0.0000       3.954449       107.6060 
 761   0.0000       3.956462       107.6608 
 762   0.0000       3.962900       107.8360 
 763   0.0000       3.968982       108.0015 
 764   0.0000       3.969770       108.0229 
 765   0.0000       3.979691       108.2929 
 766   0.0000       3.990996       108.6005 
 767   0.0000       3.995327       108.7184 
 768   0.0000       4.011174       109.1496 
 769   0.0000       4.015631       109.2709 
 770   0.0000       4.022136       109.4479 
 771   0.0000       4.023380       109.4817 
 772   0.0000       4.031834       109.7118 
 773   0.0000       4.046852       110.1205 
 774   0.0000       4.061277       110.5130 
 775   0.0000       4.067403       110.6797 
 776   0.0000       4.070847       110.7734 
 777   0.0000       4.080324       111.0313 
 778   0.0000       4.082943       111.1025 
 779   0.0000       4.100187       111.5718 
 780   0.0000       4.106792       111.7515 
 781   0.0000       4.113517       111.9345 
 782   0.0000       4.117104       112.0321 
 783   0.0000       4.132416       112.4488 
 784   0.0000       4.138152       112.6048 
 785   0.0000       4.147071       112.8475 
 786   0.0000       4.151156       112.9587 
 787   0.0000       4.156028       113.0913 
 788   0.0000       4.171231       113.5050 
 789   0.0000       4.178040       113.6903 
 790   0.0000       4.178759       113.7098 
 791   0.0000       4.183460       113.8377 
 792   0.0000       4.189270       113.9958 
 793   0.0000       4.199352       114.2702 
 794   0.0000       4.214976       114.6953 
 795   0.0000       4.216061       114.7249 
 796   0.0000       4.223557       114.9288 
 797   0.0000       4.229258       115.0840 
 798   0.0000       4.235422       115.2517 
 799   0.0000       4.262001       115.9749 
 800   0.0000       4.264500       116.0430 
 801   0.0000       4.267561       116.1262 
 802   0.0000       4.280905       116.4893 
 803   0.0000       4.289834       116.7323 
 804   0.0000       4.291483       116.7772 
 805   0.0000       4.306410       117.1834 
 806   0.0000       4.308652       117.2444 
 807   0.0000       4.324800       117.6838 
 808   0.0000       4.336357       117.9983 
 809   0.0000       4.343595       118.1952 
 810   0.0000       4.358112       118.5902 
 811   0.0000       4.362535       118.7106 
 812   0.0000       4.371114       118.9441 
 813   0.0000       4.374683       119.0412 
 814   0.0000       4.393350       119.5491 
 815   0.0000       4.401475       119.7702 
 816   0.0000       4.411094       120.0320 
 817   0.0000       4.416617       120.1823 
 818   0.0000       4.425574       120.4260 
 819   0.0000       4.432995       120.6279 
 820   0.0000       4.447557       121.0242 
 821   0.0000       4.452828       121.1676 
 822   0.0000       4.457663       121.2992 
 823   0.0000       4.463158       121.4487 
 824   0.0000       4.481257       121.9412 
 825   0.0000       4.492166       122.2381 
 826   0.0000       4.503172       122.5375 
 827   0.0000       4.510013       122.7237 
 828   0.0000       4.518800       122.9628 
 829   0.0000       4.533520       123.3633 
 830   0.0000       4.539294       123.5205 
 831   0.0000       4.548677       123.7758 
 832   0.0000       4.559438       124.0686 
 833   0.0000       4.562083       124.1406 
 834   0.0000       4.574986       124.4917 
 835   0.0000       4.585844       124.7872 
 836   0.0000       4.597064       125.0925 
 837   0.0000       4.612288       125.5067 
 838   0.0000       4.619658       125.7073 
 839   0.0000       4.626443       125.8919 
 840   0.0000       4.637934       126.2046 
 841   0.0000       4.651293       126.5681 
 842   0.0000       4.667728       127.0153 
 843   0.0000       4.671053       127.1058 
 844   0.0000       4.677558       127.2828 
 845   0.0000       4.702783       127.9692 
 846   0.0000       4.708128       128.1147 
 847   0.0000       4.718004       128.3834 
 848   0.0000       4.725641       128.5912 
 849   0.0000       4.746316       129.1538 
 850   0.0000       4.750598       129.2703 
 851   0.0000       4.754890       129.3871 
 852   0.0000       4.777647       130.0064 
 853   0.0000       4.787067       130.2627 
 854   0.0000       4.790935       130.3680 
 855   0.0000       4.818605       131.1209 
 856   0.0000       4.821889       131.2103 
 857   0.0000       4.836046       131.5955 
 858   0.0000       4.853585       132.0728 
 859   0.0000       4.858005       132.1930 
 860   0.0000       4.871551       132.5616 
 861   0.0000       4.877795       132.7315 
 862   0.0000       4.896517       133.2410 
 863   0.0000       4.901147       133.3670 
 864   0.0000       4.907599       133.5426 
 865   0.0000       4.922209       133.9401 
 866   0.0000       4.942019       134.4792 
 867   0.0000       4.946192       134.5927 
 868   0.0000       4.960569       134.9840 
 869   0.0000       4.963996       135.0772 
 870   0.0000       4.986325       135.6848 
 871   0.0000       4.988864       135.7539 
 872   0.0000       4.991276       135.8195 
 873   0.0000       5.009016       136.3023 
 874   0.0000       5.015962       136.4913 
 875   0.0000       5.024032       136.7109 
 876   0.0000       5.040010       137.1456 
 877   0.0000       5.051671       137.4629 
 878   0.0000       5.067744       137.9003 
 879   0.0000       5.072593       138.0323 
 880   0.0000       5.081047       138.2623 
 881   0.0000       5.105526       138.9284 
 882   0.0000       5.116695       139.2323 
 883   0.0000       5.129906       139.5918 
 884   0.0000       5.136768       139.7786 
 885   0.0000       5.138526       139.8264 
 886   0.0000       5.161744       140.4582 
 887   0.0000       5.171742       140.7303 
 888   0.0000       5.196088       141.3928 
 889   0.0000       5.200971       141.5256 
 890   0.0000       5.204022       141.6086 
 891   0.0000       5.216529       141.9490 
 892   0.0000       5.233338       142.4064 
 893   0.0000       5.260383       143.1423 
 894   0.0000       5.266192       143.3004 
 895   0.0000       5.278534       143.6362 
 896   0.0000       5.283101       143.7605 
 897   0.0000       5.303902       144.3265 
 898   0.0000       5.322552       144.8340 
 899   0.0000       5.329320       145.0182 
 900   0.0000       5.343639       145.4078 
 901   0.0000       5.355774       145.7380 
 902   0.0000       5.369898       146.1224 
 903   0.0000       5.376695       146.3073 
 904   0.0000       5.392880       146.7477 
 905   0.0000       5.408453       147.1715 
 906   0.0000       5.415258       147.3567 
 907   0.0000       5.420000       147.4857 
 908   0.0000       5.438703       147.9946 
 909   0.0000       5.448799       148.2694 
 910   0.0000       5.457833       148.5152 
 911   0.0000       5.472479       148.9137 
 912   0.0000       5.477909       149.0615 
 913   0.0000       5.490179       149.3954 
 914   0.0000       5.513255       150.0233 
 915   0.0000       5.526494       150.3836 
 916   0.0000       5.531969       150.5325 
 917   0.0000       5.544886       150.8840 
 918   0.0000       5.561711       151.3418 
 919   0.0000       5.576797       151.7524 
 920   0.0000       5.587382       152.0404 
 921   0.0000       5.597108       152.3051 
 922   0.0000       5.613761       152.7582 
 923   0.0000       5.622869       153.0060 
 924   0.0000       5.628199       153.1511 
 925   0.0000       5.645318       153.6169 
 926   0.0000       5.656771       153.9286 
 927   0.0000       5.661175       154.0484 
 928   0.0000       5.671613       154.3324 
 929   0.0000       5.683877       154.6662 
 930   0.0000       5.693293       154.9224 
 931   0.0000       5.705735       155.2609 
 932   0.0000       5.715390       155.5237 
 933   0.0000       5.729431       155.9057 
 934   0.0000       5.739141       156.1700 
 935   0.0000       5.750688       156.4842 
 936   0.0000       5.757254       156.6628 
 937   0.0000       5.790808       157.5759 
 938   0.0000       5.807927       158.0417 
 939   0.0000       5.819677       158.3615 
 940   0.0000       5.836061       158.8073 
 941   0.0000       5.872621       159.8021 
 942   0.0000       5.883804       160.1065 
 943   0.0000       5.917420       161.0212 
 944   0.0000       5.946137       161.8026 
 945   0.0000       5.985301       162.8683 
 946   0.0000       6.012457       163.6073 
 947   0.0000       6.085270       165.5886 
 948   0.0000       6.098686       165.9537 
 949   0.0000       6.119543       166.5212 
 950   0.0000       6.152024       167.4051 
 951   0.0000       6.165690       167.7769 
 952   0.0000       6.176939       168.0831 
 953   0.0000       6.195888       168.5987 
 954   0.0000       6.217937       169.1987 
 955   0.0000       6.228237       169.4790 
 956   0.0000       6.231573       169.5697 
 957   0.0000       6.259520       170.3302 
 958   0.0000       6.262144       170.4016 
 959   0.0000       6.283115       170.9723 
 960   0.0000       6.296970       171.3493 
 961   0.0000       6.303504       171.5271 
 962   0.0000       6.325843       172.1350 
 963   0.0000       6.352929       172.8720 
 964   0.0000       6.360598       173.0807 
 965   0.0000       6.391269       173.9153 
 966   0.0000       6.411605       174.4686 
 967   0.0000       6.429360       174.9518 
 968   0.0000       6.495809       176.7599 
 969   0.0000       6.548038       178.1812 
 970   0.0000       6.623602       180.2374 
 971   0.0000       6.639658       180.6743 
 972   0.0000       6.808479       185.2681 
 973   0.0000       6.839047       186.0999 
 974   0.0000       6.856487       186.5745 
 975   0.0000       6.893722       187.5877 
 976   0.0000       6.905861       187.9180 
 977   0.0000       6.941458       188.8867 
 978   0.0000       6.952007       189.1737 
 979   0.0000       6.975091       189.8019 
 980   0.0000       6.995225       190.3498 
 981   0.0000       7.012071       190.8082 
 982   0.0000       7.047011       191.7589 
 983   0.0000       7.062302       192.1750 
 984   0.0000       7.101425       193.2396 
 985   0.0000       7.127057       193.9371 
 986   0.0000       7.282470       198.1661 
 987   0.0000       7.324221       199.3022 
 988   0.0000       7.385924       200.9812 
 989   0.0000       7.425794       202.0661 
 990   0.0000       7.531442       204.9410 
 991   0.0000       7.604922       206.9404 
 992   0.0000       7.648836       208.1354 
 993   0.0000       7.661612       208.4831 
 994   0.0000       7.776552       211.6107 
 995   0.0000       7.842586       213.4076 
 996   0.0000       7.951180       216.3626 
 997   0.0000       8.012547       218.0325 
 998   0.0000       8.239250       224.2014 
 999   0.0000       9.403745       255.8889 
 1000   0.0000       9.414335       256.1771 
 1001   0.0000       9.437114       256.7969 
 1002   0.0000       9.451452       257.1871 
 1003   0.0000       9.460312       257.4282 
 1004   0.0000       9.479479       257.9497 
 1005   0.0000       9.645067       262.4556 
 1006   0.0000      10.083744       274.3926 
 1007   0.0000      10.091341       274.5993 
 1008   0.0000      10.102724       274.9091 
 1009   0.0000      10.196129       277.4508 
 1010   0.0000      10.207757       277.7672 
 1011   0.0000      10.243577       278.7419 
 1012   0.0000      10.329569       281.0819 
 1013   0.0000      10.376649       282.3630 
 1014   0.0000      10.456222       284.5283 
 1015   0.0000      12.684041       345.1503 
 1016   0.0000      16.827930       457.9112 
 1017   0.0000      17.606458       479.0961 
 1018   0.0000      18.116938       492.9869 
 1019   0.0000      18.447611       501.9850 
 1020   0.0000      18.613498       506.4990 
 1021   0.0000      18.749571       510.2018 
 1022   0.0000      20.478247       557.2414 
 1023   0.0000      21.421428       582.9067 
 1024   0.0000      21.797367       593.1365 

                 SPIN DOWN ORBITALS
  NO   OCC          E(Eh)            E(eV) 
   0   1.0000    -261.572442     -7117.7480 
   1   1.0000    -104.791624     -2851.5251 
   2   1.0000    -104.789269     -2851.4610 
   3   1.0000    -104.787870     -2851.4229 
   4   1.0000     -32.081720      -872.9880 
   5   1.0000     -27.559661      -749.9365 
   6   1.0000     -27.559558      -749.9337 
   7   1.0000     -27.559438      -749.9304 
   8   1.0000     -20.612435      -560.8929 
   9   1.0000     -11.422716      -310.8279 
  10   1.0000     -11.277780      -306.8840 
  11   1.0000     -11.272415      -306.7380 
  12   1.0000     -11.268760      -306.6386 
  13   1.0000     -11.243068      -305.9394 
  14   1.0000     -11.241433      -305.8950 
  15   1.0000     -11.239834      -305.8514 
  16   1.0000     -11.230841      -305.6067 
  17   1.0000     -10.518227      -286.2155 
  18   1.0000     -10.515836      -286.1504 
  19   1.0000     -10.514392      -286.1112 
  20   1.0000      -7.984149      -217.2598 
  21   1.0000      -7.983402      -217.2394 
  22   1.0000      -7.983355      -217.2381 
  23   1.0000      -7.981697      -217.1930 
  24   1.0000      -7.981057      -217.1756 
  25   1.0000      -7.980955      -217.1728 
  26   1.0000      -7.980386      -217.1573 
  27   1.0000      -7.979493      -217.1330 
  28   1.0000      -7.979413      -217.1309 
  29   1.0000      -4.156481      -113.1036 
  30   1.0000      -2.678032       -72.8730 
  31   1.0000      -2.677973       -72.8714 
  32   1.0000      -2.677581       -72.8607 
  33   1.0000      -1.455866       -39.6161 
  34   1.0000      -1.126923       -30.6651 
  35   1.0000      -1.099609       -29.9219 
  36   1.0000      -1.050961       -28.5981 
  37   1.0000      -1.038438       -28.2573 
  38   1.0000      -1.036142       -28.1949 
  39   1.0000      -1.021433       -27.7946 
  40   1.0000      -1.010930       -27.5088 
  41   1.0000      -0.958958       -26.0946 
  42   1.0000      -0.897806       -24.4305 
  43   1.0000      -0.826110       -22.4796 
  44   1.0000      -0.729931       -19.8624 
  45   1.0000      -0.714398       -19.4398 
  46   1.0000      -0.702801       -19.1242 
  47   1.0000      -0.688099       -18.7241 
  48   1.0000      -0.655435       -17.8353 
  49   1.0000      -0.622242       -16.9321 
  50   1.0000      -0.621152       -16.9024 
  51   1.0000      -0.602622       -16.3982 
  52   1.0000      -0.600732       -16.3468 
  53   1.0000      -0.585527       -15.9330 
  54   1.0000      -0.579262       -15.7625 
  55   1.0000      -0.558701       -15.2030 
  56   1.0000      -0.553921       -15.0730 
  57   1.0000      -0.550642       -14.9837 
  58   1.0000      -0.539066       -14.6687 
  59   1.0000      -0.528212       -14.3734 
  60   1.0000      -0.521677       -14.1956 
  61   1.0000      -0.503812       -13.7094 
  62   1.0000      -0.493622       -13.4321 
  63   1.0000      -0.484955       -13.1963 
  64   1.0000      -0.483141       -13.1469 
  65   1.0000      -0.453877       -12.3506 
  66   1.0000      -0.450766       -12.2660 
  67   1.0000      -0.447969       -12.1899 
  68   1.0000      -0.431632       -11.7453 
  69   1.0000      -0.429580       -11.6895 
  70   1.0000      -0.413457       -11.2507 
  71   1.0000      -0.357986        -9.7413 
  72   0.0000       0.012884         0.3506 
  73   0.0000       0.023751         0.6463 
  74   0.0000       0.024408         0.6642 
  75   0.0000       0.030515         0.8304 
  76   0.0000       0.039432         1.0730 
  77   0.0000       0.041273         1.1231 
  78   0.0000       0.042630         1.1600 
  79   0.0000       0.043095         1.1727 
  80   0.0000       0.043687         1.1888 
  81   0.0000       0.054636         1.4867 
  82   0.0000       0.056176         1.5286 
  83   0.0000       0.060532         1.6472 
  84   0.0000       0.063793         1.7359 
  85   0.0000       0.065638         1.7861 
  86   0.0000       0.066707         1.8152 
  87   0.0000       0.072459         1.9717 
  88   0.0000       0.075532         2.0553 
  89   0.0000       0.080016         2.1774 
  90   0.0000       0.091150         2.4803 
  91   0.0000       0.092335         2.5126 
  92   0.0000       0.092522         2.5177 
  93   0.0000       0.097298         2.6476 
  94   0.0000       0.101194         2.7536 
  95   0.0000       0.103555         2.8179 
  96   0.0000       0.104438         2.8419 
  97   0.0000       0.105754         2.8777 
  98   0.0000       0.106549         2.8993 
  99   0.0000       0.109276         2.9735 
 100   0.0000       0.112034         3.0486 
 101   0.0000       0.114791         3.1236 
 102   0.0000       0.118657         3.2288 
 103   0.0000       0.122449         3.3320 
 104   0.0000       0.124250         3.3810 
 105   0.0000       0.125883         3.4255 
 106   0.0000       0.128242         3.4896 
 107   0.0000       0.130898         3.5619 
 108   0.0000       0.131638         3.5821 
 109   0.0000       0.135467         3.6863 
 110   0.0000       0.136910         3.7255 
 111   0.0000       0.139981         3.8091 
 112   0.0000       0.143638         3.9086 
 113   0.0000       0.146851         3.9960 
 114   0.0000       0.150159         4.0860 
 115   0.0000       0.152920         4.1612 
 116   0.0000       0.156700         4.2640 
 117   0.0000       0.159829         4.3492 
 118   0.0000       0.162846         4.4313 
 119   0.0000       0.167135         4.5480 
 120   0.0000       0.169434         4.6105 
 121   0.0000       0.173776         4.7287 
 122   0.0000       0.176038         4.7902 
 123   0.0000       0.177964         4.8427 
 124   0.0000       0.181678         4.9437 
 125   0.0000       0.186511         5.0752 
 126   0.0000       0.188751         5.1362 
 127   0.0000       0.189990         5.1699 
 128   0.0000       0.197358         5.3704 
 129   0.0000       0.200547         5.4572 
 130   0.0000       0.202019         5.4972 
 131   0.0000       0.204567         5.5666 
 132   0.0000       0.208522         5.6742 
 133   0.0000       0.208954         5.6859 
 134   0.0000       0.215158         5.8547 
 135   0.0000       0.216391         5.8883 
 136   0.0000       0.220835         6.0092 
 137   0.0000       0.224425         6.1069 
 138   0.0000       0.229145         6.2353 
 139   0.0000       0.231577         6.3015 
 140   0.0000       0.238385         6.4868 
 141   0.0000       0.240442         6.5428 
 142   0.0000       0.243422         6.6238 
 143   0.0000       0.244908         6.6643 
 144   0.0000       0.251163         6.8345 
 145   0.0000       0.253405         6.8955 
 146   0.0000       0.256388         6.9767 
 147   0.0000       0.258542         7.0353 
 148   0.0000       0.263096         7.1592 
 149   0.0000       0.265223         7.2171 
 150   0.0000       0.273023         7.4293 
 151   0.0000       0.275677         7.5015 
 152   0.0000       0.277097         7.5402 
 153   0.0000       0.281343         7.6557 
 154   0.0000       0.288983         7.8636 
 155   0.0000       0.292576         7.9614 
 156   0.0000       0.295630         8.0445 
 157   0.0000       0.298855         8.1323 
 158   0.0000       0.302409         8.2290 
 159   0.0000       0.308317         8.3897 
 160   0.0000       0.311577         8.4784 
 161   0.0000       0.317736         8.6460 
 162   0.0000       0.320447         8.7198 
 163   0.0000       0.322900         8.7866 
 164   0.0000       0.330032         8.9806 
 165   0.0000       0.333913         9.0862 
 166   0.0000       0.336488         9.1563 
 167   0.0000       0.340783         9.2732 
 168   0.0000       0.344290         9.3686 
 169   0.0000       0.346502         9.4288 
 170   0.0000       0.350352         9.5336 
 171   0.0000       0.357021         9.7150 
 172   0.0000       0.358700         9.7607 
 173   0.0000       0.361727         9.8431 
 174   0.0000       0.362553         9.8656 
 175   0.0000       0.365544         9.9470 
 176   0.0000       0.367919        10.0116 
 177   0.0000       0.375125        10.2077 
 178   0.0000       0.377868        10.2823 
 179   0.0000       0.380747        10.3607 
 180   0.0000       0.383711        10.4413 
 181   0.0000       0.386857        10.5269 
 182   0.0000       0.392300        10.6750 
 183   0.0000       0.393044        10.6953 
 184   0.0000       0.394363        10.7312 
 185   0.0000       0.397322        10.8117 
 186   0.0000       0.405030        11.0214 
 187   0.0000       0.405296        11.0287 
 188   0.0000       0.407961        11.1012 
 189   0.0000       0.410336        11.1658 
 190   0.0000       0.412097        11.2137 
 191   0.0000       0.415566        11.3081 
 192   0.0000       0.418706        11.3936 
 193   0.0000       0.426806        11.6140 
 194   0.0000       0.431675        11.7465 
 195   0.0000       0.434163        11.8142 
 196   0.0000       0.436485        11.8774 
 197   0.0000       0.442365        12.0374 
 198   0.0000       0.447856        12.1868 
 199   0.0000       0.451397        12.2831 
 200   0.0000       0.453776        12.3479 
 201   0.0000       0.457842        12.4585 
 202   0.0000       0.460999        12.5444 
 203   0.0000       0.465485        12.6665 
 204   0.0000       0.466995        12.7076 
 205   0.0000       0.472305        12.8521 
 206   0.0000       0.473413        12.8822 
 207   0.0000       0.478402        13.0180 
 208   0.0000       0.479723        13.0539 
 209   0.0000       0.483173        13.1478 
 210   0.0000       0.488357        13.2889 
 211   0.0000       0.488817        13.3014 
 212   0.0000       0.494970        13.4688 
 213   0.0000       0.498375        13.5615 
 214   0.0000       0.498960        13.5774 
 215   0.0000       0.504124        13.7179 
 216   0.0000       0.506938        13.7945 
 217   0.0000       0.509615        13.8673 
 218   0.0000       0.513584        13.9753 
 219   0.0000       0.516325        14.0499 
 220   0.0000       0.520776        14.1710 
 221   0.0000       0.521575        14.1928 
 222   0.0000       0.524389        14.2694 
 223   0.0000       0.526321        14.3219 
 224   0.0000       0.530474        14.4349 
 225   0.0000       0.535142        14.5619 
 226   0.0000       0.536403        14.5963 
 227   0.0000       0.539823        14.6893 
 228   0.0000       0.543560        14.7910 
 229   0.0000       0.545434        14.8420 
 230   0.0000       0.549752        14.9595 
 231   0.0000       0.552353        15.0303 
 232   0.0000       0.559784        15.2325 
 233   0.0000       0.562848        15.3159 
 234   0.0000       0.567895        15.4532 
 235   0.0000       0.568780        15.4773 
 236   0.0000       0.570718        15.5300 
 237   0.0000       0.575939        15.6721 
 238   0.0000       0.577999        15.7281 
 239   0.0000       0.581909        15.8346 
 240   0.0000       0.585384        15.9291 
 241   0.0000       0.591194        16.0872 
 242   0.0000       0.596131        16.2216 
 243   0.0000       0.599509        16.3135 
 244   0.0000       0.601644        16.3716 
 245   0.0000       0.607316        16.5259 
 246   0.0000       0.613231        16.6869 
 247   0.0000       0.615813        16.7571 
 248   0.0000       0.619438        16.8558 
 249   0.0000       0.622118        16.9287 
 250   0.0000       0.626676        17.0527 
 251   0.0000       0.631057        17.1719 
 252   0.0000       0.637536        17.3482 
 253   0.0000       0.638722        17.3805 
 254   0.0000       0.642068        17.4716 
 255   0.0000       0.645210        17.5571 
 256   0.0000       0.650183        17.6924 
 257   0.0000       0.653299        17.7772 
 258   0.0000       0.655157        17.8277 
 259   0.0000       0.656351        17.8602 
 260   0.0000       0.661518        18.0008 
 261   0.0000       0.663840        18.0640 
 262   0.0000       0.668223        18.1833 
 263   0.0000       0.672713        18.3055 
 264   0.0000       0.675069        18.3696 
 265   0.0000       0.683193        18.5906 
 266   0.0000       0.686555        18.6821 
 267   0.0000       0.687564        18.7096 
 268   0.0000       0.692425        18.8418 
 269   0.0000       0.700735        19.0680 
 270   0.0000       0.701593        19.0913 
 271   0.0000       0.706892        19.2355 
 272   0.0000       0.715804        19.4780 
 273   0.0000       0.720002        19.5922 
 274   0.0000       0.724357        19.7108 
 275   0.0000       0.727138        19.7864 
 276   0.0000       0.730098        19.8670 
 277   0.0000       0.736034        20.0285 
 278   0.0000       0.738837        20.1048 
 279   0.0000       0.742406        20.2019 
 280   0.0000       0.746750        20.3201 
 281   0.0000       0.753446        20.5023 
 282   0.0000       0.760465        20.6933 
 283   0.0000       0.762092        20.7376 
[...]
  | sigma^2 in % of trace(Dpq) retained ...   1.38e-01
  | Av. % of trace(Di) retained         ...  99.998561160840
  | Av. % of trace(Dp) retained         ...  99.999999268624
  | sigma^2 in % of trace(Di) retained  ...   6.88e-07
  | sigma^2 in % of trace(Dp) retained  ...   1.35e-12
 Distributions of % trace(Dij) recovered:
  |       >= 99.9  ...   105 ( 21.7 % of all IJ-pairs)
  |   [80.0, 90.0) ...    20 (  4.1 % of all IJ-pairs)
  |   [90.0, 99.0) ...   271 ( 56.0 % of all IJ-pairs)
  |   [99.0, 99.9) ...    88 ( 18.2 % of all IJ-pairs)
 Distributions of % trace(Dip) recovered:
  |   [70.0, 80.0) ...     1 (  0.9 % of all IP-pairs)
  |   [80.0, 90.0) ...    12 ( 10.4 % of all IP-pairs)
  |   [90.0, 99.0) ...    56 ( 48.7 % of all IP-pairs)
  |   [99.0, 99.9) ...    46 ( 40.0 % of all IP-pairs)
 Distributions of % trace(Dpq) recovered:
  |       >= 99.9  ...     5 ( 33.3 % of all PQ-pairs)
  |   [99.0, 99.9) ...    10 ( 66.7 % of all PQ-pairs)
 Distributions of % trace(Di) recovered :
  |       >= 99.9  ...    43 (100.0 % of all I-pairs )
 Distributions of % trace(Dp) recovered :
  |       >= 99.9  ...     5 (100.0 % of all P-pairs )

                       ===========================
                       1065 OF 1697 PAIRS ARE KEPT
                       ===========================

 Initial PAO correlation energy (all pairs)    ...  -2.6842025596 Eh
 Energy constituents in PAO basis (Eh):
  | Vijab(+0) ...  -2.2565955911
  | Viab (-1) ...  -0.1742975218
  | Vab  (-2) ...  -0.0573329347
  | Va   (-1) ...  -0.0000453981
  | Vija (+1) ...  -0.0715999856
  | Vij  (+2) ...  -0.0155496732
  | Via  (+0) ...  -0.1086172083
  | Vi   (+1) ...  -0.0001642467
 Initial PNO correlation energy                ...  -2.6496661220 Eh
 Energy constituents in PNO basis (Eh):
  | Vijab(+0) ...  -2.2377636614 (err=  0.0188319297)
  | Viab (-1) ...  -0.1602173353 (err=  0.0140801865)
  | Vab  (-2) ...  -0.0568759233 (err=  0.0004570114)
  | Va   (-1) ...  -0.0000263090 (err=  0.0000190891)
  | Vija (+1) ...  -0.0706388058 (err=  0.0009611798)
  | Vij  (+2) ...  -0.0154962712 (err=  0.0000534021)
  | Via  (+0) ...  -0.1084842287 (err=  0.0001329797)
  | Vi   (+1) ...  -0.0001635874 (err=  0.0000006593)
 Sum of total truncation errors ...   0.0345364376 Eh
  | Pair screening ...   0.0121326414 Eh
  | PNO truncation ...   0.0224037962 Eh

 UMP2 correlation energy (PAO) ...  -2.6791333529
  | alpha-alpha ...  -0.3843198750 (NP_aa=  913)
  | alpha-beta  ...  -1.9900373350 (NP_ab= 1672)
  | beta -beta  ...  -0.3047761429 (NP_bb=  726)
 UMP2 correlation energy (PNO) ...  -2.6442390681
  | alpha-alpha ...  -0.3722129889 (err=  0.0121068861, NP_aa=  566)
  | alpha-beta  ...  -1.9714037697 (err=  0.0186335654, NP_ab= 1040)
  | beta -beta  ...  -0.3006223096 (err=  0.0041538333, NP_bb=  441)
 Sum of total UMP2 truncation errors ...   0.0348942848 Eh
  | Pair screening ...   0.0121336413 Eh
  | PNO truncation ...   0.0227606435 Eh
 Timing for NEV-PNO construction (sec.)
  | Intermediate construction  ..           51.556
  | Amplitude construction     ..           73.521
  | Total time                 ..          125.076
 Making pair pair interaction lists ...      ok
 Total size for 2-ext PNO integrals ...     10.6 MB
Checking the number of SOMO/SOMO doubles PNOs ... 
 #Truncate: (72, 72)[170] -> [85] .. 
 #Truncate: (73, 73)[171] -> [85] .. 
 #Truncate: (74, 74)[173] -> [85] .. 
 #Truncate: (75, 75)[172] -> [85] .. 
 #Truncate: (76, 76)[173] -> [85] .. 

--------------------------------
LOCAL RI TRANSFORMATION (VABPAO)
--------------------------------

Number of PAOs:    1030
Basis functions:   1025 (343 shells)
Aux. functions:    2424 (644 shells)

Processing maps (0.0 sec)
Average map sizes:
   Aux shells -> PAOs           1030.0
   PAOs       -> AO shells       343.0

Calculating integrals (223.5 sec, 37370.165 MB)
Finished
-----------------------------
LOCAL RI TRANSFORMATION (IJV)
-----------------------------

Orbital window:      29 to 76
Basis functions:   1025 (343 shells)
Aux. functions:    2424 (644 shells)

Processing maps (0.0 sec)
Average map sizes:
   Aux shells -> MOs(i)           46.3
   Aux shells -> MOs(j)           48.0
   MOs        -> AO shells       340.5

Calculating integrals (26.5 sec, 41.270 MB)
Sorting integrals (0.3 sec, 41.242 MB)
Total time for the integral transformation: 26.9 sec


-------------------------------------
Pair Pair Term precalculation with     
RI-(ij|mn) and (im|jn) transformation  
ON THE FLY                             
-------------------------------------

   IBatch   1 (of   2)              ... done ( 1362.365 sec)
   IBatch   2 (of   2)              ... done (  997.187 sec)
Total EXT                           ...        2359.552 sec

---------------------
RI-PNO TRANSFORMATION
---------------------

Total Number of PNOs                   ... 33129
Total Number of IJ-PNOs                ... 29023
Total Number of IP-PNOs                ...  3153
Total Number of PQ-PNOs                ...   953
Total Number of IJ-pairs               ...   925
Total Number of PI-pairs               ...   115
Total Number of PQ-pairs               ...    25
Average number of PNOs per pair        ...    31
Maximal number of PNOs per pair        ...    85
>> Statistics for ij-pairs..
   #pairs with  1 -  5 PNOs   :    0
   #pairs with  6 - 10 PNOs   :    0
   #pairs with 11 - 15 PNOs   :   98
   #pairs with 16 - 20 PNOs   :  182
   #pairs with 21 - 25 PNOs   :  160
   #pairs with 26 - 30 PNOs   :  138
   #pairs with 31 - 35 PNOs   :   60
   #pairs with 36 - 40 PNOs   :   56
   #pairs with 41 - 45 PNOs   :   44
   #pairs with 46 - 50 PNOs   :   20
   #pairs with 51 - 55 PNOs   :   34
   #pairs with 56 - 60 PNOs   :   55
   #pairs with 61 - 65 PNOs   :   73
   #pairs with 66 - 70 PNOs   :    3
   #pairs with 81 - 85 PNOs   :    2
>> Statistics for ip-pairs..
   #pairs with  1 -  5 PNOs   :    0
   #pairs with  6 - 10 PNOs   :    2
   #pairs with 11 - 15 PNOs   :   13
   #pairs with 16 - 20 PNOs   :    8
   #pairs with 21 - 25 PNOs   :   24
   #pairs with 26 - 30 PNOs   :   10
   #pairs with 31 - 35 PNOs   :   45
   #pairs with 36 - 40 PNOs   :   12
   #pairs with 41 - 45 PNOs   :    1
   #pairs with 46 - 50 PNOs   :    0
>> Statistics for pq-pairs..
   #pairs with  1 -  5 PNOs   :    0
   #pairs with  6 - 10 PNOs   :    0
   #pairs with 11 - 15 PNOs   :    0
   #pairs with 16 - 20 PNOs   :    0
   #pairs with 21 - 25 PNOs   :   10
   #pairs with 26 - 30 PNOs   :   10
   #pairs with 31 - 35 PNOs   :    0
   #pairs with 36 - 40 PNOs   :    0
   #pairs with 41 - 45 PNOs   :    0
   #pairs with 46 - 50 PNOs   :    0
   #pairs with 81 - 85 PNOs   :    5

Generation of (ij|ab)[P] integrals            ... on
Generation of (ia|bc)[P],(ja|bc)[P] integrals ... on
Storage of 3 and 4 external integrals         ... on
Generation of ALL (ka|bc)[P] integrals        ... on
Keep RI integrals in memory                   ... off

Ibatch:  1 (of  1)
Starting 2-4 index PNO integral generation ... done

Timings:
Total PNO integral transformation time     ...       2061.430 sec
Size of the 3-external file                ...       279 MB
Size of the 4-external file                ...      1898 MB
Size of the IKJL file                      ...        17 MB
Size of the all 3-external file            ...      6708 MB
Size of the 1-external file                ...        21 MB

Size of the PAO/PNO coefficient matrices   ...     210.2 MB

Making pair/pair overlap matrices          ... done (  289.047 sec)
Size of the pair overlap file              ...    2302.0 MB
Total # unrestricted pairs ...       2047
  # of alpha-alpha pairs   ...        566
  # of alpha-beta pairs    ...       1040
  # of beta-beta pairs     ...        441
Constructing the guess amplitudes          ... done (    0.571 sec)

-------------------------
FINAL STARTUP INFORMATION
-------------------------

E(0)                                       ...  -3028.459076700
E(SL-UMP2 in NEV-PNO space)                ...     -2.680047850
Initial E(tot)                             ...  -3031.139124550
<T|T>                                      ...      0.532482778
Number of unrestricted pairs included      ... 2047
Total number of pairs                      ... 4095
----------------------------------------------------------
                     OPEN-SHELL COUPLED CLUSTER ITERATIONS
----------------------------------------------------------

Number of PNO amplitudes to be optimized        ...          2038023
Number of canonical amplitudes for strong pairs ...       1848854876
Untruncated number of canonical amplitudes      ...       3698645738

Iter       E(tot)           E(Corr)          Delta-E          Residual     Time
  0  -3031.146332940     -2.651447457      0.028600393      0.021362039 1513.74
                           *** Turning on DIIS ***
  1  -3031.262073922     -2.767188440     -0.115740982      0.010244130 1506.06
  2  -3031.326938343     -2.832052861     -0.064864421      0.008547096 1506.79
  3  -3031.348898966     -2.854013484     -0.021960623      0.003284542 1515.24
  4  -3031.356532428     -2.861646946     -0.007633462      0.002670525 1506.02
  5  -3031.360725394     -2.865839912     -0.004192966      0.001506263 1537.51
  6  -3031.362274712     -2.867389230     -0.001549318      0.000765238 1553.07
  7  -3031.362927752     -2.868042269     -0.000653039      0.000486109 1565.22
  8  -3031.363073314     -2.868187831     -0.000145562      0.000232628 1518.78
  9  -3031.363133283     -2.868247801     -0.000059969      0.000129492 1429.63
 10  -3031.363134085     -2.868248602     -0.000000801      0.000089283 1436.69
 11  -3031.363147475     -2.868261993     -0.000013391      0.000060791 1411.66
 12  -3031.363152303     -2.868266821     -0.000004828      0.000034805 1407.92
 13  -3031.363154553     -2.868269071     -0.000002250      0.000016791 1429.79
 14  -3031.363156278     -2.868270796     -0.000001725      0.000010140 1413.81
 15  -3031.363155356     -2.868269874      0.000000921      0.000004540 1433.77
               --- The CCSD iterations have converged ---

E(0)                                       ...  -3028.459076700
E(CORR)(strong-pairs)                      ...     -2.868269874
E(CORR)(weak-pairs)                        ...     -0.035808782
E(CORR)(corrected)                         ...     -2.904078656
E(TOT)                                     ...  -3031.363155356
Singles norm <S|S>**1/2                    ...      0.195718591 ( 0.064847727, 0.130870864)  
T1 diagnostic                              ...      0.020516883                              
<S**2>(linearized)                         ...      8.7508494 (ideal value:      8.7500000)

----------------------
LARGEST PNO AMPLITUDES
----------------------
  47a-> 78a  47b-> 78b       0.060047
  52b-> 76b  -1b-> -1b       0.055441
  49b-> 72b  -1b-> -1b       0.054346
  51b-> 76b  -1b-> -1b       0.053344
  49b-> 75b  -1b-> -1b       0.046847
  42b-> 73b  -1b-> -1b       0.046641
  46a-> 78a  46b-> 78b       0.046607
  49b-> 74b  -1b-> -1b       0.046391
  56a-> 77a  56b-> 77b       0.044797
  43a-> 77a  43b-> 77b       0.044648
  55a-> 77a  55b-> 77b       0.044459
  70a-> 77a  70b-> 77b       0.044439
  38b-> 73b  -1b-> -1b       0.044396
  36b-> 72b  -1b-> -1b       0.043981
  64a-> 77a  64b-> 77b       0.043430
  62a-> 77a  62b-> 77b       0.042988

Total # unrestricted pairs ...       1264
  # of alpha-alpha pairs   ...        347
  # of alpha-beta pairs    ...        632
  # of beta-beta pairs     ...        285

-------------------------------------------
DLPNO BASED TRIPLES CORRECTION
-------------------------------------------

Singles multiplier          ...  1.000000
Fragment selection                          .... not used
TCutTNO                     ... 1.000e-09
TCutMP2Pairs                ... 1.000e-05
TCutDOStrong                ... 2.000e-02
TCutMKNStrong               ... 1.000e-02
TCutDOWeak                  ... 4.000e-02
TCutMKNWeak                 ... 1.000e-01
NTCutTNO                    ... 1

Number of Triples that are to be computed         ...     32588

 . . . . . . . . .
10% done  
20% done  
30% done  
40% done  
50% done  
60% done  
70% done  
80% done  
90% done  
          Batch   1   done (  13549.860 sec)

Triples-Correction TCutTNO=   1.000e-09 (NWeakPairs = 0  1  2  3)  -0.116331097632   -0.001787912091    0.000000000000    0.000000000000
Triples-Correction  -0.118119009723

Triples timings:
Total time                      ... 14103.761 sec

Triples List generation         ...     0.000 sec
TNO generation                  ...   553.676 sec
Pair density generation         ...     0.080 sec
Look up tables                  ...     0.109 sec
Generating 3-index integrals    ...  8203.368 sec
Make 4-ind.int. from 3-ind.int  ...     3.256 sec
Projecting amplitudes (D + S)   ...  5104.367 sec
Sorting integrals for spin cases...    49.313 sec
Calculate W0/W1                 ...   153.625 sec
Energy contr. (sum over a,b,c)  ...    35.794 sec

Everything after 3-index        ...  5465.363 sec

Energy contribution AAA         ...    23.096 sec
Energy contribution AAB         ...   105.638 sec
Energy contribution ABB         ...    96.779 sec
Energy contribution BBB         ...    13.258 sec
prep                ...     2.904 sec
makeTTNO            ...  5052.361 sec
copyij              ...     0.120 sec
copyil              ...     3.862 sec
transposeij         ...     0.071 sec
newMatInDoubleProj  ...    49.780 sec
BlasInDoubleProj    ...  2701.784 sec
ProjSingles         ...    42.666 sec
ProjDoubles         ...  5061.700 sec
overall Doubles for projection      ... 2927295
used Doubles for projection         ... 2927295


Number of Triples   (0, 1, 2, 3 weak pairs; overall):  14978   11984       0       0  ( 26962)
Number of Atoms     (0, 1, 2, 3 weak pairs; overall):   19.0    13.8     0.0     0.0  (    29)
Number of PAOs      (0, 1, 2, 3 weak pairs; overall):  746.3   561.9     0.0     0.0  (  1025)
Number of AuxFcns   (0, 1, 2, 3 weak pairs; overall):  877.7   589.0     0.0     0.0  (  2424)
Number of TNOs (0, 1, 2, 3 weak pairs         ):   78.3    55.1     0.0     0.0
Aver. Number of NTNO, Atoms, PAOs, AuxFcns / Triples:  26962    68.0    16.7   664.4   749.4

Triples Correction (T)                     ...     -0.118119010
    alpha-alpha-alpha ... -0.003780826 (  3.2%)
    alpha-alpha-beta  ... -0.055469577 ( 47.0%)
    alpha-beta -beta  ... -0.054820177 ( 46.4%)
    beta -beta -beta  ... -0.004048429 (  3.4%)
Final correlation energy                   ...     -3.022197666
E(CCSD)                                    ...  -3031.363155356
E(CCSD(T))                                 ...  -3031.481274366

----------------------------
STATISTICS FOR PAIR-ENERGIES
----------------------------
Minimum, maximum and average ratios of UMP and CCSD pair-energies ... 0.44, 1.46, 1.02


------------------------------------------------------------------------------- 
                                     TIMINGS                                   
------------------------------------------------------------------------------- 


Total execution time                   ...    46109.331 sec

Localization of occupied MO's          ...       10.338 sec (  0.0%)
Fock Matrix Formation                  ...     1625.374 sec (  3.5%)
Differential overlap integrals         ...        1.622 sec (  0.0%)
Organizing maps                        ...        1.672 sec (  0.0%)
RI 3-index integral generations        ...      314.202 sec (  0.7%)
RI-PNO integral transformation         ...     4735.746 sec ( 10.3%)
Initial Guess                          ...     1965.477 sec (  4.3%)
DIIS Solver                            ...       17.820 sec (  0.0%)
State Vector Update                    ...        0.655 sec (  0.0%)
Sigma-vector construction              ...    23685.704 sec ( 51.4%)
  <0|H|D>                              ...        0.029 sec (  0.0% of sigma)
  <D|H|D>(0-ext)                       ...     4358.759 sec ( 18.4% of sigma)
  <D|H|D>(2-ext Fock)                  ...        1.331 sec (  0.0% of sigma)
  <D|H|D>(2-ext)                       ...     3286.702 sec ( 13.9% of sigma)
  <D|H|D>(4-ext)                       ...      133.077 sec (  0.6% of sigma)
  <D|H|D>(4-ext-corr)                  ...      829.120 sec (  3.5% of sigma)
  CCSD doubles correction              ...      406.598 sec (  1.7% of sigma)
  <S|H|S>                              ...      601.963 sec (  2.5% of sigma)
  <S|H|D>(1-ext)                       ...      222.482 sec (  0.9% of sigma)
  <D|H|S>(1-ext)                       ...        1.094 sec (  0.0% of sigma)
  <S|H|D>(3-ext)                       ...       20.075 sec (  0.1% of sigma)
  CCSD singles correction              ...        0.004 sec (  0.0% of sigma)
  Fock-dressing                        ...     6984.828 sec ( 29.5% of sigma)
  Singles amplitudes                   ...       95.127 sec (  0.4% of sigma)
  (ik|jl)-dressing                     ...     5345.082 sec ( 22.6% of sigma)
  (ij|ab),(ia|jb)-dressing             ...     1133.082 sec (  4.8% of sigma)
  Pair energies                        ...        0.111 sec (  0.0% of sigma)
Total Time for computing (T)           ...    14139.481 sec ( 30.7% of ALL)


-------------------------   --------------------
FINAL SINGLE POINT ENERGY     -3031.481274366128
-------------------------   --------------------


                            ***************************************
                            *     ORCA property calculations      *
                            ***************************************

                                    ---------------------
                                    Active property flags
                                    ---------------------
   (+) Dipole Moment


------------------------------------------------------------------------------
                       ORCA ELECTRIC PROPERTIES CALCULATION
------------------------------------------------------------------------------

Dipole Moment Calculation                       ... on
Quadrupole Moment Calculation                   ... off
Polarizability Calculation                      ... off
GBWName                                         ... simple-grid-265-260-b3lyp_d3bj-631gd-gas-singlepoint-DLPNO_CCSD_T1-NormalPNO-augtz-gas.gbw
Electron density file                           ... simple-grid-265-260-b3lyp_d3bj-631gd-gas-singlepoint-DLPNO_CCSD_T1-NormalPNO-augtz-gas.scfp.tmp
The origin for moment calculation is the CENTER OF MASS  = (-0.314761, -0.029947  0.019176)

-------------
DIPOLE MOMENT
-------------
                                X             Y             Z
Electronic contribution:    -43.54479      -3.20294       2.23668
Nuclear contribution   :     46.89931       4.46205      -2.85724
                        -----------------------------------------
Total Dipole Moment    :      3.35452       1.25911      -0.62057
                        -----------------------------------------
Magnitude (a.u.)       :      3.63638
Magnitude (Debye)      :      9.24296



--------------------
Rotational spectrum 
--------------------
 
Rotational constants in cm-1:     0.019043     0.010806     0.010184 
Rotational constants in MHz :   570.884545   323.958858   305.304900 

 Dipole components along the rotational axes: 
x,y,z [a.u.] :     3.348417    -1.269673    -0.631924 
x,y,z [Debye]:     8.511000    -3.227252    -1.606224 

 

Timings for individual modules:

Sum of individual times         ...    64528.101 sec (=1075.468 min)
GTO integral calculation        ...       12.373 sec (=   0.206 min)   0.0 %
SCF iterations                  ...    18389.219 sec (= 306.487 min)  28.5 %
MDCI module                     ...    46126.509 sec (= 768.775 min)  71.5 %
                             ****ORCA TERMINATED NORMALLY****
TOTAL RUN TIME: 0 days 17 hours 55 minutes 30 seconds 702 msec
